Control file title. For DL_FIELD 4.10
49698
    1MOL     C1    1   6.703   5.883   7.321  0.2442  0.2353  0.6823
    1MOL     C2    2   6.555   5.882   7.311 -0.5176 -0.1711  0.3373
    1MOL     O3    3   6.501   5.764   7.371  0.0423  0.3856 -0.0637
    1MOL     C4    4   6.520   5.755   7.511  0.2597  0.3621 -0.5236
    1MOL     C5    5   6.397   5.679   7.556 -0.8726  0.1425 -0.8331
    1MOL     C6    6   6.281   5.758   7.613  0.6333  0.0282  0.4518
    1MOL     C7    7   6.173   5.664   7.684  0.1663 -0.3392  0.7882
    1MOL     C8    8   6.076   5.752   7.761 -0.2174  0.0917  0.1191
    1MOL     C9    9   5.982   5.816   7.656 -0.7602  0.9274 -0.1583
    1MOL    H10   10   6.741   5.899   7.422 -0.0956  0.0216  0.8439
    1MOL    H11   11   6.727   5.778   7.303 -1.1475 -0.1413  1.0259
    1MOL    H12   12   6.526   5.961   7.380 -2.5545 -0.3758 -0.2550
    1MOL    H13   13   6.537   5.852   7.558  0.4228  1.7025 -3.2319
    1MOL    H14   14   6.614   5.703   7.529  0.1759  0.5889  0.6002
    1MOL    H15   15   6.426   5.625   7.647 -0.4749  0.8280 -0.5483
    1MOL    H16   16   6.367   5.592   7.498 -1.5535  0.7549 -1.4043
    1MOL    H17   17   6.327   5.828   7.683  3.4376  0.7286 -2.0030
    1MOL    H18   18   6.235   5.817   7.534 -1.4925 -4.2578 -1.6765
    1MOL    H19   19   6.118   5.582   7.637 -0.2270  0.1775  0.3485
    1MOL    H20   20   6.226   5.612   7.764 -2.3116 -2.1796  1.2693
    1MOL    H21   21   6.132   5.816   0.051  0.4388  1.3075 -1.5233
    1MOL    H22   22   6.017   5.699   0.057  0.7605 -0.1053  0.7676
    1MOL    H23   23   6.034   5.872   7.579 -0.1809 -2.1333 -2.0701
    1MOL    H24   24   5.909   5.752   7.606  0.2516 -1.8157  1.7283
    1MOL    H25   25   5.911   5.885   7.701 -0.2867 -0.2045  2.4611
    1MOL    H26   26   6.751   5.957   7.257  0.5283  0.3114  0.9824
    1MOL    C27   27   6.493   5.907   7.170  0.0177  0.0691 -0.1417
    1MOL    C28   28   6.344   5.936   7.172  0.1960  0.4542 -0.0007
    1MOL    O29   29   6.323   6.057   7.253 -0.5912  0.0358  0.0815
    1MOL    C30   30   6.202   6.058   7.327 -0.6149 -0.1416 -0.0500
    1MOL    C31   31   6.182   6.209   7.359  0.0933  0.0256  0.0207
    1MOL    C32   32   6.166   6.302   7.231  0.0743  0.5820 -0.1853
    1MOL    C33   33   6.111   6.435   7.264 -0.7185  0.2299  0.0536
    1MOL    C34   34   6.100   6.524   7.137 -0.1933 -0.3560 -0.1942
    1MOL    C35   35   6.065   6.675   7.157 -0.2132 -0.1145  0.2229
    1MOL    H36   36   6.551   5.992   7.133  2.6297 -0.1601  3.1312
    1MOL    H37   37   6.513   5.833   7.093  0.8132  0.9384 -0.7890
    1MOL    H38   38   6.297   5.850   7.219  1.0071  0.2199  0.4010
    1MOL    H39   39   6.218   5.981   7.403  0.9209  1.8253  1.6746
    1MOL    H40   40   6.122   6.008   7.274 -0.5596  0.1400 -0.3966
    1MOL    H41   41   6.264   6.246   7.420  1.3236  1.5752 -2.4466
    1MOL    H42   42   6.095   6.217   7.424  0.2645 -2.3020  0.5816
    1MOL    H43   43   6.265   6.319   7.188  0.5006 -0.1439  0.4982
    1MOL    H44   44   6.102   6.259   7.155  0.8538 -1.0136  0.0492
    1MOL    H45   45   6.014   6.425   7.312 -0.1520 -0.0720  1.1601
    1MOL    H46   46   6.165   6.492   7.341 -1.1947  1.6781 -0.6709
    1MOL    H47   47   6.191   6.511   7.079 -0.1175 -1.3314  0.1358
    1MOL    H48   48   6.020   6.482   7.076  0.7532 -1.0364 -0.9765
    1MOL    H49   49   6.026   6.713   7.062  0.8290 -1.6977 -0.8672
    1MOL    H50   50   6.000   6.693   7.243 -0.4574  1.2989 -0.2413
    1MOL    H51   51   6.163   6.720   7.168  0.3716 -0.7444 -2.0526
    1MOL    C52   52   6.269   5.957   7.039  0.5254  0.1088  0.0823
    1MOL    C53   53   6.234   5.831   6.967  0.9714 -0.4088  0.5136
    1MOL    O54   54   6.135   5.768   7.043  0.1145  0.2543 -0.1246
    1MOL    C55   55   6.178   5.645   7.095 -0.5368 -0.1195  0.1283
    1MOL    C56   56   6.127   5.628   7.238  1.0639  0.1213 -0.2030
    1MOL    C57   57   6.181   5.508   7.315 -0.3059 -0.1669  0.4529
    1MOL    C58   58   6.106   5.371   7.271  0.0470 -0.1568  0.3129
    1MOL    C59   59   6.150   5.246   7.351 -0.1659 -0.4591  0.0132
    1MOL    C60   60   6.078   5.104   7.325  0.3087 -1.0200 -0.5030
    1MOL    H61   61   6.337   6.018   6.980  0.9393  0.2627  0.7221
    1MOL    H62   62   6.171   6.005   7.043  0.1184 -0.6196 -0.8618
    1MOL    H63   63   6.318   5.765   6.945 -0.2782 -1.7857 -0.1584
    1MOL    H64   64   6.287   5.638   7.102 -0.5574  1.3826  2.2067
    1MOL    H65   65   6.139   5.568   7.029  0.1968  0.6773 -1.2668
    1MOL    H66   66   6.018   5.629   7.241  0.9582 -3.8774 -1.0940
    1MOL    H67   67   6.154   5.716   7.297  0.7337  0.0939 -0.0058
    1MOL    H68   68   6.288   5.494   7.301 -0.5088 -1.2311 -0.0951
    1MOL    H69   69   6.177   5.519   7.424  0.9893  1.3205  0.3611
    1MOL    H70   70   5.999   5.377   7.289  0.0742 -0.3466  0.5465
    1MOL    H71   71   6.127   5.354   7.165  0.6676 -0.5272  0.4913
    1MOL    H72   72   6.258   5.243   7.337 -0.1555 -0.2786  0.0517
    1MOL    H73   73   6.144   5.269   7.457  0.7324  1.0890 -0.2653
    1MOL    H74   74   6.112   5.028   7.396  0.6130  0.9181  1.4797
    1MOL    H75   75   5.969   5.108   7.336  0.4089  1.1532 -0.1497
    1MOL    H76   76   6.112   5.053   7.236  2.0495  1.0880 -1.0721
    1MOL    C77   77   6.170   5.870   6.829  0.2699  0.5041 -0.1995
    1MOL    C78   78   6.142   5.749   6.744 -0.2805  0.2512 -0.0278
    1MOL    O79   79   6.267   5.687   6.708  0.3629 -0.4877  0.8881
    1MOL    C80   80   6.254   5.546   6.690 -0.1492 -0.0874 -0.4262
    1MOL    C81   81   6.389   5.496   6.643  0.3766 -0.6475 -0.1760
    1MOL    C82   82   6.426   5.555   6.510  0.6023  0.5294 -0.8821
    1MOL    C83   83   6.371   5.474   6.392  0.7780 -0.3830 -0.2081
    1MOL    C84   84   6.434   5.499   6.255 -0.3682 -0.5548  0.7102
    1MOL    C85   85   6.585   5.471   6.249  0.8051 -0.0923  0.4415
    1MOL    H86   86   6.236   5.940   6.778  1.7427 -0.1838  0.7032
    1MOL    H87   87   6.073   5.917   6.845  0.1411  1.2280 -2.9270
    1MOL    H88   88   6.095   5.681   6.815  0.1621  0.6030  0.6042
    1MOL    H89   89   6.164   5.519   6.633 -0.5236 -0.5833  0.3962
    1MOL    H90   90   6.244   5.499   6.787  2.1965 -1.6095 -0.8904
    1MOL    H91   91   6.388   5.388   6.635 -0.4076 -0.6964  0.5152
    1MOL    H92   92   6.467   5.511   6.718 -0.2090  2.1518 -0.0780
    1MOL    H93   93   6.401   5.661   6.504 -2.3170 -0.1338 -0.9630
    1MOL    H94   94   6.534   5.541   6.506  0.8138  1.6264  0.6139
    1MOL    H95   95   6.379   5.366   6.407 -1.5308 -0.5034  0.4088
    1MOL    H96   96   6.263   5.492   6.391  0.9917  0.9393 -0.7419
    1MOL    H97   97   6.380   5.441   6.180  2.3013 -0.0147 -1.7248
    1MOL    H98   98   6.417   5.600   6.217 -1.7222 -1.7717 -2.0209
    1MOL    H99   99   6.610   5.455   6.144 -2.0543 -1.0176 -0.1511
    1MOL   H100  100   6.645   5.546   6.300 -1.8281  0.6172  2.5792
    1MOL   H101  101   6.604   5.381   6.308 -0.1253 -0.1518  0.6544
    1MOL   C102  102   6.056   5.775   6.619  0.3970 -0.5173 -0.3537
    1MOL   C103  103   5.918   5.705   6.626  0.2325 -0.3300  0.4972
    1MOL   O104  104   5.858   5.752   6.752 -0.5987  0.3721 -0.7773
    1MOL   C105  105   5.802   5.643   6.824  0.1019 -0.2686 -0.4002
    1MOL   C106  106   5.774   5.673   6.974  0.1995 -0.4186  0.4724
    1MOL   C107  107   5.646   5.762   6.989  0.5846 -0.0443 -0.4140
    1MOL   C108  108   5.579   5.728   7.123 -0.3849  0.3713 -0.3415
    1MOL   C109  109   5.452   5.815   7.148  0.3594  0.4420  0.7076
    1MOL   C110  110   5.381   5.779   7.279  0.4566 -0.0535 -0.0168
    1MOL   H111  111   6.044   5.882   6.603 -1.5546 -1.1519 -3.8798
    1MOL   H112  112   6.103   5.730   6.531  0.3524  0.4484 -0.8726
    1MOL   H113  113   5.929   5.597   6.632  1.0582 -0.2557  0.3343
    1MOL   H114  114   5.875   5.563   6.837 -0.4265 -0.6370  0.4091
    1MOL   H115  115   5.715   5.603   6.770  0.0042  0.0974 -0.5134
    1MOL   H116  116   5.860   5.728   7.013  0.1312  1.8267 -2.3424
    1MOL   H117  117   5.752   5.581   7.027 -3.3001 -0.3372 -0.6830
    1MOL   H118  118   5.674   5.867   6.984  0.3921  0.0026 -0.4822
    1MOL   H119  119   5.576   5.748   6.907  1.0182  0.6918 -0.9088
    1MOL   H120  120   5.548   5.624   7.123 -0.0840  0.2803  0.0058
    1MOL   H121  121   5.653   5.741   7.201  0.8710 -2.8169 -0.9401
    1MOL   H122  122   5.474   5.922   7.155  0.6460  0.3201  1.7694
    1MOL   H123  123   5.386   5.806   7.062  2.6290 -2.3812 -0.8034
    1MOL   H124  124   5.435   5.823   7.363  0.7498  1.3639 -0.9313
    1MOL   H125  125   5.281   5.821   7.269 -0.0099 -0.9583  0.6961
    1MOL   H126  126   5.377   5.673   7.303  0.0408  0.0185  0.2305
    1MOL   C127  127   5.831   5.757   6.510 -0.0043  0.7791  0.0076
    1MOL   C128  128   5.711   5.662   6.476  0.4643  0.4629 -0.6110
    1MOL   O129  129   5.765   5.549   6.421  0.3984 -0.1221 -0.1026
    1MOL   C130  130   5.698   5.425   6.414  0.4572  0.1870  0.1423
    1MOL   C131  131   5.701   5.346   6.548 -0.0744 -0.7172 -0.1318
    1MOL   C132  132   5.846   5.307   6.586 -0.0262  0.3153 -0.2003
    1MOL   C133  133   5.852   5.279   6.735 -0.7010 -0.2313 -0.0541
    1MOL   C134  134   5.991   5.267   6.797  0.1153  0.1050  0.3676
    1MOL   C135  135   5.979   5.232   6.946  0.0955 -0.1346 -0.2140
    1MOL   H136  136   5.793   5.856   6.533 -1.6622  0.7221 -2.2331
    1MOL   H137  137   5.893   5.772   6.422 -0.0203 -1.0934 -0.3590
    1MOL   H138  138   5.657   5.637   6.568 -1.4560  0.8629 -1.6091
    1MOL   H139  139   5.740   5.363   6.334 -0.4636  0.5115 -0.5988
    1MOL   H140  140   5.601   5.439   6.367  2.3737  2.7065 -3.2714
    1MOL   H141  141   5.639   5.256   6.545  0.1416 -0.9681  2.0616
    1MOL   H142  142   5.663   5.411   6.627 -0.1803 -0.4930 -0.3685
    1MOL   H143  143   5.891   5.230   6.523 -1.3616  0.5375 -1.4499
    1MOL   H144  144   5.889   5.405   6.566 -1.7904  1.0794 -0.2807
    1MOL   H145  145   5.812   5.369   6.781 -0.5862  0.3848 -1.1304
    1MOL   H146  146   5.784   5.205   6.775  0.7820  0.2056  3.4538
    1MOL   H147  147   6.042   5.189   6.740  0.3870  1.4786 -1.3459
    1MOL   H148  148   6.041   5.363   6.779  2.6312 -0.8979  1.7003
    1MOL   H149  149   5.912   5.149   6.968 -1.2366  0.8712 -0.3810
    1MOL   H150  150   6.075   5.205   6.990 -0.4604 -0.6915  0.6664
    1MOL   H151  151   5.936   5.313   7.005 -0.2707 -0.4398 -0.0598
    1MOL   C152  152   5.615   5.717   6.369 -0.4487 -0.2909 -0.4599
    1MOL   C153  153   5.478   5.752   6.431  0.5266 -0.4016 -0.4682
    1MOL   O154  154   5.493   5.870   6.511 -0.1872  0.1556 -0.4183
    1MOL   C155  155   5.508   5.868   6.651  0.0957 -0.3069 -0.3223
    1MOL   C156  156   5.434   5.990   6.724 -0.2928  0.4898 -0.3517
    1MOL   C157  157   5.283   5.955   6.748  0.4905  0.3339 -0.6571
    1MOL   C158  158   5.197   6.058   6.825  0.1240 -0.4479 -0.2245
    1MOL   C159  159   5.059   6.012   6.866 -0.3972  0.4005 -1.0539
    1MOL   C160  160   5.056   5.902   6.986 -0.3414  0.2243 -0.4399
    1MOL   H161  161   5.661   5.805   6.323 -0.5667  0.7447  1.3373
    1MOL   H162  162   5.606   5.653   6.282 -1.5694 -0.1615 -0.4535
    1MOL   H163  163   5.439   5.668   6.487 -0.9161 -0.0130 -0.8649
    1MOL   H164  164   5.617   5.864   6.652  0.0350 -2.3434  0.8546
    1MOL   H165  165   5.471   5.775   6.693  0.9104 -0.7483 -0.5718
    1MOL   H166  166   5.439   6.083   6.668 -2.4644  0.1374 -1.1670
    1MOL   H167  167   5.497   6.003   6.812  0.4694 -2.1693 -0.4664
    1MOL   H168  168   5.232   5.957   6.651 -0.7740  0.6687  0.0064
    1MOL   H169  169   5.280   5.856   6.792 -0.8437  0.4790 -0.4078
    1MOL   H170  170   5.246   6.079   6.920  0.0970  0.2639 -0.3620
    1MOL   H171  171   5.188   6.152   6.771 -1.4760  0.1361  1.0295
    1MOL   H172  172   5.004   6.098   6.905 -0.0415 -0.2893  1.0417
    1MOL   H173  173   4.996   5.971   6.787 -1.0175  0.2408 -0.4748
    1MOL   H174  174   5.087   5.953   7.078  0.0081  1.3940 -1.1988
    1MOL   H175  175   4.951   5.872   6.989 -0.2464 -0.0167  1.0336
    1MOL   H176  176   5.126   5.819   6.971 -1.1477 -0.7868  1.1610
    1MOL   C177  177   5.386   5.779   6.307 -0.5951  0.6220  0.0845
    1MOL   C178  178   5.234   5.797   6.349  0.7095 -0.0016 -0.4114
    1MOL   O179  179   5.180   5.833   6.224  0.8544 -0.0440  0.0716
    1MOL   C180  180   5.172   5.974   6.203 -0.6344 -0.3360  0.3365
    1MOL   C181  181   5.094   6.003   6.073 -0.1287 -0.4835 -0.5536
    1MOL   C182  182   5.068   6.146   6.054  0.0163 -0.6238  0.1391
    1MOL   C183  183   4.955   6.175   5.955  0.3356  0.3017  0.0711
    1MOL   C184  184   4.936   6.325   5.928  0.4105 -0.4673 -0.2552
    1MOL   C185  185   4.839   6.351   5.809 -0.4013  0.2181 -0.3738
    1MOL   H186  186   5.420   5.875   6.268  0.0669  0.6759  0.7590
    1MOL   H187  187   5.409   5.704   6.232  2.2600 -1.2324  2.6452
    1MOL   H188  188   5.230   5.887   6.411 -0.9319 -0.6629  0.4700
    1MOL   H189  189   5.271   6.017   6.187 -0.2006 -1.7606 -0.8805
    1MOL   H190  190   5.133   6.030   6.289  0.7976  0.8588  0.2283
    1MOL   H191  191   4.998   5.953   6.081  1.1413 -2.6852  1.6417
    1MOL   H192  192   5.146   5.965   5.985  1.8103 -1.0774  0.8175
    1MOL   H193  193   5.039   6.193   6.147 -0.1275 -1.1843  0.3768
    1MOL   H194  194   5.163   6.184   6.015 -0.7711  1.7514  0.4146
    1MOL   H195  195   4.965   6.122   5.860 -2.2319  1.3707 -0.8400
    1MOL   H196  196   4.859   6.141   5.995  0.4364 -0.4353 -0.3013
    1MOL   H197  197   4.895   6.385   6.009 -0.4426 -3.6701  1.7680
    1MOL   H198  198   5.030   6.376   5.906 -0.7324  2.0678  0.5317
    1MOL   H199  199   4.740   6.312   5.833 -0.1758  0.7935  1.5760
    1MOL   H200  200   4.838   6.453   5.772  1.9556  0.1196 -0.7616
    1MOL   H201  201   4.882   6.291   5.729  0.6398  1.2785 -0.6172
    1MOL   C202  202   5.180   5.667   6.400  0.2752 -0.1510  1.0484
    1MOL   C203  203   5.027   5.652   6.410 -0.3356  0.2807 -0.3958
    1MOL   O204  204   4.984   5.770   6.488 -0.2240  0.2033 -0.1579
    1MOL   C205  205   4.870   5.836   6.421  0.5726  0.0034 -0.4006
    1MOL   C206  206   4.812   5.935   6.517  0.8945 -0.1622  0.3436
    1MOL   C207  207   4.737   5.868   6.627 -0.4060 -0.4323  0.1255
    1MOL   C208  208   4.657   5.964   6.712 -0.3232 -0.0892 -0.1191
    1MOL   C209  209   4.610   5.880   6.833  0.3579  0.0523 -0.5363
    1MOL   C210  210   4.507   5.950   6.921 -0.6449 -0.0061 -0.5652
    1MOL   H211  211   5.222   5.577   6.354 -0.8259 -1.2120  2.0680
    1MOL   H212  212   5.217   5.658   6.502  1.2505 -1.9529  0.5582
    1MOL   H213  213   4.993   5.644   6.307 -0.1835  1.2959 -0.5233
    1MOL   H214  214   4.794   5.765   6.388 -0.9346  0.6845  1.4963
    1MOL   H215  215   4.896   5.894   6.332  1.2781 -0.4675 -0.5089
    1MOL   H216  216   4.749   6.008   6.465  2.6345  1.1615  0.0307
    1MOL   H217  217   4.896   5.995   6.554  1.5608  0.3658 -1.9802
    1MOL   H218  218   4.671   5.794   6.581  0.2352  0.4756 -2.3429
    1MOL   H219  219   4.805   5.802   6.680  0.6832  0.3369 -0.3007
    1MOL   H220  220   4.717   6.050   6.740  0.4813 -0.3173 -1.1081
    1MOL   H221  221   4.568   6.000   6.661 -2.0264 -0.2823  2.6361
    1MOL   H222  222   4.549   5.792   6.811 -0.0668  0.4550 -0.9791
    1MOL   H223  223   4.690   5.838   6.893 -0.0133 -1.7167 -1.2421
    1MOL   H224  224   4.546   6.039   6.969  0.3059 -0.8008  0.1345
    1MOL   H225  225   4.416   5.984   6.870 -0.5586 -0.4152 -1.0008
    1MOL   H226  226   4.475   5.885   7.002 -1.1989  0.8863 -0.0528
    1MOL   C227  227   4.985   5.521   6.480  0.0006  0.5577 -0.8241
    1MOL   C228  228   4.977   5.395   6.391  0.1397 -0.3666 -0.2267
    1MOL   O229  229   5.108   5.371   6.332 -0.0913  0.1921 -0.7031
    1MOL   C230  230   5.106   5.385   6.196 -0.0363 -0.7948 -0.0479
    1MOL   C231  231   5.243   5.360   6.139  0.1180 -0.6258 -0.0982
    1MOL   C232  232   5.290   5.221   6.177 -0.9414 -0.1286 -0.1607
    1MOL   C233  233   5.429   5.195   6.116  0.1025  0.1609  0.3485
    1MOL   C234  234   5.491   5.068   6.166 -1.1210  0.8121 -0.0657
    1MOL   C235  235   5.628   5.047   6.095 -0.1218 -0.5855 -0.7251
    1MOL   H236  236   5.047   5.499   6.567  0.0600  0.3043 -0.9321
    1MOL   H237  237   4.882   5.541   6.509 -0.0938 -3.0239  1.6400
    1MOL   H238  238   4.903   5.418   6.314  0.3973  3.0465  0.4769
    1MOL   H239  239   5.065   5.483   6.171 -1.2912 -2.0265 -2.9975
    1MOL   H240  240   5.034   5.316   6.152  0.4334  0.1861 -2.4461
    1MOL   H241  241   5.309   5.432   6.187 -2.2351  0.6083  1.3713
    1MOL   H242  242   5.237   5.369   6.031  2.1865 -0.7729 -0.2559
    1MOL   H243  243   5.296   5.230   6.286 -0.9592 -2.0455  0.0128
    1MOL   H244  244   5.217   5.140   6.169  0.2135 -1.5529  2.9315
    1MOL   H245  245   5.418   5.188   6.008 -2.9715  1.8375  0.5035
    1MOL   H246  246   5.504   5.273   6.130 -1.2979  1.5395  0.3026
    1MOL   H247  247   5.506   5.075   6.274  1.2993 -1.9564 -0.1502
    1MOL   H248  248   5.422   4.984   6.155 -0.2449  0.0500  0.1848
    1MOL   H249  249   5.708   5.095   6.151  1.0706 -0.3646 -2.5727
    1MOL   H250  250   5.643   4.941   6.078 -0.2561 -0.9903  1.5846
    1MOL   H251  251   5.631   5.103   6.001  0.0048  0.0237 -0.3640
    1MOL   C252  252   4.926   5.272   6.469  0.9495  0.9553  0.4010
    1MOL   C253  253   4.921   5.145   6.373 -0.5688  0.4683  0.6345
    1MOL   O254  254   4.820   5.172   6.285  0.1178  0.1673 -0.2160
    1MOL   C255  255   4.812   5.095   6.161  0.1880  0.9624  0.4387
    1MOL   C256  256   4.675   5.121   6.096 -0.3103 -0.1183 -0.5060
    1MOL   C257  257   4.645   5.072   5.958  0.4384 -0.2092 -0.5187
    1MOL   C258  258   4.654   4.918   5.939  0.5850 -0.6897 -0.0282
    1MOL   C259  259   4.608   4.881   5.796 -0.5006  0.6264  0.4666
    1MOL   C260  260   4.614   4.733   5.752 -0.2330 -0.3501 -0.8318
    1MOL   H261  261   4.991   5.264   6.556 -0.3472  2.9405  1.6051
    1MOL   H262  262   4.829   5.284   6.516  1.1084  1.3177  0.6402
    1MOL   H263  263   5.019   5.140   6.325 -0.6288  0.1540  0.5431
    1MOL   H264  264   4.825   4.987   6.176 -2.0716  0.7755  1.2766
    1MOL   H265  265   4.888   5.120   6.088  2.9434  0.2160  2.9451
    1MOL   H266  266   4.658   5.228   6.112  1.5320  0.2868 -1.1327
    1MOL   H267  267   4.605   5.083   6.170 -0.1738 -0.8445 -0.7524
    1MOL   H268  268   4.545   5.106   5.928 -0.2972 -0.2723  1.7591
    1MOL   H269  269   4.705   5.122   5.883 -0.6065 -0.7156 -1.7078
    1MOL   H270  270   4.755   4.884   5.960  0.8396 -0.9105 -1.5365
    1MOL   H271  271   4.587   4.874   6.013  2.8035 -1.7202  1.4057
    1MOL   H272  272   4.500   4.892   5.785 -0.3901 -0.6779 -2.1917
    1MOL   H273  273   4.659   4.934   5.715 -1.9385  0.3995 -0.5984
    1MOL   H274  274   4.537   4.665   5.788 -0.3679 -0.4137 -1.2339
    1MOL   H275  275   4.604   4.715   5.645 -2.0659 -1.0845 -0.5588
    1MOL   H276  276   4.703   4.686   5.793 -1.0149 -0.7820  0.4244
    1MOL   C277  277   4.880   5.020   6.457  0.0700  0.0946 -0.0929
    1MOL   C278  278   4.990   4.965   6.551  0.1935 -0.5733  0.8407
    1MOL   O279  279   4.924   4.861   6.623  0.0547 -0.3930 -0.6324
    1MOL   C280  280   4.888   4.893   6.758 -0.5092  0.7794  0.3262
    1MOL   C281  281   4.792   4.777   6.796 -0.1631 -0.7932  0.4775
    1MOL   C282  282   4.729   4.775   6.929 -0.0756  0.4167 -0.0624
    1MOL   C283  283   4.825   4.734   7.041  0.0803  0.1125  0.5235
    1MOL   C284  284   4.749   4.735   7.176  0.2102  0.2080 -0.0047
    1MOL   C285  285   4.840   4.737   7.298  0.9549  1.0373 -0.1126
    1MOL   H286  286   4.793   5.046   6.518 -1.3256 -1.3991 -1.4217
    1MOL   H287  287   4.844   4.937   6.397 -1.0482  0.7234 -0.3059
    1MOL   H288  288   5.022   5.028   6.635  0.4804 -1.4813  1.4312
    1MOL   H289  289   4.836   4.988   6.773 -0.2172  0.9662  0.1566
    1MOL   H290  290   4.980   4.885   6.816  0.0257  0.1099 -0.6062
    1MOL   H291  291   4.848   4.685   6.784  0.1273 -0.5185 -0.2927
    1MOL   H292  292   4.710   4.780   6.724  0.0476 -0.5593  0.2462
    1MOL   H293  293   4.656   4.851   6.956  0.0690  0.2183  0.9258
    1MOL   H294  294   4.656   4.694   6.934 -2.3322  2.4870  1.6182
    1MOL   H295  295   4.873   4.640   7.017 -0.5734 -0.0467 -0.1986
    1MOL   H296  296   4.910   4.801   7.053 -0.0901  0.6194 -1.0460
    1MOL   H297  297   4.674   4.814   7.175  1.6072  1.5577  0.2663
    1MOL   H298  298   4.678   4.653   7.183  1.6126 -1.0714 -0.5539
    1MOL   H299  299   4.774   4.724   7.384 -1.3816  0.0967 -1.9909
    1MOL   H300  300   4.917   4.660   7.300  1.1986  1.3053  2.7802
    1MOL   H301  301   4.876   4.838   7.321 -0.9669  2.1474 -1.8023
    1MOL   C302  302   5.115   4.913   6.473 -0.3076  0.1810 -0.0521
    1MOL   C303  303   5.238   4.878   6.573  0.0288 -0.3102 -0.4113
    1MOL   O304  304   5.266   4.993   6.645  0.8836 -0.5480 -0.4661
    1MOL   C305  305   5.290   4.981   6.783  0.2559 -0.0247 -0.4254
    1MOL   C306  306   5.388   5.100   6.809  0.5479  0.5782 -0.2157
    1MOL   C307  307   5.317   5.238   6.797  0.0803  0.1870 -0.2266
    1MOL   C308  308   5.418   5.351   6.816  0.7722  0.2526  0.0573
    1MOL   C309  309   5.366   5.471   6.738 -0.3205  0.2565 -0.5397
    1MOL   C310  310   5.243   5.549   6.784 -0.0312 -0.0074  0.0406
    1MOL   H311  311   5.080   4.821   6.427 -1.0196 -1.2782  3.2681
    1MOL   H312  312   5.151   4.987   6.402 -0.1031 -0.7097 -0.8820
    1MOL   H313  313   5.212   4.801   6.645  1.2289 -0.6432 -0.3337
    1MOL   H314  314   5.344   4.897   6.826  1.0589  0.8938  0.4053
    1MOL   H315  315   5.200   4.997   6.843  2.2927  3.7392  1.8293
    1MOL   H316  316   5.479   5.096   6.750 -0.8202 -1.8176 -2.2886
    1MOL   H317  317   5.412   5.082   6.914 -0.4003  0.3083 -0.0422
    1MOL   H318  318   5.273   5.249   6.698  1.5209  0.8314 -0.7916
    1MOL   H319  319   5.237   5.246   6.871  1.0976  1.4117  0.7650
    1MOL   H320  320   5.418   5.374   6.922  0.8416 -0.7140  0.2784
    1MOL   H321  321   5.526   5.338   6.800  1.2926  2.8857  1.2069
    1MOL   H322  322   5.452   5.537   6.734 -0.6597  0.8677  1.7851
    1MOL   H323  323   5.345   5.433   6.638  1.6385 -1.0603 -0.4723
    1MOL   H324  324   5.224   5.635   6.720 -0.2454  0.7018  1.0413
    1MOL   H325  325   5.153   5.488   6.791  0.4824 -0.6687  0.9425
    1MOL   H326  326   5.258   5.601   6.878  0.1378  1.8028 -0.9693
    1MOL   C327  327   5.364   4.838   6.494 -0.1367 -0.0494 -0.0965
    1MOL   C328  328   5.377   4.687   6.457  0.0492 -0.3088 -0.4156
    1MOL   O329  329   5.255   4.657   6.391  0.5776 -0.7177 -0.1281
    1MOL   C330  330   5.177   4.554   6.453  0.4997 -0.2806  0.0820
    1MOL   C331  331   5.031   4.539   6.407  0.5586  0.3819  1.0853
    1MOL   C332  332   4.990   4.598   6.270 -0.4851 -0.2232 -0.2860
    1MOL   C333  333   4.853   4.549   6.210 -0.2356 -0.0996 -0.5604
    1MOL   C334  334   4.733   4.626   6.266 -0.3759 -0.2909  0.8848
    1MOL   C335  335   4.594   4.589   6.195 -0.4023  0.0556  0.4850
    1MOL   H336  336   5.452   4.862   6.554  0.2536 -0.5870 -0.4489
    1MOL   H337  337   5.370   4.889   6.398 -1.5565  0.8289  0.2637
    1MOL   H338  338   5.392   4.624   6.545 -1.5084 -1.7012 -1.1153
    1MOL   H339  339   5.178   4.564   6.562 -0.9711  0.9655  0.0006
    1MOL   H340  340   5.235   4.466   6.427  1.6523  0.4064  0.2682
    1MOL   H341  341   4.977   4.610   6.470 -0.3367  2.2326 -1.6924
    1MOL   H342  342   4.999   4.435   6.409 -1.0762  0.8846  1.6144
    1MOL   H343  343   4.996   4.706   6.260 -1.7958 -0.1654 -0.4829
    1MOL   H344  344   5.062   4.569   6.193 -2.3115  0.6544 -2.4004
    1MOL   H345  345   4.868   4.571   6.105  1.1501  0.5895 -0.2305
    1MOL   H346  346   4.839   4.441   6.214 -0.9392 -0.0130 -0.5055
    1MOL   H347  347   4.713   4.596   6.369 -1.6052  1.5311  1.2006
    1MOL   H348  348   4.745   4.735   6.265  1.5103 -0.4684  1.2554
    1MOL   H349  349   4.560   4.485   6.191 -1.5209  0.4469 -0.4322
    1MOL   H350  350   4.512   4.647   6.237 -1.6815 -0.6058 -1.0239
    1MOL   H351  351   4.603   4.629   6.094  1.5831  1.6192  1.2417
    1MOL   C352  352   5.495   4.661   6.361 -0.2806  0.8099  0.1199
    1MOL   C353  353   5.564   4.519   6.369  0.2178 -0.7850 -0.3514
    1MOL   O354  354   5.606   4.509   6.503 -0.1415 -0.7809 -0.4098
    1MOL   C355  355   5.621   4.380   6.558 -0.3102  0.1805 -0.1257
    1MOL   C356  356   5.661   4.394   6.707 -0.1248 -0.5474  0.1322
    1MOL   C357  357   5.810   4.440   6.730  1.0166  0.4508 -0.3054
    1MOL   C358  358   5.864   4.430   6.871 -0.3072 -0.9898  0.0066
    1MOL   C359  359   6.022   4.426   6.878 -0.0904  0.0280  0.2151
    1MOL   C360  360   6.070   4.397   7.022 -0.6497  0.0185  0.2167
    1MOL   H361  361   5.467   4.680   6.257  0.0955 -2.9514 -0.7223
    1MOL   H362  362   5.569   4.732   6.396 -1.3975  1.6141  0.8868
    1MOL   H363  363   5.505   4.432   6.343 -0.2243 -0.1995 -1.3435
    1MOL   H364  364   5.699   4.323   6.507 -1.5813 -0.7298 -1.0571
    1MOL   H365  365   5.524   4.333   6.548  0.3964 -1.7005  1.5450
    1MOL   H366  366   5.661   4.297   6.756 -2.5723  0.2810  1.8678
    1MOL   H367  367   5.596   4.462   6.762 -0.9920 -0.5570 -0.8770
    1MOL   H368  368   5.862   4.362   6.675  1.3329 -0.9550  1.9091
    1MOL   H369  369   5.822   4.533   6.675 -1.3037  1.1720  0.3499
    1MOL   H370  370   5.839   4.509   6.941 -0.2201 -0.1682 -0.8827
    1MOL   H371  371   5.830   4.335   6.913 -0.2268 -0.4672  1.2855
    1MOL   H372  372   6.061   4.348   6.813  1.3063  0.9834 -0.1320
    1MOL   H373  373   6.072   4.519   6.850 -0.6507  0.5804  0.9886
    1MOL   H374  374   6.178   4.381   7.023 -0.4927  1.1023  0.7398
    1MOL   H375  375   6.046   4.471   7.098  0.3799 -1.6570  2.2353
    1MOL   H376  376   6.038   4.301   7.065 -0.7121  0.2812  0.7560
    1MOL   C377  377   5.691   4.513   6.285  0.1391 -0.1394 -0.0157
    1MOL   C378  378   5.666   4.512   6.128 -0.4047  1.1524 -0.3060
    1MOL   O379  379   5.785   4.449   6.089  0.2855  0.1357 -0.5043
    1MOL   C380  380   5.790   4.302   6.086  0.0319 -0.4725  0.1480
    1MOL   C381  381   5.913   4.269   6.010  0.1419  0.2431  1.0089
    1MOL   C382  382   5.920   4.340   5.870 -0.5346 -0.8558 -0.2491
    1MOL   C383  383   6.045   4.316   5.793 -0.0586  0.0401 -0.2478
    1MOL   C384  384   6.027   4.370   5.653 -0.6089 -0.6332  0.3386
    1MOL   C385  385   6.165   4.356   5.581 -0.1350 -0.1009 -0.1030
    1MOL   H386  386   5.750   4.601   6.312  1.2421  0.0519 -2.8930
    1MOL   H387  387   5.754   4.427   6.308 -1.1460 -0.9835  0.4336
    1MOL   H388  388   5.579   4.450   6.108  0.2852 -0.0479  0.3892
    1MOL   H389  389   5.712   4.258   6.023  0.0329 -0.1784 -0.0582
    1MOL   H390  390   5.786   4.250   6.182 -2.2471  0.0937  0.3897
    1MOL   H391  391   5.935   4.163   6.000  0.3484  0.2338  1.5540
    1MOL   H392  392   5.994   4.306   6.073 -0.0053 -1.7559  2.3933
    1MOL   H393  393   5.838   4.306   5.808 -0.7884 -0.3192 -0.2115
    1MOL   H394  394   5.909   4.449   5.874  1.0880 -0.6643 -0.7001
    1MOL   H395  395   6.122   4.373   5.845 -1.1208  0.2599  1.1317
    1MOL   H396  396   6.093   4.218   5.795  0.5828  0.3772  2.3620
    1MOL   H397  397   5.958   4.317   5.588 -0.2182 -0.5028 -0.1963
    1MOL   H398  398   5.994   4.474   5.661  0.6994 -0.0681 -1.2840
    1MOL   H399  399   6.165   4.399   5.481 -2.2320 -0.6690 -0.3878
    1MOL   H400  400   6.243   4.389   5.650  0.3030 -0.1809 -0.5586
    1MOL   H401  401   6.191   4.251   5.570 -0.8347 -0.0603 -2.3128
    1MOL   C402  402   5.668   4.646   6.046 -0.6606 -0.3694  0.2153
    1MOL   C403  403   5.630   4.624   5.895 -0.3620  0.5745  0.0696
    1MOL   O404  404   5.660   4.747   5.839  0.3457  0.6320  0.1357
    1MOL   C405  405   5.768   4.757   5.747 -0.3536 -0.8123  0.5668
    1MOL   C406  406   5.788   4.911   5.725 -0.9576  0.3658 -0.7136
    1MOL   C407  407   5.928   4.936   5.650 -0.2388 -0.5148  0.5027
    1MOL   C408  408   5.965   5.087   5.655  0.1642 -0.2445 -1.6969
    1MOL   C409  409   6.070   5.128   5.542 -0.2004  0.0217 -0.3955
    1MOL   C410  410   6.005   5.128   5.406 -0.7340 -0.0940 -0.2972
    1MOL   H411  411   5.759   4.706   6.049 -0.7492 -0.1323 -1.4228
    1MOL   H412  412   5.597   4.724   6.075 -0.0600  0.5411 -0.7137
    1MOL   H413  413   5.686   4.541   5.852  0.2998  2.0526 -1.9632
    1MOL   H414  414   5.733   4.700   5.661 -1.6352  1.5959 -0.5360
    1MOL   H415  415   5.856   4.715   5.796  1.5346  1.2789 -0.9106
    1MOL   H416  416   5.803   4.945   5.828 -1.3448 -1.7103  0.0435
    1MOL   H417  417   5.703   4.962   5.679 -1.0473  1.0106  0.1622
    1MOL   H418  418   6.004   4.877   5.702 -0.5138 -0.2060  1.2729
    1MOL   H419  419   5.923   4.904   5.546 -0.9033  3.3492 -0.7605
    1MOL   H420  420   5.875   5.146   5.641 -0.1732 -0.3377  0.0133
    1MOL   H421  421   6.007   5.113   5.752  3.3839 -0.7147 -2.8880
    1MOL   H422  422   6.122   5.221   5.563  1.2785 -1.1741  1.2904
    1MOL   H423  423   6.159   5.065   5.539  0.7769  1.3438  0.6949
    1MOL   H424  424   5.962   5.034   5.372 -0.6378 -0.6457  1.0611
    1MOL   H425  425   5.923   5.200   5.403  0.0186  0.7390 -0.9873
    1MOL   H426  426   6.075   5.164   5.332  2.7710 -2.0407  1.9136
    1MOL   C427  427   5.475   4.606   5.877  0.2644  0.4774 -0.2421
    1MOL   C428  428   5.433   4.473   5.830  0.2083  0.5767 -0.4316
    1MOL   O429  429   5.303   4.440   5.878  0.5636 -0.6301  0.2433
    1MOL   C430  430   5.286   4.359   5.997  0.5883 -0.1026 -0.2598
    1MOL   C431  431   5.146   4.291   5.992  0.8404  0.3932 -0.9312
    1MOL   C432  432   5.105   4.235   6.133 -0.8391  0.1206  0.1319
    1MOL   C433  433   4.966   4.176   6.134  0.5204  0.3516  0.5034
    1MOL   C434  434   4.929   4.136   6.279  0.0239 -0.0002 -0.1012
    1MOL   C435  435   4.779   4.097   6.280 -0.3307 -0.5407  0.4294
    1MOL   H436  436   5.429   4.613   5.975 -1.0207  1.0275 -0.8757
    1MOL   H437  437   5.429   4.685   5.819 -2.9495 -1.1028  0.0288
    1MOL   H438  438   5.497   4.396   5.875 -0.6722 -0.0406 -0.2329
    1MOL   H439  439   5.301   4.432   6.076 -1.2196 -0.7887  0.7548
    1MOL   H440  440   5.363   4.282   6.004  1.1253  0.4493 -0.0554
    1MOL   H441  441   5.145   4.202   5.929 -4.3018 -0.4721  0.1776
    1MOL   H442  442   5.070   4.352   5.945  0.1620  0.5259  0.3275
    1MOL   H443  443   5.183   4.172   6.175 -1.1140  0.2322  0.8148
    1MOL   H444  444   5.110   4.324   6.197  4.3162  0.3149 -0.3047
    1MOL   H445  445   4.889   4.241   6.092 -0.3235 -1.0564 -0.1540
    1MOL   H446  446   4.956   4.083   6.078  3.5555  0.6978 -0.7372
    1MOL   H447  447   4.985   4.047   6.309 -2.6119 -1.0231  1.9433
    1MOL   H448  448   4.948   4.220   6.345  1.9818 -0.5667  0.0980
    1MOL   H449  449   4.761   4.058   6.380  2.4007  2.2416  2.1044
    1MOL   H450  450   4.717   4.187   6.275  0.6788  0.3010  2.3161
    1MOL   H451  451   4.763   4.025   6.200  1.4825  1.3938 -1.7531
    1MOL   C452  452   5.440   4.458   5.671 -0.6754  0.1747 -0.1079
    1MOL   C453  453   5.469   4.321   5.609  0.2458 -0.4375 -0.0455
    1MOL   O454  454   5.356   4.231   5.630 -0.1278  0.4840 -0.2232
    1MOL   C455  455   5.274   4.215   5.514  0.6703 -0.0806  0.3026
    1MOL   C456  456   5.149   4.142   5.560  0.0759  0.9063  0.5403
    1MOL   C457  457   5.058   4.227   5.650 -0.0479  0.3430 -0.2324
    1MOL   C458  458   4.955   4.138   5.715 -0.5484 -0.1971 -0.3702
    1MOL   C459  459   4.834   4.214   5.761 -0.3261 -0.2635  0.7636
    1MOL   C460  460   4.723   4.117   5.813 -0.3114 -0.8673  0.0707
    1MOL   H461  461   5.348   4.495   5.624 -0.3771 -0.0030 -0.8439
    1MOL   H462  462   5.517   4.527   5.635 -0.2703 -0.0647  0.3074
    1MOL   H463  463   5.480   4.342   5.503 -2.0354  2.4650  0.2157
    1MOL   H464  464   5.322   4.163   5.431 -0.8872  0.0552 -0.7048
    1MOL   H465  465   5.245   4.315   5.479  0.0662 -0.1646  0.5668
    1MOL   H466  466   5.189   4.054   5.611  0.8793  0.4199 -0.8952
    1MOL   H467  467   5.093   4.111   5.472 -0.4918 -0.1978  1.2775
    1MOL   H468  468   5.111   4.289   5.722  1.8436  0.2674 -1.5319
    1MOL   H469  469   5.007   4.302   5.589  0.6665  0.2544 -0.9430
    1MOL   H470  470   4.917   4.066   5.642  0.6151 -0.9909 -0.2119
    1MOL   H471  471   4.998   4.090   5.802  0.4031  2.7451  0.8323
    1MOL   H472  472   4.867   4.273   5.846  0.8492 -1.5652  1.2311
    1MOL   H473  473   4.789   4.275   5.683  1.5325  0.9225  0.5910
    1MOL   H474  474   4.668   4.089   5.724  0.9054 -1.0734 -0.6282
    1MOL   H475  475   4.758   4.029   5.868  1.2696  0.7379  1.7459
    1MOL   H476  476   4.648   4.159   5.881  1.1123  1.8517  0.0220
    1MOL   C477  477   5.605   4.267   5.664 -0.4573 -0.2962 -0.2224
    1MOL   C478  478   5.648   4.139   5.588  1.0665  0.0864  0.5366
    1MOL   O479  479   5.777   4.103   5.627 -0.5357  0.3447  0.0091
    1MOL   C480  480   5.820   3.977   5.588 -0.1604 -0.0183  0.4435
    1MOL   C481  481   5.972   3.950   5.597 -0.3809  0.0998 -0.0181
    1MOL   C482  482   6.020   3.817   5.546  0.5950  0.4503  0.1696
    1MOL   C483  483   6.174   3.802   5.567  0.1332 -0.1912  0.1776
    1MOL   C484  484   6.222   3.666   5.513  0.0420 -0.2940  0.8886
    1MOL   C485  485   6.364   3.634   5.556 -0.6144  0.5304 -0.1580
    1MOL   H486  486   5.684   4.341   5.652  0.6125 -1.2488  0.7983
    1MOL   H487  487   5.589   4.235   5.768 -0.5461 -3.6182 -1.1982
    1MOL   H488  488   5.571   4.069   5.621 -0.0925  0.5780 -1.0515
    1MOL   H489  489   5.799   3.960   5.482  1.2589 -0.3568  0.2100
    1MOL   H490  490   5.774   3.899   5.649 -2.3380  1.9968  1.4280
    1MOL   H491  491   6.010   3.961   5.699  0.7843 -0.4485 -0.3788
    1MOL   H492  492   6.028   4.026   5.544  1.4270  0.1010  1.8322
    1MOL   H493  493   5.957   3.741   5.593 -0.6725  1.0166 -0.6034
    1MOL   H494  494   5.994   3.818   5.440  2.9911  1.4800 -0.4380
    1MOL   H495  495   6.233   3.884   5.525  1.9200 -0.7788  1.4513
    1MOL   H496  496   6.200   3.811   5.673 -0.1182  0.6172  0.1725
    1MOL   H497  497   6.152   3.590   5.549 -1.4505  1.4898  1.8085
    1MOL   H498  498   6.221   3.658   5.404 -0.1735 -1.1391  0.9504
    1MOL   H499  499   6.406   3.542   5.515 -0.7150  0.0653  0.7669
    1MOL   H500  500   6.420   3.723   5.527 -0.1284 -0.4552 -2.3962
    1MOL   H501  501   6.377   3.623   5.664 -1.1991 -0.7242 -0.2052
    1MOL   H502  502   5.647   4.153   5.480 -0.7522 -0.3203  0.4866
    2MOL     C1  503   2.920   6.229   7.673  0.5061 -0.4517  0.5052
    2MOL     C2  504   2.851   6.180   7.543  0.3725  0.0425 -0.2586
    2MOL     O3  505   2.718   6.198   7.580  0.7071  0.8233  0.0327
    2MOL     C4  506   2.665   6.330   7.550 -0.1707  0.0550  0.3683
    2MOL     C5  507   2.550   6.353   7.641  0.2174 -0.0092  0.4790
    2MOL     C6  508   2.464   6.476   7.618  0.5255 -0.8832  0.0362
    2MOL     C7  509   2.396   6.474   7.477 -0.1669 -0.5306  0.5525
    2MOL     C8  510   2.305   6.589   7.461  0.3211 -0.3392  0.0352
    2MOL     C9  511   2.375   6.727   7.456  0.0733 -0.4010 -0.2214
    2MOL    H10  512   2.896   6.326   7.715  0.6074  0.1894 -0.8917
    2MOL    H11  513   2.922   6.155   7.753  4.2569  0.6360  1.5108
    2MOL    H12  514   2.895   6.234   7.458  0.9011  0.2491  0.1420
    2MOL    H13  515   2.643   6.317   7.444  2.1927 -1.0789 -0.0236
    2MOL    H14  516   2.735   6.412   7.569 -3.0330  2.1891  2.1292
    2MOL    H15  517   2.573   6.342   7.747  0.4614 -0.8835  0.3358
    2MOL    H16  518   2.485   6.267   7.630  1.2339 -0.6811 -0.3433
    2MOL    H17  519   2.391   6.491   7.698 -1.3671  0.4086 -1.8841
    2MOL    H18  520   2.521   6.568   7.634 -1.8048  0.7795 -0.9144
    2MOL    H19  521   2.472   6.466   7.399  1.8877  3.0451  2.0832
    2MOL    H20  522   2.344   6.379   7.465 -0.7232 -0.3795  1.6955
    2MOL    H21  523   2.234   6.592   7.543 -0.0280  1.6114 -0.3017
    2MOL    H22  524   2.237   6.565   7.379  1.0970 -0.1026 -0.6870
    2MOL    H23  525   2.329   6.814   7.503  1.3643  1.0886 -1.6183
    2MOL    H24  526   2.474   6.728   7.501  0.4636  0.4366 -1.0780
    2MOL    H25  527   2.391   6.757   7.352 -0.1285  0.7120  0.0616
    2MOL    H26  528   3.025   6.240   7.646  0.6314  1.5547  1.7911
    2MOL    C27  529   2.864   6.031   7.515 -0.3462 -0.4737  0.7076
    2MOL    C28  530   3.012   5.989   7.477 -0.2482 -0.3266  0.1998
    2MOL    O29  531   3.060   5.883   7.551 -0.1523 -0.6825  0.2951
    2MOL    C30  532   3.113   5.914   7.687  0.3967 -0.0912  0.2158
    2MOL    C31  533   3.084   5.790   7.767 -0.5305 -0.6986  0.4294
    2MOL    C32  534   3.123   5.806   0.143  0.4930  1.1142 -1.0906
    2MOL    C33  535   3.076   5.682   0.225  0.0751  0.1865  0.3221
    2MOL    C34  536   3.135   5.681   0.365  0.1002  0.1755 -0.5673
    2MOL    C35  537   3.071   5.568   0.443  0.0414 -0.4139 -0.2912
    2MOL    H36  538   2.837   5.974   7.604 -3.6647  2.4412  1.7237
    2MOL    H37  539   2.801   5.993   7.435  1.4073 -0.9796 -0.4604
    2MOL    H38  540   3.078   6.072   7.502 -0.4088 -0.2719  0.4435
    2MOL    H39  541   3.064   6.004   7.724  0.0008 -0.1364 -0.1813
    2MOL    H40  542   3.217   5.946   7.681 -0.0359  1.7634  2.4501
    2MOL    H41  543   3.141   5.707   7.724  0.7009 -0.2703  1.1903
    2MOL    H42  544   2.983   5.752   7.756 -0.2316 -0.8858 -1.8622
    2MOL    H43  545   3.227   5.831   0.164  0.5763 -0.5933  0.7423
    2MOL    H44  546   3.055   5.881   0.186 -0.3882 -0.9615  1.2812
    2MOL    H45  547   2.967   5.673   0.231  0.2385 -2.5078 -0.2288
    2MOL    H46  548   3.102   5.596   0.165  0.5972  2.1915 -2.4454
    2MOL    H47  549   3.244   5.683   0.375 -0.0646  0.5876  1.2382
    2MOL    H48  550   3.105   5.769   0.422 -2.9744 -2.6933  2.4487
    2MOL    H49  551   3.110   5.473   0.408 -1.1228 -0.6681 -0.9313
    2MOL    H50  552   3.119   5.585   0.539  0.3559  0.2128 -0.5585
    2MOL    H51  553   2.963   5.570   0.460  0.4460  0.8672  2.4578
    2MOL    C52  554   3.022   5.952   7.328 -0.2180 -0.6364 -0.1153
    2MOL    C53  555   3.001   6.062   7.226 -0.3842  0.2448 -0.1699
    2MOL    O54  556   3.088   6.175   7.262 -0.0114 -0.2651  0.4993
    2MOL    C55  557   3.227   6.139   7.258 -0.4353  0.0855 -0.1443
    2MOL    C56  558   3.307   6.268   7.239 -0.1917 -0.5661 -0.0620
    2MOL    C57  559   3.274   6.343   7.104 -0.1585 -0.1022  0.2853
    2MOL    C58  560   3.370   6.449   7.068  0.4408  0.2729  0.4094
    2MOL    C59  561   3.302   6.559   6.982 -0.0212  1.0197 -0.1785
    2MOL    C60  562   3.263   6.506   6.847 -0.1332 -0.2325  0.3210
    2MOL    H61  563   2.955   5.868   7.313  1.3379 -1.9065 -0.0725
    2MOL    H62  564   3.126   5.920   7.315  0.9571  2.1995  1.8354
    2MOL    H63  565   2.898   6.086   7.255  0.0080  2.3548 -0.4630
    2MOL    H64  566   3.235   6.066   7.177 -4.0534 -0.4833 -0.0591
    2MOL    H65  567   3.254   6.087   7.349  0.0495  2.1537  0.9192
    2MOL    H66  568   3.411   6.237   7.238 -0.1678 -0.4928  0.1919
    2MOL    H67  569   3.280   6.326   7.327  1.8134 -0.2932  0.3860
    2MOL    H68  570   3.273   6.271   7.022 -1.1525 -1.2218  1.2620
    2MOL    H69  571   3.176   6.391   7.109 -0.0062  0.2363  0.0556
    2MOL    H70  572   3.406   6.502   7.157  0.6800  1.0597 -0.1485
    2MOL    H71  573   3.465   6.419   7.024  0.2964  1.5632 -0.8142
    2MOL    H72  574   3.212   6.603   7.026 -0.3452  0.4758 -0.2972
    2MOL    H73  575   3.372   6.642   6.973 -0.8042  1.5312 -1.5774
    2MOL    H74  576   3.205   6.582   6.796 -1.0016 -0.4652  0.9486
    2MOL    H75  577   3.351   6.481   6.789  1.8189 -0.2869  3.1982
    2MOL    H76  578   3.191   6.423   6.852 -0.0556 -0.4177 -1.3848
    2MOL    C77  579   2.987   6.027   7.079  0.6834 -0.2645  0.2275
    2MOL    C78  580   2.969   6.144   6.977 -0.1280  0.4992  0.1043
    2MOL    O79  581   2.837   6.188   7.014 -0.1404 -0.0970 -0.7493
    2MOL    C80  582   2.815   6.328   7.000 -0.2751 -0.1942 -0.0255
    2MOL    C81  583   2.668   6.351   7.008 -0.3173 -0.2304  0.5735
    2MOL    C82  584   2.636   6.503   7.045 -0.0066 -0.8528 -0.1260
    2MOL    C83  585   2.485   6.534   7.043  0.0506  0.0642 -0.1436
    2MOL    C84  586   2.407   6.513   6.914 -0.0374  0.1015 -0.0680
    2MOL    C85  587   2.250   6.511   6.924  0.3347  0.3937 -0.1234
    2MOL    H86  588   2.901   5.962   7.072  0.9240 -0.3792 -2.0582
    2MOL    H87  589   3.084   5.989   7.046  0.7932  1.1081 -1.1099
    2MOL    H88  590   3.050   6.213   6.997  0.5921  0.2373 -1.8280
    2MOL    H89  591   2.864   6.369   6.912  0.2460  0.1458  0.4239
    2MOL    H90  592   2.866   6.375   7.083  1.0565  1.3699 -1.6854
    2MOL    H91  593   2.626   6.279   7.078  1.6615 -0.8040  1.2055
    2MOL    H92  594   2.629   6.323   6.910 -1.6806  0.1380  0.9951
    2MOL    H93  595   2.675   6.535   7.142 -1.2021 -1.6006  0.6135
    2MOL    H94  596   2.690   6.555   6.966 -1.8825  0.2473 -0.7262
    2MOL    H95  597   2.448   6.469   7.122 -1.3757 -1.2335 -1.8537
    2MOL    H96  598   2.477   6.636   7.078  0.3686 -0.0142  0.1675
    2MOL    H97  599   2.440   6.583   6.837  1.3076 -2.6709 -2.1094
    2MOL    H98  600   2.435   6.414   6.878 -0.7870  0.4237 -1.6021
    2MOL    H99  601   2.225   6.605   6.973 -1.7836 -1.7771  3.2244
    2MOL   H100  602   2.197   6.500   6.829 -0.3926 -2.2457  0.5453
    2MOL   H101  603   2.220   6.424   6.983 -1.5141 -0.4238 -2.1963
    2MOL   C102  604   2.960   6.089   6.833 -0.5536  0.8022  0.2490
    2MOL   C103  605   2.974   6.193   6.725  0.1142 -0.3639  0.8398
    2MOL   O104  606   3.061   6.145   6.623  0.6892 -0.0480 -0.3052
    2MOL   C105  607   3.201   6.161   6.645 -0.3390 -0.0865  0.2103
    2MOL   C106  608   3.270   6.126   6.518  0.3635 -0.5043 -0.0257
    2MOL   C107  609   3.234   6.210   6.391 -0.0814 -0.0728  0.0584
    2MOL   C108  610   3.329   6.188   6.275  0.0627  0.3105  0.0258
    2MOL   C109  611   3.475   6.233   6.292 -0.4558  0.6232 -0.5707
    2MOL   C110  612   3.491   6.387   6.309  0.2734 -0.1064  0.1362
    2MOL   H111  613   3.044   6.021   6.816 -1.5284 -0.3915  0.1970
    2MOL   H112  614   2.876   6.020   6.821 -0.6935  1.2860 -1.7403
    2MOL   H113  615   3.012   6.286   6.766  0.5020  0.4937 -1.3720
    2MOL   H114  616   3.246   6.106   6.728 -1.0070 -0.3860  0.3828
    2MOL   H115  617   3.217   6.265   6.674 -1.7351 -0.0096  0.7938
    2MOL   H116  618   3.261   6.018   6.506  1.6455 -0.6467  0.2955
    2MOL   H117  619   3.375   6.139   6.542 -0.0598  0.7840  1.1818
    2MOL   H118  620   3.134   6.174   6.364 -1.3389  1.7396  2.1107
    2MOL   H119  621   3.223   6.316   6.414 -0.9871  0.2386 -1.6707
    2MOL   H120  622   3.333   6.082   6.251 -2.1373 -0.2323  1.8919
    2MOL   H121  623   3.297   6.240   6.185 -0.1784  2.0925  1.1134
    2MOL   H122  624   3.521   6.196   6.384 -1.1804  1.2291  0.0490
    2MOL   H123  625   3.537   6.188   6.215  0.2442 -1.0034  0.9172
    2MOL   H124  626   3.413   6.425   6.376 -0.0943  0.8364 -0.8145
    2MOL   H125  627   3.577   6.401   6.375  0.0680 -0.8679  0.5717
    2MOL   H126  628   3.494   6.453   6.223  0.4876  1.9287  1.6570
    2MOL   C127  629   2.839   6.217   6.653 -0.1438 -0.4205 -0.2204
    2MOL   C128  630   2.846   6.338   6.559  0.2818 -0.1081 -0.3946
    2MOL   O129  631   2.858   6.453   6.646 -0.2363 -0.2838  0.2045
    2MOL   C130  632   2.942   6.554   6.598  0.2945  0.0457  1.0322
    2MOL   C131  633   2.931   6.662   6.702 -0.0837 -0.2762  0.6558
    2MOL   C132  634   2.787   6.717   6.710 -0.1793 -0.2778 -0.2392
    2MOL   C133  635   2.789   6.841   6.804  0.6121  0.2136  0.6714
    2MOL   C134  636   2.654   6.913   6.811 -0.0292 -0.5439  0.1007
    2MOL   C135  637   2.559   6.912   6.687 -0.4550  0.5641 -0.4288
    2MOL   H136  638   2.806   6.121   6.615  0.8125 -1.3761  1.3252
    2MOL   H137  639   2.767   6.232   6.734  0.0325 -1.4561  0.1374
    2MOL   H138  640   2.925   6.321   6.486  1.5888  1.4438  0.6401
    2MOL   H139  641   2.909   6.576   6.497 -2.0115  2.0224  2.1615
    2MOL   H140  642   3.047   6.526   6.595  1.1462  3.1644 -1.5334
    2MOL   H141  643   3.000   6.736   6.663 -0.0848 -0.2443  0.7150
    2MOL   H142  644   2.970   6.615   6.793  1.1445 -1.5703 -0.5213
    2MOL   H143  645   2.749   6.747   6.612 -2.7915 -0.2422  0.7489
    2MOL   H144  646   2.721   6.638   6.744  1.5934 -0.8682  1.9490
    2MOL   H145  647   2.816   6.817   6.907  1.6242 -1.5419  0.0135
    2MOL   H146  648   2.873   6.900   6.767  0.5997 -0.0663  0.1820
    2MOL   H147  649   2.600   6.848   6.880  0.6577 -0.1177  1.0686
    2MOL   H148  650   2.676   7.013   6.847 -0.0195 -0.6989  0.5401
    2MOL   H149  651   2.538   6.808   6.662 -0.7336  0.5825 -0.2651
    2MOL   H150  652   2.465   6.951   6.725  0.0559  1.2125  0.1944
    2MOL   H151  653   2.598   6.968   6.602  2.0308  0.0536  0.3114
    2MOL   C152  654   2.727   6.349   6.472 -0.0082 -0.2258 -0.4780
    2MOL   C153  655   2.719   6.246   6.352  0.4440 -0.1627  0.5113
    2MOL   O154  656   2.592   6.243   6.285 -0.0589  0.5322  0.4213
    2MOL   C155  657   2.490   6.168   6.352  0.2955  0.8214 -0.1070
    2MOL   C156  658   2.348   6.226   6.324 -0.3035  0.7642 -0.2541
    2MOL   C157  659   2.314   6.370   6.362 -0.1913 -0.2021  0.1778
    2MOL   C158  660   2.163   6.406   6.340 -0.2022  1.0835 -0.3404
    2MOL   C159  661   2.131   6.407   6.194 -0.3173  0.4554  0.9488
    2MOL   C160  662   2.014   6.506   6.175  0.2895 -0.8368 -0.2844
    2MOL   H161  663   2.643   6.335   6.540  0.6067 -0.9283  0.1435
    2MOL   H162  664   2.713   6.450   6.435  2.6208  0.0584 -0.8213
    2MOL   H163  665   2.731   6.144   6.386  0.4889 -0.3411 -0.0405
    2MOL   H164  666   2.513   6.153   6.458  1.5822 -0.0982 -0.4867
    2MOL   H165  667   2.501   6.061   6.331 -0.3964  0.7553 -0.1310
    2MOL   H166  668   2.273   6.169   6.379 -1.8674  2.2571 -0.7991
    2MOL   H167  669   2.323   6.217   6.219 -1.5809 -1.9794  0.2574
    2MOL   H168  670   2.330   6.388   6.468  1.3677  0.6767 -0.1919
    2MOL   H169  671   2.380   6.434   6.303  0.4749  1.0618  2.2389
    2MOL   H170  672   2.089   6.338   6.383  0.6132  1.3760  1.5674
    2MOL   H171  673   2.139   6.505   6.378 -1.9585  0.3631  0.5089
    2MOL   H172  674   2.212   6.447   6.132 -0.3676 -0.9012 -0.0183
    2MOL   H173  675   2.111   6.302   6.172  2.5750  0.3886 -1.6592
    2MOL   H174  676   1.926   6.476   6.232  0.6108 -0.1020  0.6144
    2MOL   H175  677   2.030   6.611   6.198  2.6750 -1.2772  0.2843
    2MOL   H176  678   1.968   6.511   6.077  1.1120 -1.1644 -0.6937
    2MOL   C177  679   2.817   6.274   6.236  0.6378  0.2924 -0.1364
    2MOL   C178  680   2.802   6.172   6.125 -0.2252 -0.9508 -0.0151
    2MOL   O179  681   2.915   6.208   6.035 -0.0993 -0.0229 -0.2090
    2MOL   C180  682   2.861   6.264   5.914 -1.1432 -0.5576 -0.0419
    2MOL   C181  683   2.963   6.364   5.846  0.0186  0.0866 -1.0631
    2MOL   C182  684   2.912   6.430   5.717  0.6119  0.4586  0.1740
    2MOL   C183  685   3.008   6.524   5.642  0.2868 -0.2909  0.1078
    2MOL   C184  686   2.924   6.616   5.542  0.2026  0.6572 -0.1544
    2MOL   C185  687   2.873   6.534   5.423  0.4188 -0.2740  0.2553
    2MOL   H186  688   2.801   6.375   6.197 -0.9584 -0.7326 -2.2051
    2MOL   H187  689   2.925   6.271   6.250  0.7939 -1.3435 -1.5253
    2MOL   H188  690   2.707   6.174   6.071  0.6383 -0.4318 -1.5554
    2MOL   H189  691   2.771   6.320   5.936  0.9750  2.9003  0.2290
    2MOL   H190  692   2.839   6.184   5.844  1.0975 -1.2525 -0.0119
    2MOL   H191  693   3.054   6.306   5.833 -0.3460 -0.2223 -2.2759
    2MOL   H192  694   2.982   6.443   5.918 -0.7940 -0.9317  0.3057
    2MOL   H193  695   2.879   6.351   5.650  0.2248 -0.2349  1.1589
    2MOL   H194  696   2.823   6.487   5.742 -0.5229 -0.8871 -0.6935
    2MOL   H195  697   3.074   6.583   5.706  0.8888  0.8968 -1.5789
    2MOL   H196  698   3.073   6.459   5.583  2.9366  3.4764 -1.3108
    2MOL   H197  699   2.842   6.667   5.593 -0.3337 -0.1749 -0.1829
    2MOL   H198  700   2.995   6.685   5.495 -0.3568  0.6147 -1.0808
    2MOL   H199  701   2.785   6.473   5.442 -0.2574  0.6999  0.3438
    2MOL   H200  702   2.867   6.598   5.335 -0.4753 -1.3697 -0.4918
    2MOL   H201  703   2.950   6.464   5.395  0.2356 -0.9988  1.5339
    2MOL   C202  704   2.818   6.028   6.172  0.3125  0.0678 -0.1999
    2MOL   C203  705   2.845   5.915   6.064 -0.8871 -0.0850 -0.0958
    2MOL   O204  706   2.797   5.790   6.119  0.2412  0.2019  0.0156
    2MOL   C205  707   2.679   5.741   6.064  0.3698  0.1437  0.1296
    2MOL   C206  708   2.649   5.593   6.114 -0.7769 -0.2066 -0.0871
    2MOL   C207  709   2.506   5.554   6.109  1.3930 -0.0107  0.3555
    2MOL   C208  710   2.479   5.406   6.066  0.2794  0.3059  0.0839
    2MOL   C209  711   2.331   5.363   6.079 -0.0543  0.3106 -0.1264
    2MOL   C210  712   2.296   5.221   6.022  0.2875 -0.5579  0.1906
    2MOL   H211  713   2.897   6.042   6.246  0.7773 -0.9985 -0.4797
    2MOL   H212  714   2.729   5.999   6.228 -0.3378  0.4615 -1.0191
    2MOL   H213  715   2.798   5.943   5.969  0.7707 -0.5332 -1.0745
    2MOL   H214  716   2.678   5.743   5.955  1.0714 -2.0318  0.0594
    2MOL   H215  717   2.603   5.815   6.090  0.3992  1.6939 -3.7676
    2MOL   H216  718   2.682   5.586   6.217 -0.5718  2.2967  0.0400
    2MOL   H217  719   2.707   5.521   6.055 -0.9265 -0.5870  0.2275
    2MOL   H218  720   2.461   5.566   6.207  1.5794 -0.5601  0.5099
    2MOL   H219  721   2.452   5.620   6.041  1.1396 -0.8272 -0.2399
    2MOL   H220  722   2.525   5.393   5.968  0.4652 -3.0680  0.5377
    2MOL   H221  723   2.542   5.334   6.119  0.2243 -0.6624 -1.1568
    2MOL   H222  724   2.304   5.376   6.184  0.7095 -1.3637  0.2893
    2MOL   H223  725   2.262   5.423   6.019 -1.3463 -0.0046  1.0043
    2MOL   H224  726   2.213   5.173   6.075 -0.8350 -1.1832 -2.0737
    2MOL   H225  727   2.265   5.221   5.918 -0.3777  0.4751  0.3765
    2MOL   H226  728   2.377   5.151   6.039  0.2599 -0.7504 -0.4480
    2MOL   C227  729   3.000   5.908   6.044  0.1969 -0.1877  0.5905
    2MOL   C228  730   3.053   5.806   5.936  0.2608 -0.2584 -0.0920
    2MOL   O229  731   3.169   5.851   5.868  0.1416  0.4879 -0.6268
    2MOL   C230  732   3.154   5.967   5.794 -0.0757  0.4847 -0.0095
    2MOL   C231  733   3.235   5.962   5.670  0.2151 -0.5383  1.3396
    2MOL   C232  734   3.169   5.867   5.565  0.2422 -0.3796 -0.1950
    2MOL   C233  735   3.036   5.919   5.497 -0.1035  0.2191 -0.4154
    2MOL   C234  736   2.986   5.827   5.385  0.2855 -0.2258  0.0964
    2MOL   C235  737   2.851   5.860   5.322  0.4692  0.4099  0.7664
    2MOL   H236  738   3.023   6.007   6.004  0.8506 -0.4638  0.2592
    2MOL   H237  739   3.055   5.901   6.138  0.0574  0.0035  0.6860
    2MOL   H238  740   2.973   5.790   5.864 -1.2858  2.4600  0.9534
    2MOL   H239  741   3.190   6.046   5.860 -2.5503  1.1781  0.5594
    2MOL   H240  742   3.051   6.001   5.780  0.4168  1.3408 -1.6804
    2MOL   H241  743   3.333   5.930   5.705  0.6704  0.4966  0.9996
    2MOL   H242  744   3.250   6.059   5.624  2.3298 -0.6153  1.8161
    2MOL   H243  745   3.236   5.836   5.485  1.7475  2.1741  0.0288
    2MOL   H244  746   3.141   5.774   5.614  0.1008  0.3541  1.1280
    2MOL   H245  747   2.955   5.926   5.569 -0.3842  1.2779 -0.8180
    2MOL   H246  748   3.052   6.011   5.442  1.0008 -1.4180 -2.9408
    2MOL   H247  749   3.060   5.821   5.306  0.1056  0.4636 -0.1224
    2MOL   H248  750   2.984   5.727   5.429  2.9975 -0.6023 -0.5600
    2MOL   H249  751   2.764   5.848   5.386 -0.5029  0.7840 -0.4416
    2MOL   H250  752   2.842   5.962   5.284  1.3451  0.1360 -0.2219
    2MOL   H251  753   2.832   5.793   5.238 -0.4246  0.0262  1.2785
    2MOL   C252  754   3.088   5.668   5.990  0.1028 -0.0661  0.9169
    2MOL   C253  755   3.121   5.562   5.883 -0.0532 -0.7038 -0.6170
    2MOL   O254  756   3.002   5.491   5.845 -0.1058  0.6941  0.3863
    2MOL   C255  757   2.959   5.518   5.716  0.4109  0.2509  0.0097
    2MOL   C256  758   2.830   5.455   5.672 -0.3372 -0.4286 -0.7942
    2MOL   C257  759   2.802   5.476   5.525 -0.4759 -0.1363  0.2811
    2MOL   C258  760   2.704   5.386   5.453  0.4584 -0.5302 -0.1431
    2MOL   C259  761   2.700   5.404   5.300 -0.2966  0.0525 -0.4564
    2MOL   C260  762   2.565   5.349   5.249  0.4242  0.1975  0.4321
    2MOL   H261  763   3.178   5.678   6.051 -0.1827 -1.4819  1.6091
    2MOL   H262  764   3.008   5.627   6.052 -2.6079 -0.1541 -2.5100
    2MOL   H263  765   3.162   5.617   5.798 -0.9842  1.5204  0.3340
    2MOL   H264  766   3.041   5.491   5.649 -0.0292 -0.4809 -0.2376
    2MOL   H265  767   2.939   5.625   5.705  0.7081  0.4272  1.1091
    2MOL   H266  768   2.749   5.494   5.735  1.2166  0.6221  0.6065
    2MOL   H267  769   2.818   5.349   5.693 -1.8331 -0.5063 -1.9607
    2MOL   H268  770   2.784   5.581   5.502 -0.1783  0.0126  0.7284
    2MOL   H269  771   2.890   5.450   5.467  0.5753 -0.1532  1.8834
    2MOL   H270  772   2.729   5.285   5.485  1.7521  0.0523  0.7634
    2MOL   H271  773   2.604   5.408   5.489  0.1924  0.9130 -1.6769
    2MOL   H272  774   2.715   5.503   5.256  1.2841 -1.4189 -3.3326
    2MOL   H273  775   2.783   5.349   5.257  0.8458  0.9728  0.5083
    2MOL   H274  776   2.551   5.350   5.141  0.6615  2.4467  0.3949
    2MOL   H275  777   2.566   5.244   5.279  1.3576  0.0788  0.0123
    2MOL   H276  778   2.481   5.410   5.283 -1.0629 -0.8525 -1.2397
    2MOL   C277  779   3.222   5.458   5.927 -0.1391 -0.5955 -0.0919
    2MOL   C278  780   3.275   5.363   5.818 -0.9448 -0.0151  0.3464
    2MOL   O279  781   3.357   5.428   5.722 -0.1097  0.1431  0.6193
    2MOL   C280  782   3.352   5.387   5.585 -0.2687 -0.2702 -0.2868
    2MOL   C281  783   3.453   5.471   5.507  0.3370 -0.7085 -0.0944
    2MOL   C282  784   3.418   5.619   5.525  0.3066 -0.7347  0.4688
    2MOL   C283  785   3.508   5.713   5.451 -0.2450 -0.6472  0.2777
    2MOL   C284  786   3.471   5.718   5.300 -0.1468 -0.1901  0.2938
    2MOL   C285  787   3.576   5.795   5.218 -0.3082  0.2076  0.0712
    2MOL   H286  788   3.308   5.510   5.967  1.0071 -1.3474 -1.5435
    2MOL   H287  789   3.174   5.402   6.007 -0.9050 -1.6177 -1.2527
    2MOL   H288  790   3.199   5.298   5.776 -2.2115  2.1454 -0.7420
    2MOL   H289  791   3.251   5.411   5.550 -0.4831  0.7520  0.9794
    2MOL   H290  792   3.367   5.280   5.575 -4.6922 -0.7533 -3.1633
    2MOL   H291  793   3.462   5.444   5.402  3.8318  1.4521 -0.4349
    2MOL   H292  794   3.553   5.453   5.549  0.3034  1.6939  1.1244
    2MOL   H293  795   3.315   5.644   5.497  1.1975  1.7975 -0.7043
    2MOL   H294  796   3.423   5.652   5.629  0.9416  0.7690 -0.0275
    2MOL   H295  797   3.509   5.808   5.505  2.9118 -1.7177  2.1927
    2MOL   H296  798   3.614   5.691   5.463  0.1630  1.9908  1.8963
    2MOL   H297  799   3.471   5.614   5.266 -0.0258 -0.5240  1.2882
    2MOL   H298  800   3.372   5.763   5.289 -0.5979 -1.2902 -0.1816
    2MOL   H299  801   3.596   5.882   5.281 -1.8669 -0.2116  1.1869
    2MOL   H300  802   3.672   5.746   5.202  0.6997  2.4755 -0.9911
    2MOL   H301  803   3.528   5.827   5.126  0.6167 -0.8438 -0.7888
    2MOL   C302  804   3.374   5.272   5.893  0.5776 -0.2274  0.4503
    2MOL   C303  805   3.421   5.146   5.823 -0.2698  1.1972 -0.0097
    2MOL   O304  806   3.339   5.026   5.837  0.2253 -0.6501 -0.1687
    2MOL   C305  807   3.250   5.008   5.721  0.0302 -0.4406  0.1919
    2MOL   C306  808   3.182   4.875   5.743  0.1843  0.1560 -0.7441
    2MOL   C307  809   3.290   4.774   5.741 -0.8766  0.3460  0.2657
    2MOL   C308  810   3.265   4.642   5.816 -0.1430 -0.5285 -0.6355
    2MOL   C309  811   3.360   4.524   5.776  0.0477 -0.3684 -0.1690
    2MOL   C310  812   3.316   4.386   5.830 -0.3665  0.1349 -0.0947
    2MOL   H311  813   3.456   5.341   5.913 -0.5485  1.2528  0.0231
    2MOL   H312  814   3.335   5.248   5.992 -0.0300  1.3789  0.6013
    2MOL   H313  815   3.460   5.158   5.722  1.7046 -0.3534  0.5378
    2MOL   H314  816   3.310   5.004   5.631 -0.6185  1.3071 -0.3482
    2MOL   H315  817   3.171   5.082   5.711  0.8492  0.2150 -1.6818
    2MOL   H316  818   3.105   4.838   5.676 -0.5420  0.9518 -0.3613
    2MOL   H317  819   3.133   4.874   5.841  1.2031  1.3319 -0.2214
    2MOL   H318  820   3.293   4.749   5.635 -1.9467  0.0489  0.3003
    2MOL   H319  821   3.388   4.808   5.773 -0.2332 -0.9177 -0.3375
    2MOL   H320  822   3.274   4.642   5.925 -0.5826 -0.5993 -0.5989
    2MOL   H321  823   3.164   4.605   5.797 -0.1828  0.4964 -2.4958
    2MOL   H322  824   3.359   4.517   5.667 -0.0544 -1.7212 -0.0998
    2MOL   H323  825   3.460   4.542   5.815  0.6227  1.6268 -2.4756
    2MOL   H324  826   3.340   4.371   5.935  0.1576  0.6738 -0.1355
    2MOL   H325  827   3.207   4.379   5.821 -0.3092 -0.8420 -0.0590
    2MOL   H326  828   3.357   4.308   5.765  0.4112 -1.3729  2.1712
    2MOL   C327  829   3.543   5.108   5.908 -0.1366  0.3669  0.5389
    2MOL   C328  830   3.625   4.994   5.846  0.7163 -0.2951  0.1204
    2MOL   O329  831   3.669   5.044   5.724  0.0969 -0.1060  0.6358
    2MOL   C330  832   3.664   4.946   5.620  0.4119  0.1976 -0.3468
    2MOL   C331  833   3.728   5.015   5.502 -0.3239 -0.0727 -0.6222
    2MOL   C332  834   3.627   5.104   5.437  0.7663  0.3337  0.4096
    2MOL   C333  835   3.521   5.032   5.348  0.0040  0.1506  0.0773
    2MOL   C334  836   3.418   5.134   5.298  0.3852 -0.8270 -0.1044
    2MOL   C335  837   3.343   5.077   5.185 -0.0853  0.2716  0.5761
    2MOL   H336  838   3.520   5.073   6.009 -1.3198 -0.6023 -0.0387
    2MOL   H337  839   3.605   5.196   5.919  1.1731 -0.6797  1.7129
    2MOL   H338  840   3.557   4.910   5.837  1.5228 -0.8590 -0.9085
    2MOL   H339  841   3.565   4.907   5.596 -0.5716  2.9207 -0.9035
    2MOL   H340  842   3.723   4.863   5.659  1.7452  1.5511  0.5594
    2MOL   H341  843   3.780   4.952   5.430 -0.0258  1.1886 -1.5189
    2MOL   H342  844   3.802   5.083   5.542  0.0325 -0.5419 -0.4759
    2MOL   H343  845   3.576   5.175   5.501 -0.4291  0.7743 -0.9965
    2MOL   H344  846   3.690   5.170   5.378  0.2928 -0.9876 -1.6347
    2MOL   H345  847   3.564   4.986   5.259  1.2409  1.6232 -0.1044
    2MOL   H346  848   3.467   4.955   5.403 -1.4256  1.2408  0.2239
    2MOL   H347  849   3.353   5.164   5.380 -3.3939 -2.1910 -2.4602
    2MOL   H348  850   3.476   5.219   5.262 -2.2515  0.4203 -1.5901
    2MOL   H349  851   3.306   5.155   5.117 -0.2394 -0.7852 -0.5734
    2MOL   H350  852   3.404   5.016   5.119  0.0728  1.7252 -0.6647
    2MOL   H351  853   3.257   5.013   5.204 -0.4857 -0.0445 -2.0638
    2MOL   C352  854   3.748   4.945   5.932 -1.0000 -0.1435  0.0216
    2MOL   C353  855   3.707   4.885   6.071  0.1339 -0.0332 -0.5086
    2MOL   O354  856   3.825   4.835   6.131  0.2424 -0.6184  0.2477
    2MOL   C355  857   3.904   4.928   6.196  0.5838 -0.6801 -0.6015
    2MOL   C356  858   4.018   4.843   6.265  0.9573  0.3576 -0.6891
    2MOL   C357  859   3.977   4.749   6.380 -0.0491 -0.9797  0.1108
    2MOL   C358  860   4.104   4.708   6.468  0.0615 -0.3306 -0.2013
    2MOL   C359  861   4.191   4.628   6.385  0.4919  0.7603 -0.1386
    2MOL   C360  862   4.308   4.577   6.463 -0.3580  0.5746 -0.6017
    2MOL   H361  863   3.801   4.864   5.881 -1.0253 -0.7480  0.9392
    2MOL   H362  864   3.818   5.027   5.943  0.1772 -1.1059 -0.2614
    2MOL   H363  865   3.665   4.967   6.128  2.2460  1.8954 -1.6361
    2MOL   H364  866   3.857   4.999   6.263 -0.7851 -0.8235 -1.4066
    2MOL   H365  867   3.949   4.998   6.124  0.8550 -1.5619 -1.3001
    2MOL   H366  868   4.090   4.916   6.303  1.9639 -1.2139  0.4787
    2MOL   H367  869   4.065   4.783   6.187 -0.0061 -2.1821  0.6091
    2MOL   H368  870   3.911   4.807   6.445 -0.6438 -0.6773 -0.7506
    2MOL   H369  871   3.928   4.660   6.340 -0.8851 -0.8278  0.7779
    2MOL   H370  872   4.146   4.797   6.515 -1.4261 -0.5831  1.6555
    2MOL   H371  873   4.061   4.653   6.552 -0.4916  1.6825  0.8744
    2MOL   H372  874   4.145   4.541   6.339  0.1714 -0.3491  2.2593
    2MOL   H373  875   4.244   4.686   6.309  1.7212  1.0837  0.9408
    2MOL   H374  876   4.389   4.649   6.476  0.1414  0.0195 -0.6293
    2MOL   H375  877   4.285   4.530   6.559  1.5689 -2.7199 -1.6679
    2MOL   H376  878   4.357   4.500   6.403  2.7106  1.9897  0.0431
    2MOL   C377  879   3.617   4.759   6.062  0.4229 -0.2629 -0.2290
    2MOL   C378  880   3.599   4.692   6.203 -1.4327  0.0441  0.3695
    2MOL   O379  881   3.509   4.586   6.185  0.1060 -0.9035  0.4245
    2MOL   C380  882   3.560   4.477   6.105 -0.2175 -0.8219  0.5834
    2MOL   C381  883   3.501   4.351   6.177  0.1739  0.1647 -0.1914
    2MOL   C382  884   3.578   4.317   6.311 -0.7675 -0.2639 -0.3181
    2MOL   C383  885   3.718   4.265   6.288  0.5433  0.4862  0.3390
    2MOL   C384  886   3.774   4.214   6.421 -0.1201 -0.5221 -0.2979
    2MOL   C385  887   3.919   4.171   6.409  0.2786 -0.4524 -0.2499
    2MOL   H386  888   3.518   4.783   6.023  0.6027  0.9026  0.0110
    2MOL   H387  889   3.659   4.692   5.987 -0.7712 -0.1200 -1.0361
    2MOL   H388  890   3.691   4.645   6.238  0.4787  2.2425 -1.4976
    2MOL   H389  891   3.669   4.478   6.101 -0.2420 -1.0024 -0.3472
    2MOL   H390  892   3.524   4.477   6.002  1.8485  0.3061 -0.1764
    2MOL   H391  893   3.501   4.268   6.106  1.5003 -1.1201  1.2657
    2MOL   H392  894   3.398   4.371   6.207 -0.8297 -1.2257 -2.5074
    2MOL   H393  895   3.577   4.399   6.382 -0.4033  0.4378 -1.1192
    2MOL   H394  896   3.521   4.237   6.360 -1.2751  1.2103  1.5584
    2MOL   H395  897   3.725   4.194   6.206 -0.8088  0.3416  0.3386
    2MOL   H396  898   3.790   4.333   6.245  0.2631  1.7158  1.7556
    2MOL   H397  899   3.765   4.288   6.500  0.0636 -0.7118 -0.0971
    2MOL   H398  900   3.724   4.121   6.448 -0.5856 -0.5087 -1.1051
    2MOL   H399  901   3.965   4.190   6.506  1.0093  2.0925 -1.0830
    2MOL   H400  902   3.922   4.068   6.373  1.4432 -0.3618 -0.4224
    2MOL   H401  903   3.978   4.233   6.342  1.1295 -0.1020  0.8151
    2MOL   C402  904   3.539   4.790   6.304  0.6382  0.5642  0.3432
    2MOL   C403  905   3.516   4.723   6.444  0.1807 -0.1443 -0.6294
    2MOL   O404  906   3.432   4.817   6.518  0.2947  0.2928  0.0147
    2MOL   C405  907   3.295   4.789   6.507  0.8960 -0.0717  0.8181
    2MOL   C406  908   3.210   4.914   6.562  0.6286 -0.0849  0.5232
    2MOL   C407  909   3.244   5.040   6.488  0.0700 -0.6757  0.3569
    2MOL   C408  910   3.170   5.158   6.530  0.2228  0.2689  0.0316
    2MOL   C409  911   3.236   5.289   6.483 -0.4236 -0.4619 -0.4862
    2MOL   C410  912   3.257   5.315   6.335  0.0810  0.0622 -0.1279
    2MOL   H411  913   3.446   4.828   6.263  1.3633  0.2750 -1.6668
    2MOL   H412  914   3.604   4.876   6.320  0.4331  0.7940 -0.0771
    2MOL   H413  915   3.453   4.634   6.434 -2.0256  1.3460 -0.3498
    2MOL   H414  916   3.271   4.703   6.570  1.4053  0.1866  1.3671
    2MOL   H415  917   3.274   4.765   6.403  0.1334 -0.6429  1.0969
    2MOL   H416  918   3.236   4.923   6.667  1.0456  0.3793  0.3799
    2MOL   H417  919   3.105   4.889   6.547  0.4374  0.2221  1.3017
    2MOL   H418  920   3.352   5.055   6.496  0.4439 -1.2168 -2.8780
    2MOL   H419  921   3.220   5.012   6.385  2.4299 -3.1161  0.4297
    2MOL   H420  922   3.062   5.156   6.514  0.4258  2.2861 -1.8061
    2MOL   H421  923   3.165   5.154   6.639  0.7937 -0.6444  0.0279
    2MOL   H422  924   3.170   5.368   6.519 -0.4919 -1.1052  0.8026
    2MOL   H423  925   3.333   5.306   6.531 -1.2043  1.1957  0.5281
    2MOL   H424  926   3.339   5.256   6.294 -0.5021 -2.1745  1.8707
    2MOL   H425  927   3.172   5.300   6.268  0.1601 -0.2863 -0.1489
    2MOL   H426  928   3.285   5.418   6.312 -0.9120  0.2795 -0.3955
    2MOL   C427  929   3.645   4.699   6.510 -0.4919 -0.0348 -0.3329
    2MOL   C428  930   3.624   4.635   6.654 -0.2935  0.2365 -0.7331
    2MOL   O429  931   3.591   4.498   6.645 -0.1404 -0.0722 -0.1227
    2MOL   C430  932   3.472   4.463   6.707 -0.1617  1.0469  0.5770
    2MOL   C431  933   3.487   4.308   6.740  0.4918 -0.6069 -0.1591
    2MOL   C432  934   3.432   4.277   6.883  0.1280  0.1767 -0.2659
    2MOL   C433  935   3.451   4.126   6.910  0.0120  0.7357 -0.2736
    2MOL   C434  936   3.369   4.032   6.818  0.5970  0.0842  0.6655
    2MOL   C435  937   3.402   3.890   6.858 -0.4255  0.4100 -0.1418
    2MOL   H436  938   3.711   4.636   6.451  1.2907  0.3800  1.1572
    2MOL   H437  939   3.697   4.793   6.528 -0.0922 -0.3085 -0.0465
    2MOL   H438  940   3.542   4.695   6.692 -0.8226  0.7174 -2.5690
    2MOL   H439  941   3.393   4.465   6.632  0.5516 -2.6060 -0.3720
    2MOL   H440  942   3.424   4.524   6.783  0.8527  1.8581  0.5701
    2MOL   H441  943   3.592   4.284   6.723  1.1041  2.1593 -0.5649
    2MOL   H442  944   3.427   4.251   6.670 -2.3142 -1.0642  2.5147
    2MOL   H443  945   3.484   4.337   6.957 -0.3642  1.4590 -0.9500
    2MOL   H444  946   3.324   4.290   6.882 -0.4168 -3.3927  1.9515
    2MOL   H445  947   3.555   4.097   6.891 -0.2606 -0.9025  0.5712
    2MOL   H446  948   3.426   4.110   7.015  1.4564  0.0263 -0.0243
    2MOL   H447  949   3.262   4.049   6.823  0.4657  0.5361 -2.5097
    2MOL   H448  950   3.391   4.045   6.712 -0.4398  0.1696  0.4544
    2MOL   H449  951   3.376   3.867   6.961  0.9346  0.3956  0.2079
    2MOL   H450  952   3.350   3.807   6.810  0.1011  0.0276 -0.0499
    2MOL   H451  953   3.506   3.863   6.841  0.1597  2.4330  0.0762
    2MOL   C452  954   3.754   4.666   6.739 -0.1071  0.4435  0.4071
    2MOL   C453  955   3.746   4.783   6.837 -0.3475 -0.1596 -0.8479
    2MOL   O454  956   3.747   4.909   6.769  0.1067 -0.3411  0.3293
    2MOL   C455  957   3.615   4.968   6.778 -0.3838  0.8911 -0.5124
    2MOL   C456  958   3.586   5.076   6.671  0.5510  0.3418  0.8914
    2MOL   C457  959   3.688   5.186   6.658 -0.2920  0.3850 -0.9975
    2MOL   C458  960   3.656   5.297   6.553 -0.2985  0.0574  0.6392
    2MOL   C459  961   3.756   5.413   6.544 -0.1425 -0.0454 -0.7581
    2MOL   C460  962   3.735   5.494   6.421 -0.1998 -0.0494 -0.1915
    2MOL   H461  963   3.758   4.580   6.805  2.5096 -0.3916 -0.7397
    2MOL   H462  964   3.847   4.655   6.682 -0.2102 -1.5996  0.5893
    2MOL   H463  965   3.662   4.776   6.906 -0.0207  0.4131 -0.3884
    2MOL   H464  966   3.606   5.001   6.881 -3.7713  0.0010 -0.4555
    2MOL   H465  967   3.535   4.894   6.776 -1.2722  1.8309  0.0161
    2MOL   H466  968   3.489   5.121   6.693 -0.3004  0.2824 -2.5730
    2MOL   H467  969   3.596   5.038   6.570  0.5373  0.6005  0.7936
    2MOL   H468  970   3.707   5.247   6.746 -2.2841  0.2531 -0.4517
    2MOL   H469  971   3.779   5.130   6.637 -1.6123 -2.1432 -0.2098
    2MOL   H470  972   3.651   5.254   6.453  0.7733 -0.4223  0.7878
    2MOL   H471  973   3.562   5.350   6.571  0.2813  0.7773  1.6424
    2MOL   H472  974   3.747   5.479   6.630  1.5414  2.9830 -2.8304
    2MOL   H473  975   3.857   5.370   6.542  0.3934  1.1201  0.3178
    2MOL   H474  976   3.803   5.574   6.392  1.0212 -1.2672 -0.7090
    2MOL   H475  977   3.733   5.429   6.333 -0.4935  0.2651 -0.4201
    2MOL   H476  978   3.645   5.554   6.433 -0.3387 -0.3584  0.3343
    2MOL   C477  979   3.873   4.794   6.925  0.5299 -0.2069 -0.1018
    2MOL   C478  980   3.861   4.905   7.040 -0.1965  0.0851 -0.2552
    2MOL   O479  981   3.745   4.872   7.109 -0.0577 -0.3458  0.1673
    2MOL   C480  982   3.731   4.928   7.233  0.0446  0.3317  0.0697
    2MOL   C481  983   3.598   4.888   7.310 -0.8291 -0.2152  0.6131
    2MOL   C482  984   3.620   4.755   7.381 -0.0547  0.3097 -0.0510
    2MOL   C483  985   3.515   4.728   7.488  0.2632  0.7384  0.4207
    2MOL   C484  986   3.546   4.808   7.615 -0.6106 -0.1126 -0.0493
    2MOL   C485  987   3.440   4.781   7.728  0.1738 -0.0064 -0.5663
    2MOL   H486  988   3.905   4.699   6.969 -2.0022 -1.2614 -0.4603
    2MOL   H487  989   3.959   4.829   6.868 -0.7170  3.8938  0.4382
    2MOL   H488  990   3.949   4.887   7.101 -0.8568 -1.5546  0.2439
    2MOL   H489  991   3.730   5.037   7.239 -0.9133  0.3344 -0.0150
    2MOL   H490  992   3.815   4.901   7.297  0.4848 -0.2519 -0.7357
    2MOL   H491  993   3.516   4.877   7.239  0.3878 -0.7108 -0.7461
    2MOL   H492  994   3.572   4.974   7.372 -0.2573 -1.3714  2.5033
    2MOL   H493  995   3.623   4.679   7.303 -0.2210  0.5552 -0.2953
    2MOL   H494  996   3.718   4.746   7.429 -1.3436 -1.3311  2.4150
    2MOL   H495  997   3.416   4.748   7.447 -0.1836 -0.2696  0.9851
    2MOL   H496  998   3.523   4.624   7.517 -1.1719  1.2005  2.5361
    2MOL   H497  999   3.642   4.765   7.643 -0.8288 -0.4051  0.2616
    2MOL   H498 1000   3.555   4.914   7.592  1.0920 -0.0698  0.7038
    2MOL   H499 1001   3.472   4.842   0.034 -3.2398 -1.0581  1.5452
    2MOL   H500 1002   3.336   4.803   7.706  0.0792  0.5884  0.4701
    2MOL   H501 1003   3.442   4.676   7.758  0.8727  0.1782  0.0493
    2MOL   H502 1004   3.857   5.005   6.996 -0.5979 -0.1317 -0.7234
    3MOL     C1 1005   0.260   4.463   0.612 -0.1124  0.3805  0.5037
    3MOL     C2 1006   0.266   4.614   0.645  0.3468  0.0746 -0.5950
    3MOL     O3 1007   0.250   4.615   0.790 -0.0380 -0.5499  0.2592
    3MOL     C4 1008   0.376   4.613   0.857  0.3750  0.4690 -0.2183
    3MOL     C5 1009   0.338   4.601   1.006 -0.2996  0.2184  0.0711
    3MOL     C6 1010   0.312   4.458   1.059  0.7599  0.1138  0.1583
    3MOL     C7 1011   0.347   4.459   1.206 -0.0414 -0.3407  0.4173
    3MOL     C8 1012   0.313   4.331   1.280  0.0395 -0.7957 -0.1553
    3MOL     C9 1013   0.160   4.290   1.275 -0.5930 -0.5210  0.1322
    3MOL    H10 1014   0.247   4.442   0.506 -1.8542 -1.0056  0.9576
    3MOL    H11 1015   0.350   4.409   0.641 -1.0454 -2.7196 -2.0657
    3MOL    H12 1016   0.359   4.657   0.608 -0.1328  1.8223  0.2188
    3MOL    H13 1017   0.435   4.702   0.836  0.6996  0.7257  1.6758
    3MOL    H14 1018   0.436   4.530   0.818  0.2491  0.8714 -1.2819
    3MOL    H15 1019   0.245   4.657   1.015 -0.8776 -0.7076 -0.0944
    3MOL    H16 1020   0.411   4.659   1.063 -0.1782  0.1941 -0.0569
    3MOL    H17 1021   0.211   4.427   1.031 -0.0445  1.2636  1.6789
    3MOL    H18 1022   0.371   4.387   1.001 -1.0306 -0.6832 -0.7189
    3MOL    H19 1023   0.455   4.475   1.210 -0.2289  1.7956 -1.9528
    3MOL    H20 1024   0.305   4.545   1.257  2.2367  1.3423 -0.4283
    3MOL    H21 1025   0.355   4.330   1.380  0.3327 -1.2412 -0.2837
    3MOL    H22 1026   0.364   4.250   1.230  0.9275 -1.1850  1.3613
    3MOL    H23 1027   0.087   4.371   1.285 -0.7940 -0.7667  0.6647
    3MOL    H24 1028   0.136   4.249   1.177 -1.9728  0.1694  0.1653
    3MOL    H25 1029   0.130   4.230   1.361 -1.5890  0.7872  0.7213
    3MOL    H26 1030   0.171   4.426   0.665 -0.5938  0.8723  0.0384
    3MOL    C27 1031   0.152   4.699   0.581  0.5709  0.8156  0.5683
    3MOL    C28 1032   0.135   4.843   0.621 -0.1081  0.0905 -0.4545
    3MOL    O29 1033   0.243   4.918   0.572 -0.2320  0.8243 -0.3057
    3MOL    C30 1034   0.317   4.991   0.668 -0.7056 -0.1881 -0.0166
    3MOL    C31 1035   0.442   5.054   0.608 -0.1813  0.4453 -0.3779
    3MOL    C32 1036   0.523   5.133   0.710  0.4594 -0.1095 -0.1393
    3MOL    C33 1037   0.645   5.225   0.666 -0.4153 -0.2956 -0.9357
    3MOL    C34 1038   0.590   5.341   0.578 -0.8772  0.1157  0.1176
    3MOL    C35 1039   0.700   5.439   0.556 -0.8890 -0.2886  0.1456
    3MOL    H36 1040   0.153   4.690   0.472 -1.7676  0.3660  0.5713
    3MOL    H37 1041   0.068   4.641   0.619  0.0478  1.0048 -0.2762
    3MOL    H38 1042   0.141   4.847   0.730  2.7413 -1.1277 -0.5247
    3MOL    H39 1043   0.359   4.927   0.746 -0.8919 -0.6738 -0.3169
    3MOL    H40 1044   0.262   5.072   0.716 -0.3641 -0.1761  0.3677
    3MOL    H41 1045   0.419   5.119   0.524  1.1688 -2.5767 -3.2008
    3MOL    H42 1046   0.504   4.973   0.570 -0.1889 -0.2353  1.0145
    3MOL    H43 1047   0.454   5.189   0.774  0.7053  0.1953 -0.1391
    3MOL    H44 1048   0.562   5.052   0.771  1.8508  0.9619  0.4189
    3MOL    H45 1049   0.687   5.274   0.753 -0.4473 -0.2723 -0.9332
    3MOL    H46 1050   0.722   5.172   0.610 -0.3576  0.7129 -1.8370
    3MOL    H47 1051   0.559   5.284   0.490 -1.2866 -0.7870  0.8360
    3MOL    H48 1052   0.500   5.378   0.626 -0.8228  0.2099  0.1474
    3MOL    H49 1053   0.657   5.531   0.518  0.4085 -0.3185 -1.4561
    3MOL    H50 1054   0.746   5.461   0.652  0.8019  1.5196 -1.0397
    3MOL    H51 1055   0.791   5.413   0.501 -0.9954 -0.3482 -0.0024
    3MOL    C52 1056   7.774   4.890   0.572  0.3038 -0.1029 -0.1412
    3MOL    C53 1057   7.741   5.033   0.608  0.3347 -0.4521 -0.0637
    3MOL    O54 1058   7.630   5.082   0.535  0.1896 -0.4370 -0.6117
    3MOL    C55 1059   7.663   5.120   0.401 -0.3108 -0.0419 -0.7573
    3MOL    C56 1060   7.535   5.141   0.319 -0.1834 -0.0428  0.8371
    3MOL    C57 1061   7.432   5.028   0.341 -0.8662 -0.1318  0.1744
    3MOL    C58 1062   7.302   5.058   0.265  0.1135 -0.0699  0.9517
    3MOL    C59 1063   7.180   4.968   0.306 -0.9694 -0.4132 -0.0304
    3MOL    C60 1064   7.066   4.987   0.211 -0.1986 -0.3036 -0.1557
    3MOL    H61 1065   7.693   4.827   0.609 -1.4184  1.3974 -1.2760
    3MOL    H62 1066   7.771   4.872   0.464 -1.3975 -2.1221  0.2080
    3MOL    H63 1067   0.046   5.099   0.583  1.8676 -1.2372  2.7909
    3MOL    H64 1068   7.718   5.038   0.353  0.9913 -0.4945  1.4501
    3MOL    H65 1069   7.726   5.209   0.397  1.2010 -1.0748 -0.7292
    3MOL    H66 1070   7.558   5.152   0.213  1.0635  0.0990  1.1059
    3MOL    H67 1071   7.489   5.233   0.355  0.4643  0.7307 -0.2664
    3MOL    H68 1072   7.467   4.928   0.314 -0.9691 -0.0685 -0.1985
    3MOL    H69 1073   7.419   5.041   0.448  2.4514  0.2011  0.5887
    3MOL    H70 1074   7.275   5.163   0.272  0.1702 -0.0579  0.9958
    3MOL    H71 1075   7.330   5.041   0.161  1.0324  0.0614  1.1678
    3MOL    H72 1076   7.211   4.864   0.298 -0.7656 -0.7035  3.6170
    3MOL    H73 1077   7.147   4.982   0.409 -3.7511 -2.5060 -0.5729
    3MOL    H74 1078   7.025   5.088   0.215  0.0399 -0.1704 -1.1099
    3MOL    H75 1079   7.112   4.972   0.114 -1.6221 -1.9005 -0.6023
    3MOL    H76 1080   6.989   4.912   0.227 -2.7687  2.3480  0.3463
    3MOL    C77 1081   7.696   5.032   0.757  0.3705  0.3206  0.4984
    3MOL    C78 1082   7.664   5.168   0.819  0.8549  0.3173  0.0693
    3MOL    O79 1083   7.773   5.237   0.868  0.0078 -0.8811  0.3082
    3MOL    C80 1084   0.055   5.332   0.771 -0.1140  0.3154 -0.3258
    3MOL    C81 1085   0.186   5.375   0.838 -0.5005 -0.0134 -0.0741
    3MOL    C82 1086   0.256   5.499   0.790 -0.0073 -0.5558 -0.9612
    3MOL    C83 1087   0.391   5.523   0.869 -0.3754  0.3507  0.7532
    3MOL    C84 1088   0.476   5.644   0.815 -0.4578 -0.3810 -0.4717
    3MOL    C85 1089   0.615   5.656   0.876  0.9812 -0.3665 -0.7652
    3MOL    H86 1090   7.769   4.992   0.827  0.9317 -1.6927 -1.2015
    3MOL    H87 1091   7.600   4.980   0.765 -0.7693  2.3023  0.1368
    3MOL    H88 1092   7.600   5.222   0.748  2.1247 -0.7441 -1.9367
    3MOL    H89 1093   7.768   5.419   0.766 -0.4986  0.0618  0.2949
    3MOL    H90 1094   0.080   5.296   0.671  0.2445  3.0240 -1.2592
    3MOL    H91 1095   0.255   5.291   0.849 -1.7322 -1.2203 -1.3749
    3MOL    H92 1096   0.154   5.402   0.939  1.0803  1.6321  0.0164
    3MOL    H93 1097   0.283   5.494   0.685 -0.0907  2.0163 -1.1346
    3MOL    H94 1098   0.179   5.574   0.806 -0.4990 -1.2887  0.2058
    3MOL    H95 1099   0.372   5.535   0.975 -1.2669 -0.7498  0.7295
    3MOL    H96 1100   0.454   5.435   0.858 -0.6951  0.0241  1.5414
    3MOL    H97 1101   0.481   5.649   0.707 -1.9750  0.5912 -0.5066
    3MOL    H98 1102   0.427   5.739   0.837 -0.1738 -0.2140 -0.5503
    3MOL    H99 1103   0.670   5.747   0.853 -0.8844  1.1859  0.6807
    3MOL   H100 1104   0.595   5.668   0.982  1.6540  1.7748 -0.8610
    3MOL   H101 1105   0.677   5.571   0.847  2.2956  0.1046  0.6392
    3MOL   C102 1106   7.572   5.152   0.940  0.2293 -0.0079 -0.3570
    3MOL   C103 1107   7.413   5.141   0.924 -0.5750 -0.1022  0.5405
    3MOL   O104 1108   7.381   5.010   0.891  0.4913 -0.0206  0.3059
    3MOL   C105 1109   7.320   4.989   0.765 -0.0462 -0.3002 -0.6585
    3MOL   C106 1110   7.281   4.845   0.763 -0.1598  0.3759 -0.1215
    3MOL   C107 1111   7.253   4.791   0.624 -0.3140  0.4463 -0.4670
    3MOL   C108 1112   7.210   4.641   0.621  0.3120 -0.1758 -0.2923
    3MOL   C109 1113   7.200   4.580   0.487  0.2093  1.0347  0.0019
    3MOL   C110 1114   7.165   4.431   0.490 -0.2186  0.1951 -0.0834
    3MOL   H111 1115   7.607   5.067   0.997  4.5475  1.5402 -0.4872
    3MOL   H112 1116   7.598   5.234   1.006 -1.2941 -1.6132  2.2970
    3MOL   H113 1117   7.383   5.213   0.847  1.4968  2.8339  2.3489
    3MOL   H114 1118   7.390   5.023   0.689 -0.3740  0.3172 -0.6873
    3MOL   H115 1119   7.228   5.048   0.762 -0.1007 -0.3478 -0.0787
    3MOL   H116 1120   7.188   4.838   0.819 -0.9757 -0.0845 -1.4982
    3MOL   H117 1121   7.347   4.782   0.823  0.5491  1.3834  0.1638
    3MOL   H118 1122   7.167   4.846   0.585 -0.0938  2.4362  1.7760
    3MOL   H119 1123   7.336   4.815   0.557  0.0309  0.4738 -0.0285
    3MOL   H120 1124   7.280   4.583   0.682 -0.6857 -0.1173  0.9322
    3MOL   H121 1125   7.124   4.623   0.686  1.1138 -0.2418  0.7682
    3MOL   H122 1126   7.124   4.630   0.427  0.5497  0.6662 -0.7483
    3MOL   H123 1127   7.297   4.596   0.440  0.7240  1.4758  1.1962
    3MOL   H124 1128   7.235   4.367   0.543  0.9225 -0.0309 -1.8181
    3MOL   H125 1129   7.072   4.408   0.542  1.4077 -2.6793  1.6717
    3MOL   H126 1130   7.147   4.387   0.392 -1.6294  0.2183  0.1524
    3MOL   C127 1131   7.336   5.184   1.049 -0.1882  0.3131  1.0183
    3MOL   C128 1132   7.369   5.326   1.100  0.5483 -0.0548 -0.8705
    3MOL   O129 1133   7.274   5.356   1.204 -0.2710  0.2781  0.4358
    3MOL   C130 1134   7.314   5.346   1.338 -0.7226 -0.3675 -0.7896
    3MOL   C131 1135   7.213   5.427   1.425  0.0159  0.8235 -0.1958
    3MOL   C132 1136   7.232   5.400   1.577  0.1028  0.3905  0.0538
    3MOL   C133 1137   7.131   5.482   1.656  0.3032  0.4713 -0.0847
    3MOL   C134 1138   7.165   5.637   1.663  0.6092  0.0887 -0.0107
    3MOL   C135 1139   7.303   5.676   1.721  0.0681 -1.0217  0.5776
    3MOL   H136 1140   7.229   5.179   1.027  0.1029 -3.4695  0.0311
    3MOL   H137 1141   7.353   5.105   1.122  0.7703 -0.2294  0.2274
    3MOL   H138 1142   7.466   5.331   1.150  0.2920  1.2158 -0.5057
    3MOL   H139 1143   7.412   5.393   1.348 -1.8082  1.6663  0.8341
    3MOL   H140 1144   7.327   5.240   1.361  2.3246  0.3231  0.9195
    3MOL   H141 1145   7.113   5.388   1.404  0.3027  0.0414 -0.1328
    3MOL   H142 1146   7.231   5.533   1.410  1.9735  0.2635 -1.9791
    3MOL   H143 1147   7.204   5.296   1.591 -3.3902  1.3151  0.4574
    3MOL   H144 1148   7.336   5.412   1.607 -0.0724  0.9886  0.4355
    3MOL   H145 1149   7.032   5.469   1.613 -0.2578  3.2815  0.2649
    3MOL   H146 1150   7.141   5.440   1.756  0.8460 -0.5275 -0.5453
    3MOL   H147 1151   7.151   5.676   1.563  0.2197  1.9430  0.7570
    3MOL   H148 1152   7.097   5.698   1.722 -0.8236 -1.3798 -0.1240
    3MOL   H149 1153   7.303   5.778   1.761 -1.1353 -0.8756  0.2228
    3MOL   H150 1154   7.334   5.613   1.804  0.0457  1.8956  2.8909
    3MOL   H151 1155   7.379   5.674   1.642 -1.1422  2.6628 -0.7966
    3MOL   C152 1156   7.357   5.437   0.991  0.4480 -0.0586 -0.2795
    3MOL   C153 1157   7.384   5.582   1.048 -0.2414  0.1332  0.3526
    3MOL   O154 1158   7.431   5.638   0.931  0.1592 -0.6418 -0.5554
    3MOL   C155 1159   7.562   5.691   0.946  0.2609 -0.3866  0.5041
    3MOL   C156 1160   7.596   5.792   0.833 -0.2576 -0.0700 -0.0513
    3MOL   C157 1161   7.738   5.852   0.822 -0.1767  0.6329  0.1125
    3MOL   C158 1162   7.756   5.936   0.696 -0.3659  0.1241 -0.1092
    3MOL   C159 1163   0.124   5.978   0.665 -0.2281  0.2621  0.6315
    3MOL   C160 1164   0.136   6.049   0.525  0.4167 -0.0416  0.7872
    3MOL   H161 1165   7.419   5.410   0.906  1.3777 -0.9630  0.6790
    3MOL   H162 1166   7.253   5.434   0.957  0.0295 -1.3823  1.0484
    3MOL   H163 1167   7.466   5.577   1.120  1.0959 -0.8278 -1.1931
    3MOL   H164 1168   7.646   5.622   0.940  0.0655 -0.5435 -0.5069
    3MOL   H165 1169   7.568   5.758   1.032 -3.3077  1.4916 -0.5780
    3MOL   H166 1170   7.521   5.871   0.833 -0.3028 -0.0942  1.0739
    3MOL   H167 1171   7.567   5.736   0.744 -2.6255  0.7909  0.1276
    3MOL   H168 1172   7.758   5.910   0.912 -0.4233  2.2440 -0.8580
    3MOL   H169 1173   0.031   5.771   0.805  0.3289  1.0872  0.0691
    3MOL   H170 1174   7.704   5.887   0.614 -2.2683  2.7511 -0.5438
    3MOL   H171 1175   7.705   6.032   0.706 -3.3541 -1.2095 -1.7799
    3MOL   H172 1176   0.138   6.053   0.743 -0.9841 -0.7224  1.7141
    3MOL   H173 1177   0.190   5.891   0.669 -2.1794 -1.3253 -1.0166
    3MOL   H174 1178   0.230   6.020   0.478 -0.4433 -2.0544  0.2892
    3MOL   H175 1179   0.063   6.009   0.455  1.0586  0.2899 -0.0808
    3MOL   H176 1180   0.117   6.157   0.531  0.8199 -0.0175  1.7383
    3MOL   C177 1181   7.255   5.661   1.097  0.1874  0.1523 -0.2459
    3MOL   C178 1182   7.284   5.805   1.158 -0.7455  0.3155 -0.8376
    3MOL   O179 1183   7.158   5.883   1.155 -0.2652 -0.0703 -0.5435
    3MOL   C180 1184   7.117   5.946   1.039 -0.4686  0.4730 -0.6054
    3MOL   C181 1185   7.040   6.073   1.078 -0.1435 -1.1111  0.4143
    3MOL   C182 1186   7.143   6.186   1.097 -0.3464 -0.0016 -0.2480
    3MOL   C183 1187   7.089   6.292   1.195 -0.1073  0.0913  0.1237
    3MOL   C184 1188   7.195   6.396   1.218  0.3142  0.7652  0.0657
    3MOL   C185 1189   7.151   6.528   1.282  0.4421 -0.3941  0.2805
    3MOL   H186 1190   7.190   5.679   1.011  0.5076 -1.9409 -0.9688
    3MOL   H187 1191   7.184   5.603   1.156  0.7555  1.6139  1.9037
    3MOL   H188 1192   7.361   5.861   1.105  0.6595 -0.1543  0.6738
    3MOL   H189 1193   7.061   5.879   0.974 -3.3870  1.5144  0.7449
    3MOL   H190 1194   7.195   5.984   0.973 -0.1849  0.0433 -0.5175
    3MOL   H191 1195   6.968   6.056   1.159  1.6910 -1.0808  2.0966
    3MOL   H192 1196   6.984   6.111   0.993  0.9368 -0.4884 -0.0216
    3MOL   H193 1197   7.236   6.150   1.142 -2.0468 -0.7188  2.8968
    3MOL   H194 1198   7.175   6.232   1.004 -0.5414 -0.1041 -0.3636
    3MOL   H195 1199   6.996   6.335   1.156 -1.2797 -2.9332 -0.5104
    3MOL   H196 1200   7.068   6.244   1.290 -0.0286 -0.8579 -0.3321
    3MOL   H197 1201   7.263   6.344   1.286 -1.8821 -0.3254  1.4766
    3MOL   H198 1202   7.258   6.408   1.130  0.4321 -1.6228 -0.2011
    3MOL   H199 1203   7.244   6.583   1.297  0.4096 -0.0071 -0.8683
    3MOL   H200 1204   7.090   6.590   1.217  1.3283 -0.2987 -0.4723
    3MOL   H201 1205   7.095   6.515   1.374  0.6679  0.6043  0.5657
    3MOL   C202 1206   7.335   5.788   1.307  0.1540 -0.0936 -0.5128
    3MOL   C203 1207   7.405   5.909   1.372  1.1409  0.0799 -0.4658
    3MOL   O204 1208   7.495   5.846   1.464 -0.0427 -0.6178 -0.6178
    3MOL   C205 1209   7.629   5.851   1.422 -1.4525  0.5915 -0.4117
    3MOL   C206 1210   7.717   5.794   1.539  0.4129  0.3715  0.2068
    3MOL   C207 1211   7.713   5.876   1.670  0.3600 -0.0814  0.3080
    3MOL   C208 1212   0.005   5.817   1.791 -0.1733 -0.1171  0.0544
    3MOL   C209 1213   7.770   5.890   1.922  0.3693  0.0410 -0.6077
    3MOL   C210 1214   0.105   5.852   2.022  0.2198  0.0452 -0.5747
    3MOL   H211 1215   7.245   5.767   1.364 -0.4442  3.2343 -0.1203
    3MOL   H212 1216   7.403   5.703   1.314 -1.5977 -1.4625  0.3903
    3MOL   H213 1217   7.461   5.974   1.304 -0.0408  2.0365  0.3838
    3MOL   H214 1218   7.670   5.952   1.410 -0.0617  0.0140 -0.6187
    3MOL   H215 1219   7.648   5.797   1.330  1.5159  1.3496 -0.2789
    3MOL   H216 1220   0.044   5.792   1.510 -0.3061  0.5832 -2.4629
    3MOL   H217 1221   7.685   5.693   1.563 -0.9810  0.8524  0.3785
    3MOL   H218 1222   7.758   5.973   1.650  1.3009 -0.4001  0.8283
    3MOL   H219 1223   7.610   5.901   1.692 -0.0715 -2.1260  0.7110
    3MOL   H220 1224   7.754   5.713   1.805  0.7192 -0.4091 -0.2137
    3MOL   H221 1225   0.111   5.807   1.768 -0.2162 -0.9683  0.1941
    3MOL   H222 1226   7.777   5.996   1.899 -0.8006  0.1807 -0.3746
    3MOL   H223 1227   7.669   5.876   1.961  0.5191 -1.1525 -0.6182
    3MOL   H224 1228   0.110   5.918   2.109 -1.3023 -0.8578  0.2253
    3MOL   H225 1229   0.077   5.753   2.060  0.0719  0.7593  1.2547
    3MOL   H226 1230   0.202   5.855   1.973 -0.4423  0.3701 -1.8880
    3MOL   C227 1231   7.306   6.005   1.447 -0.3033  0.2878  0.3497
    3MOL   C228 1232   7.374   6.119   1.521 -0.7782  0.0324  0.5141
    3MOL   O229 1233   7.445   6.189   1.421  0.2694  0.1256  0.9031
    3MOL   C230 1234   7.554   6.267   1.464 -0.9742 -0.0475 -0.2398
    3MOL   C231 1235   7.630   6.334   1.342 -0.1817 -0.1432  0.1256
    3MOL   C232 1236   7.651   6.236   1.223 -0.2650 -0.4373 -0.2844
    3MOL   C233 1237   7.533   6.237   1.122  0.4980  0.1353 -1.2387
    3MOL   C234 1238   7.562   6.185   0.984 -0.1709  0.2543  0.8308
    3MOL   C235 1239   7.634   6.289   0.902 -0.1820 -0.0610 -0.4488
    3MOL   H236 1240   7.230   6.053   1.385  0.2600 -0.6422 -1.0957
    3MOL   H237 1241   7.245   5.949   1.517 -2.7730 -0.0098 -1.9517
    3MOL   H238 1242   7.450   6.074   1.584  1.1829  2.2538 -0.1890
    3MOL   H239 1243   7.614   6.198   1.524 -1.8026  0.0220  0.6744
    3MOL   H240 1244   7.512   6.347   1.525  1.3576  1.5296 -0.6704
    3MOL   H241 1245   7.722   6.370   1.389 -0.3503  1.2431 -0.5670
    3MOL   H242 1246   7.586   6.429   1.311 -0.7962 -0.1009  1.1291
    3MOL   H243 1247   7.742   6.262   1.169 -1.2986 -0.6701 -2.1593
    3MOL   H244 1248   7.666   6.136   1.262  1.3097 -0.3658 -0.6578
    3MOL   H245 1249   7.449   6.181   1.163  0.5469  0.2449 -0.9895
    3MOL   H246 1250   7.493   6.338   1.113  0.4642  0.4285  1.7934
    3MOL   H247 1251   7.611   6.088   0.989 -0.5755 -0.0276 -0.3444
    3MOL   H248 1252   7.470   6.168   0.928  0.2586  0.5293  0.0353
    3MOL   H249 1253   7.724   6.326   0.950 -0.6231  2.5340 -1.5591
    3MOL   H250 1254   7.648   6.259   0.798 -0.9932 -3.6599  0.3871
    3MOL   H251 1255   7.570   6.377   0.897  0.3402  0.3451 -0.0363
    3MOL   C252 1256   7.284   6.214   1.592  0.1423  0.3733 -0.2008
    3MOL   C253 1257   7.196   6.157   1.701 -0.3684  0.5335 -0.2772
    3MOL   O254 1258   7.274   6.072   1.787 -0.1590 -0.0909 -1.0050
    3MOL   C255 1259   7.304   6.120   1.918 -0.1612  0.0115 -0.0184
    3MOL   C256 1260   7.390   6.243   1.923 -0.1974  0.0045 -0.1677
    3MOL   C257 1261   7.525   6.210   1.864  0.3392 -0.7448 -0.0557
    3MOL   C258 1262   7.617   6.329   1.849  0.2549 -0.4213 -0.3012
    3MOL   C259 1263   7.747   6.280   1.799  0.4477 -0.0842  0.3714
    3MOL   C260 1264   0.058   6.396   1.743  0.2902  0.0552 -0.3552
    3MOL   H261 1265   7.357   6.283   1.634 -0.3393  1.1429 -0.6168
    3MOL   H262 1266   7.230   6.278   1.521  0.1092  0.4559 -0.1003
    3MOL   H263 1267   7.161   6.246   1.755 -1.3409  0.0322 -0.0719
    3MOL   H264 1268   7.352   6.038   1.970  0.3101  0.0949 -0.3193
    3MOL   H265 1269   7.210   6.130   1.972  0.0102 -1.5380  0.5757
    3MOL   H266 1270   7.411   6.269   2.027 -1.9681  2.6694 -0.4162
    3MOL   H267 1271   7.343   6.321   1.863 -0.6383 -0.3805 -0.3264
    3MOL   H268 1272   7.580   6.134   1.919  0.2072 -0.9888 -0.2574
    3MOL   H269 1273   7.510   6.161   1.768  0.7616 -0.7625 -0.1142
    3MOL   H270 1274   7.578   6.397   1.774  1.9274 -0.3244 -1.1202
    3MOL   H271 1275   7.642   6.379   1.943 -1.6575  0.2389 -0.1178
    3MOL   H272 1276   0.032   6.236   1.875 -0.0489 -2.1364 -0.3813
    3MOL   H273 1277   7.734   6.220   1.709 -0.4162 -1.3659  1.3418
    3MOL   H274 1278   0.104   6.462   1.816  2.3564  0.1752 -1.7097
    3MOL   H275 1279   0.131   6.337   1.687  0.3588  0.1958 -0.4120
    3MOL   H276 1280   0.008   6.455   1.666  0.4972 -2.3629 -2.4432
    3MOL   C277 1281   7.072   6.078   1.674 -0.3771 -0.1994  0.1241
    3MOL   C278 1282   6.974   6.123   1.561 -0.1263 -0.3122 -0.4735
    3MOL   O279 1283   6.876   6.025   1.571  0.0431 -0.3858 -0.8168
    3MOL   C280 1284   6.883   5.927   1.461  0.2197  0.4666  0.4503
    3MOL   C281 1285   6.823   5.801   1.528  0.4841  0.0838  0.1383
    3MOL   C282 1286   6.808   5.683   1.438  0.9973  0.3633  0.4317
    3MOL   C283 1287   6.729   5.570   1.501  0.1007 -1.1831 -0.2661
    3MOL   C284 1288   6.728   5.450   1.409  0.1826  0.0325  0.1171
    3MOL   C285 1289   6.688   5.314   1.474  0.6415  0.5012 -0.3440
    3MOL   H286 1290   7.099   5.973   1.667 -1.5308 -0.4846 -0.2721
    3MOL   H287 1291   7.014   6.076   1.767 -0.3664  1.3404  0.1777
    3MOL   H288 1292   7.026   6.115   1.466  2.0126 -4.9655  0.9476
    3MOL   H289 1293   6.976   5.914   1.405 -1.6855 -0.8879 -2.4991
    3MOL   H290 1294   6.814   5.952   1.381  0.4653  1.8905  0.6671
    3MOL   H291 1295   6.724   5.808   1.573 -0.0992 -0.4973 -1.0567
    3MOL   H292 1296   6.896   5.770   1.603  0.5939 -0.6738 -0.2741
    3MOL   H293 1297   6.761   5.722   1.347  0.5264 -0.5931  0.2576
    3MOL   H294 1298   6.913   5.661   1.417  1.0591  1.1761 -0.1209
    3MOL   H295 1299   6.782   5.543   1.592 -0.2641 -0.7030  0.0897
    3MOL   H296 1300   6.634   5.609   1.538 -0.7603  0.1423 -3.6544
    3MOL   H297 1301   6.692   5.472   1.309 -1.9001  0.5618  0.9642
    3MOL   H298 1302   6.835   5.431   1.395  0.5959  1.8886  0.5701
    3MOL   H299 1303   6.692   5.246   1.389  1.8424 -0.3042  0.3453
    3MOL   H300 1304   6.759   5.277   1.547  0.5745 -0.1095 -0.5852
    3MOL   H301 1305   6.583   5.318   1.504  0.8673 -1.1634  0.6617
    3MOL   C302 1306   6.920   6.266   1.585 -0.1493  0.1786 -0.6915
    3MOL   C303 1307   6.823   6.323   1.476  0.3099 -0.1859 -0.2181
    3MOL   O304 1308   6.813   6.462   1.481 -0.4457  0.0596  0.3622
    3MOL   C305 1309   6.762   6.527   1.360  0.2534 -0.5348  0.2546
    3MOL   C306 1310   6.783   6.681   1.363 -0.1512  0.0524 -0.1889
    3MOL   C307 1311   6.744   6.760   1.237 -0.6253 -0.9475 -0.3745
    3MOL   C308 1312   6.784   6.910   1.247 -0.4334  0.6380  0.3047
    3MOL   C309 1313   6.761   6.995   1.127  0.5172 -0.6898  0.0982
    3MOL   C310 1314   6.613   6.993   1.071  0.1685 -0.1372  0.0974
    3MOL   H311 1315   6.870   6.271   1.681  0.8304  0.2675 -0.1743
    3MOL   H312 1316   7.002   6.337   1.574  1.0849 -1.2923 -1.1844
    3MOL   H313 1317   6.864   6.295   1.380  0.0914 -0.4832 -0.2254
    3MOL   H314 1318   6.658   6.502   1.339  0.7492 -0.8836 -1.8778
    3MOL   H315 1319   6.819   6.496   1.273  1.1458  1.0957  0.2285
    3MOL   H316 1320   6.886   6.703   1.391  0.7200 -1.7515 -1.8312
    3MOL   H317 1321   6.722   6.724   1.442 -0.6680  0.4551 -0.8042
    3MOL   H318 1322   6.799   6.719   1.152  2.1287 -0.8015  1.2842
    3MOL   H319 1323   6.636   6.757   1.222 -0.4519  1.3294 -2.2808
    3MOL   H320 1324   6.732   6.953   1.332  0.1833  1.2949  0.3523
    3MOL   H321 1325   6.888   6.922   1.278 -0.0714 -1.8656  0.2267
    3MOL   H322 1326   6.806   7.094   1.132  0.2765 -0.5796  0.1161
    3MOL   H323 1327   6.815   6.950   1.043 -0.7042 -1.5563 -0.2411
    3MOL   H324 1328   6.588   7.061   0.990 -0.8609  1.4622  1.7234
    3MOL   H325 1329   6.580   6.900   1.025 -0.0117 -0.6512  1.2495
    3MOL   H326 1330   6.545   7.024   1.150 -0.9947 -5.3361  1.2887
    3MOL   C327 1331   6.683   6.256   1.470 -0.1497 -0.3880 -0.6347
    3MOL   C328 1332   6.584   6.270   1.594 -0.8643 -0.1136  0.0148
    3MOL   O329 1333   6.515   6.389   1.572 -0.3229  0.5361 -0.7978
    3MOL   C330 1334   6.559   6.489   1.666 -0.8257 -0.2675 -0.6992
    3MOL   C331 1335   6.456   6.611   1.667 -0.3712 -0.1776 -0.6606
    3MOL   C332 1336   6.423   6.667   1.527 -0.3691  0.5340 -0.1301
    3MOL   C333 1337   6.386   6.813   1.518  0.1558 -0.1847 -0.1231
    3MOL   C334 1338   6.340   6.857   1.374 -0.1370  0.2762  0.0334
    3MOL   C335 1339   6.299   7.006   1.372 -0.4127 -0.3793  0.0202
    3MOL   H336 1340   6.704   6.150   1.457 -2.2908 -0.4737 -3.7438
    3MOL   H337 1341   6.623   6.281   1.383 -2.2442  0.8258  1.1103
    3MOL   H338 1342   6.647   6.268   1.683 -0.0896 -0.3673 -0.5354
    3MOL   H339 1343   6.650   6.538   1.631 -0.1155  1.4926  3.3286
    3MOL   H340 1344   6.584   6.448   1.764 -0.2767 -2.0656 -1.5733
    3MOL   H341 1345   6.493   6.682   1.741 -0.9792  1.3991 -1.8420
    3MOL   H342 1346   6.363   6.568   1.706 -0.4345  1.1222  0.6628
    3MOL   H343 1347   6.512   6.652   1.465  0.3243 -1.9824  1.3813
    3MOL   H344 1348   6.354   6.605   1.470 -0.5357  0.7256 -0.1353
    3MOL   H345 1349   6.304   6.829   1.588 -0.3796 -3.0316 -0.0464
    3MOL   H346 1350   6.474   6.867   1.552 -1.3389  1.4413  1.2901
    3MOL   H347 1351   6.415   6.828   1.300 -0.0197  0.8185 -0.0660
    3MOL   H348 1352   6.259   6.791   1.344 -1.1772  0.6328  1.9760
    3MOL   H349 1353   6.268   7.052   1.278 -2.1870  1.8749  1.6636
    3MOL   H350 1354   6.225   7.033   1.447 -0.6947 -1.3916  0.1168
    3MOL   H351 1355   6.383   7.067   1.404 -1.8743  0.9972  1.2859
    3MOL   C352 1356   6.470   6.173   1.609  0.2923 -0.0835  0.2706
    3MOL   C353 1357   6.509   6.026   1.635  0.0904 -0.1462 -0.8580
    3MOL   O354 1358   6.411   5.938   1.578 -0.6011  0.0468  0.8498
    3MOL   C355 1359   6.410   5.911   1.436 -0.4263 -0.3238  0.2072
    3MOL   C356 1360   6.291   5.820   1.404 -0.8369  0.5093  0.1333
    3MOL   C357 1361   6.279   5.698   1.494 -0.1764 -0.1580  0.6883
    3MOL   C358 1362   6.149   5.617   1.472  0.5529  0.0368 -0.0829
    3MOL   C359 1363   6.150   5.500   1.564 -0.2148 -0.3363  0.1331
    3MOL   C360 1364   6.041   5.405   1.541  0.5356  0.8783  0.1570
    3MOL   H361 1365   6.414   6.214   1.693  0.6442  0.4662  0.2390
    3MOL   H362 1366   6.406   6.175   1.521  0.6919 -0.1349 -0.0252
    3MOL   H363 1367   6.611   6.002   1.606  0.5445  2.3244 -1.4051
    3MOL   H364 1368   6.496   5.849   1.412 -1.5756 -1.5302 -0.8568
    3MOL   H365 1369   6.399   5.998   1.371  0.5761  0.4846  1.0980
    3MOL   H366 1370   6.303   5.766   1.310 -0.9550  1.4362 -0.4192
    3MOL   H367 1371   6.193   5.866   1.422 -1.8632 -0.7986 -1.9094
    3MOL   H368 1372   6.363   5.630   1.488  1.0161  1.4010 -0.6488
    3MOL   H369 1373   6.285   5.736   1.596 -1.6361 -0.9263  1.0855
    3MOL   H370 1374   6.059   5.678   1.474 -0.1476 -1.0224  1.7978
    3MOL   H371 1375   6.149   5.572   1.373  0.0538 -0.3046  0.0736
    3MOL   H372 1376   6.246   5.450   1.560 -0.0892 -0.0948  0.1267
    3MOL   H373 1377   6.134   5.539   1.665  2.1879  1.0010  0.0353
    3MOL   H374 1378   6.037   5.361   1.441 -1.9056  0.5388  0.3588
    3MOL   H375 1379   6.042   5.323   1.613  1.3730  0.8791  0.1508
    3MOL   H376 1380   5.945   5.448   1.570  0.0593 -1.9938  3.2887
    3MOL   C377 1381   6.500   5.997   1.788  0.0365  0.2659  0.4294
    3MOL   C378 1382   6.613   6.049   1.887  0.2930 -0.2903  0.2445
    3MOL   O379 1383   6.633   5.961   2.000  0.1674  0.2050 -0.2717
    3MOL   C380 1384   6.700   5.844   1.975  0.4900  0.3934  0.4912
    3MOL   C381 1385   6.850   5.857   2.003 -1.4450  0.6634 -0.4792
    3MOL   C382 1386   6.924   5.722   2.009 -0.2409  0.4291 -0.0960
    3MOL   C383 1387   7.076   5.728   2.045 -0.6854  0.3099  0.1438
    3MOL   C384 1388   7.118   5.806   2.171 -0.3766 -0.1530  0.3743
    3MOL   C385 1389   7.271   5.822   2.184  0.7275 -0.6630  0.7339
    3MOL   H386 1390   6.403   6.006   1.836  0.1711 -2.5306  1.3686
    3MOL   H387 1391   6.507   5.888   1.786  1.9140  0.3847 -0.6468
    3MOL   H388 1392   6.709   6.061   1.837  0.8288  6.6250  2.4016
    3MOL   H389 1393   6.686   5.804   1.874 -0.7145 -1.1833  1.2782
    3MOL   H390 1394   6.665   5.768   2.044 -0.8702 -0.3131 -0.9431
    3MOL   H391 1395   6.844   5.898   2.104  1.8242 -1.1744  0.5427
    3MOL   H392 1396   6.893   5.933   1.936 -0.0103  1.5868  1.4435
    3MOL   H393 1397   6.875   5.665   2.087  2.0665  0.1296  1.1807
    3MOL   H394 1398   6.899   5.671   1.916  1.6702 -0.7295 -0.0096
    3MOL   H395 1399   7.116   5.627   2.048 -1.5355 -0.0065  1.0320
    3MOL   H396 1400   7.125   5.781   1.963  2.9754  0.1506  2.1173
    3MOL   H397 1401   7.068   5.903   2.166  0.9203  0.4365 -2.6963
    3MOL   H398 1402   7.079   5.754   2.259 -0.9173  0.0352  0.2478
    3MOL   H399 1403   7.313   5.830   2.084  1.8988  1.3072  1.3699
    3MOL   H400 1404   7.296   5.909   2.244 -2.0753 -0.1557  1.2394
    3MOL   H401 1405   7.314   5.734   2.232  2.9300  0.2005  0.4051
    3MOL   C402 1406   6.569   6.179   1.947  0.3276 -0.0291 -0.4312
    3MOL   C403 1407   6.683   6.257   2.025  0.7843 -0.0533 -0.1308
    3MOL   O404 1408   6.628   6.378   2.097  0.1656  0.0431  0.1853
    3MOL   C405 1409   6.549   6.355   2.204 -0.6574  0.5421  0.1709
    3MOL   C406 1410   6.538   6.486   2.288  0.1681  0.6249  0.2119
    3MOL   C407 1411   6.673   6.527   2.343  0.0361 -0.1328 -0.6555
    3MOL   C408 1412   6.653   6.636   2.447  0.0435  0.8312  0.1065
    3MOL   C409 1413   6.781   6.681   2.518 -0.2905 -1.3044 -0.0390
    3MOL   C410 1414   6.762   6.819   2.588 -0.8240 -0.0601 -0.2509
    3MOL   H411 1415   6.491   6.154   2.020  1.7761 -0.2011  1.0767
    3MOL   H412 1416   6.518   6.243   1.874  1.3343 -0.1833 -1.2763
    3MOL   H413 1417   6.722   6.205   2.113  2.5103  2.2987  0.5445
    3MOL   H414 1418   6.581   6.270   2.264 -2.2823  1.0979  1.8785
    3MOL   H415 1419   6.452   6.324   2.164  0.3086 -0.1928 -1.6480
    3MOL   H416 1420   6.469   6.456   2.366 -2.3947 -3.3988 -3.4070
    3MOL   H417 1421   6.499   6.569   2.229  0.5398  0.4578 -0.2764
    3MOL   H418 1422   6.708   6.445   2.405  0.0602  0.8054  0.5959
    3MOL   H419 1423   6.751   6.550   2.271 -0.4317  1.0624 -0.8001
    3MOL   H420 1424   6.609   6.717   2.390 -2.0900 -0.7994 -0.6212
    3MOL   H421 1425   6.580   6.611   2.524 -0.6977  0.3778 -0.7269
    3MOL   H422 1426   6.823   6.597   2.573  0.4390 -2.4977 -2.3534
    3MOL   H423 1427   6.865   6.681   2.449  1.2294 -0.1383  1.7566
    3MOL   H424 1428   6.850   6.881   2.605 -2.8397  3.2141 -1.1293
    3MOL   H425 1429   6.696   6.869   2.517 -1.1990 -0.9081 -0.5080
    3MOL   H426 1430   6.710   6.813   2.683 -0.0211  0.2979  0.2154
    3MOL   C427 1431   6.799   6.307   1.934  0.0504 -0.8841 -0.3836
    3MOL   C428 1432   6.919   6.382   1.996 -0.3330 -0.6385  1.0763
    3MOL   O429 1433   7.009   6.284   2.048 -0.6936  0.1912  0.1985
    3MOL   C430 1434   6.971   6.226   2.170  0.4616 -0.2001  0.3058
    3MOL   C431 1435   7.087   6.191   2.257 -1.0249  0.1397 -0.1595
    3MOL   C432 1436   7.035   6.123   2.387  0.0704  0.1484  0.2718
    3MOL   C433 1437   6.983   6.212   2.506 -0.7245  0.8858  0.5232
    3MOL   C434 1438   6.934   6.125   2.623  0.8043 -0.3631 -0.2476
    3MOL   C435 1439   6.923   6.212   2.752 -0.2651  0.3146  0.4804
    3MOL   H436 1440   6.845   6.223   1.883  0.1137 -0.0722 -1.6946
    3MOL   H437 1441   6.754   6.358   1.849 -0.3664 -1.2163 -0.3621
    3MOL   H438 1442   6.880   6.444   2.076 -1.5314  1.9526 -1.4249
    3MOL   H439 1443   6.907   6.139   2.157  0.1257  0.3325 -2.0538
    3MOL   H440 1444   6.908   6.294   2.227  0.5941 -0.2591  0.5190
    3MOL   H441 1445   7.161   6.269   2.276 -0.8191 -0.3610  1.0990
    3MOL   H442 1446   7.150   6.117   2.208  2.5230  1.7078  1.8273
    3MOL   H443 1447   6.964   6.047   2.356  0.9604 -0.7083  0.2912
    3MOL   H444 1448   7.120   6.071   2.431  2.0831  1.5336 -1.8471
    3MOL   H445 1449   7.062   6.275   2.546 -0.4051  0.5755  0.3842
    3MOL   H446 1450   6.917   6.283   2.456 -0.9929  1.7569  2.1093
    3MOL   H447 1451   6.840   6.072   2.612 -0.1126  0.9802  0.9863
    3MOL   H448 1452   7.004   6.042   2.634 -0.1989 -1.4900 -2.1393
    3MOL   H449 1453   6.860   6.299   2.731  1.1411  1.2739  0.1140
    3MOL   H450 1454   6.883   6.163   2.841 -2.7267 -0.8238 -1.2076
    3MOL   H451 1455   7.024   6.246   2.773 -0.1103  0.9833 -1.2549
    3MOL   C452 1456   6.984   6.469   1.893  0.1740  0.6501  0.2257
    3MOL   C453 1457   7.085   6.569   1.953 -0.5046  0.4881  0.0939
    3MOL   O454 1458   7.018   6.672   2.025 -0.4613  0.1484 -0.3070
    3MOL   C455 1459   7.063   6.702   2.152  0.5026  0.2274  1.0069
    3MOL   C456 1460   6.980   6.826   2.182  0.2155  0.4982 -0.0581
    3MOL   C457 1461   7.009   6.892   2.318  0.1062  0.8380  0.0769
    3MOL   C458 1462   6.928   7.013   2.331 -0.3778 -0.8553 -0.1078
    3MOL   C459 1463   6.980   7.112   2.430  0.2940  0.6457  0.0651
    3MOL   C460 1464   6.911   7.250   2.406  0.4054  0.4305 -0.4804
    3MOL   H461 1465   7.022   6.412   1.808 -4.1888 -1.4439 -0.4523
    3MOL   H462 1466   6.901   6.519   1.844 -0.2207  1.4916  1.7187
    3MOL   H463 1467   7.160   6.517   2.013 -0.6308 -0.8574 -0.8954
    3MOL   H464 1468   7.170   6.722   2.161  0.8336 -0.3628 -1.3168
    3MOL   H465 1469   7.038   6.630   2.230  1.8481 -1.6603 -0.2793
    3MOL   H466 1470   6.874   6.806   2.165 -0.5780  3.0404  1.6658
    3MOL   H467 1471   7.010   6.902   2.110 -1.3947  1.5251  0.3301
    3MOL   H468 1472   7.001   6.830   2.408 -0.7585  0.6982 -0.0894
    3MOL   H469 1473   7.115   6.916   2.322  0.3903 -0.4773  1.1626
    3MOL   H470 1474   6.925   7.057   2.231  0.0236 -1.3335 -0.3261
    3MOL   H471 1475   6.825   6.981   2.347 -0.9818  1.1931  0.3670
    3MOL   H472 1476   6.968   7.073   2.531 -1.4387  1.5057  0.2023
    3MOL   H473 1477   7.087   7.115   2.409 -0.0755  1.5725 -1.7360
    3MOL   H474 1478   6.930   7.323   2.485  1.0976 -2.6849  2.2995
    3MOL   H475 1479   6.938   7.298   2.312 -0.1307  0.2122 -0.7479
    3MOL   H476 1480   6.803   7.246   2.393  0.4338 -0.0603 -0.5547
    3MOL   C477 1481   7.166   6.651   1.841  0.4840  0.1274 -0.1442
    3MOL   C478 1482   7.254   6.769   1.880 -1.2660 -0.2249  0.2738
    3MOL   O479 1483   7.376   6.719   1.935  0.3598  0.3297  0.1630
    3MOL   C480 1484   7.454   6.806   2.005  0.5183  0.6649  0.0234
    3MOL   C481 1485   7.547   6.884   1.913  0.6967  0.2385 -0.3132
    3MOL   C482 1486   7.638   6.786   1.839 -0.4472 -0.1227  0.0394
    3MOL   C483 1487   7.699   6.859   1.718 -0.2492 -0.0009  0.0660
    3MOL   C484 1488   0.008   6.767   1.624 -0.8942 -0.2602 -0.0490
    3MOL   C485 1489   0.055   6.833   1.490 -0.0682  0.4362  0.4941
    3MOL   H486 1490   7.217   6.576   1.780 -1.1473 -0.4738 -0.7933
    3MOL   H487 1491   7.092   6.700   1.778 -0.1198 -0.8748 -0.2339
    3MOL   H488 1492   7.286   6.816   1.788  0.7754 -0.3875  0.8786
    3MOL   H489 1493   7.518   6.747   2.071  0.2382  1.3872  0.9506
    3MOL   H490 1494   7.395   6.864   2.076  3.0633  0.9981  1.9143
    3MOL   H491 1495   7.611   6.955   1.964 -0.2028  0.6752  0.2126
    3MOL   H492 1496   7.490   6.943   1.841 -1.0494 -1.3649 -0.3040
    3MOL   H493 1497   7.712   6.750   1.910 -1.5167 -1.8273  0.3171
    3MOL   H494 1498   7.581   6.702   1.797  0.2115 -0.3570 -0.3931
    3MOL   H495 1499   7.616   6.904   1.663 -1.6607 -0.1666  2.0262
    3MOL   H496 1500   7.751   6.946   1.760 -1.5814  0.0055  1.7229
    3MOL   H497 1501   0.091   6.738   1.689 -1.9598 -1.9168  0.5869
    3MOL   H498 1502   7.740   6.673   1.593 -1.0584  0.7984 -3.1729
    3MOL   H499 1503   0.121   6.763   1.437  0.5143 -1.5085  3.6507
    3MOL   H500 1504   7.747   6.858   1.429 -0.1039 -0.2330  0.2584
    3MOL   H501 1505   0.121   6.918   1.508  0.6908 -0.2361  0.9628
    3MOL   H502 1506   7.201   6.837   1.947 -0.9309  0.2129  0.0906
    4MOL     C1 1507   4.559   5.407   6.436  0.2786 -0.1669  0.2732
    4MOL     C2 1508   4.455   5.483   6.350  0.2414 -1.0010  0.5073
    4MOL     O3 1509   4.537   5.582   6.283  0.6327  0.2467 -0.1781
    4MOL     C4 1510   4.615   5.542   6.172 -0.0334 -0.1825  0.0920
    4MOL     C5 1511   4.523   5.525   6.056  0.1174 -0.4876  0.3460
    4MOL     C6 1512   4.579   5.557   5.919 -0.3332  0.6295  0.3130
    4MOL     C7 1513   4.475   5.566   5.800 -0.5070  0.2979 -1.0348
    4MOL     C8 1514   4.534   5.598   5.658  0.6065 -0.4609  0.4313
    4MOL     C9 1515   4.528   5.746   5.615  0.2625  0.1704 -0.5129
    4MOL    H10 1516   4.606   5.335   6.368  0.0541  0.9493 -1.1021
    4MOL    H11 1517   4.632   5.471   6.484 -0.4932 -0.1668  1.4532
    4MOL    H12 1518   4.404   5.421   6.276  1.0900 -0.6838 -0.3494
    4MOL    H13 1519   4.684   5.458   6.186  1.0008  0.3773 -1.5186
    4MOL    H14 1520   4.686   5.619   6.143  1.2190 -1.4767 -0.3332
    4MOL    H15 1521   4.433   5.586   6.063  0.3231  0.3130 -3.1029
    4MOL    H16 1522   4.481   5.426   6.042 -2.5142  0.4635  1.1837
    4MOL    H17 1523   4.634   5.649   5.935  0.0159  0.1968  1.7147
    4MOL    H18 1524   4.659   5.485   5.901 -1.3128 -0.1941 -0.8099
    4MOL    H19 1525   4.426   5.469   5.791  1.6807 -1.0655  1.1138
    4MOL    H20 1526   4.397   5.637   5.827 -0.0944  0.4795 -0.3224
    4MOL    H21 1527   4.465   5.549   5.591  0.4825 -0.3439  0.4727
    4MOL    H22 1528   4.634   5.555   5.647  0.1392 -1.6187  0.6625
    4MOL    H23 1529   4.578   5.750   5.518  0.1281 -0.4166 -0.6046
    4MOL    H24 1530   4.428   5.783   5.595  0.3903  0.5359 -0.4874
    4MOL    H25 1531   4.581   5.819   5.677 -0.8914  1.2233 -0.7354
    4MOL    H26 1532   4.507   5.355   6.516 -0.0646  4.7276  3.4333
    4MOL    C27 1533   4.361   5.556   6.455  0.4870  0.9715  0.6494
    4MOL    C28 1534   4.235   5.614   6.393 -0.3449  0.2025 -0.2105
    4MOL    O29 1535   4.175   5.519   6.306  0.1866  0.2106  0.3911
    4MOL    C30 1536   4.118   5.588   6.194  0.3164 -0.3167  0.5220
    4MOL    C31 1537   4.034   5.487   6.109 -0.2148 -0.0718 -0.1294
    4MOL    C32 1538   4.122   5.387   6.038 -0.3401  0.3771  0.3916
    4MOL    C33 1539   4.080   5.328   5.900 -0.2759  0.1697  0.8055
    4MOL    C34 1540   4.159   5.208   5.854  0.4742  0.0897 -0.2174
    4MOL    C35 1541   4.112   5.169   5.714 -0.1360  0.6244  0.2662
    4MOL    H36 1542   4.321   5.489   6.531 -0.2223  0.1128 -0.4609
    4MOL    H37 1543   4.418   5.633   6.507  0.9079  0.5682  0.7799
    4MOL    H38 1544   4.274   5.704   6.346 -0.4430  1.0037  1.2116
    4MOL    H39 1545   4.193   5.643   6.137  1.0114 -1.3268  0.4637
    4MOL    H40 1546   4.034   5.646   6.233 -0.0325  0.4950 -1.3380
    4MOL    H41 1547   3.987   5.543   6.028 -1.8632 -0.0507  0.8274
    4MOL    H42 1548   3.955   5.443   6.170 -0.4340  0.8870  0.2842
    4MOL    H43 1549   4.221   5.433   6.034 -0.4366  0.7394  2.0843
    4MOL    H44 1550   4.124   5.304   6.108 -0.7312 -0.5611 -0.6963
    4MOL    H45 1551   3.980   5.285   5.894 -0.3128  0.3035  0.4703
    4MOL    H46 1552   4.086   5.404   5.822 -3.4225 -1.6522 -1.3188
    4MOL    H47 1553   4.266   5.223   5.852  0.4490  0.1733 -0.8828
    4MOL    H48 1554   4.131   5.130   5.926 -0.6102 -0.4598 -1.2033
    4MOL    H49 1555   4.153   5.234   5.636 -1.0944 -0.2869 -1.0159
    4MOL    H50 1556   4.146   5.071   5.681 -0.7064  0.4890  0.0770
    4MOL    H51 1557   4.003   5.173   5.717 -0.1362  0.3125  0.6334
    4MOL    C52 1558   4.134   5.650   6.506  0.0729 -0.0776 -0.8277
    4MOL    C53 1559   4.187   5.778   6.587 -0.5155  0.8555 -0.2174
    4MOL    O54 1560   4.168   5.898   6.518 -0.6069  0.1011 -0.1003
    4MOL    C55 1561   4.267   5.995   6.544  0.7336 -0.1190  0.1579
    4MOL    C56 1562   4.237   6.129   6.485  0.3618 -0.4347  0.9420
    4MOL    C57 1563   4.358   6.225   6.517  0.3845 -0.4926  0.3533
    4MOL    C58 1564   4.333   6.362   6.460 -0.3031  0.0852  0.2616
    4MOL    C59 1565   4.445   6.460   6.486 -0.1927 -1.0048 -0.2158
    4MOL    C60 1566   4.453   6.510   6.626  0.3685 -0.1396  0.7758
    4MOL    H61 1567   4.129   5.563   6.571 -1.5411 -0.5270 -1.5158
    4MOL    H62 1568   4.035   5.665   6.462  0.4224 -1.6395 -2.1779
    4MOL    H63 1569   4.295   5.768   6.601 -0.3440 -0.2830 -2.1787
    4MOL    H64 1570   4.363   5.971   6.497  1.2045 -0.5087  1.2981
    4MOL    H65 1571   4.290   6.000   6.650  2.5519 -1.2651 -0.1567
    4MOL    H66 1572   4.142   6.168   6.520 -0.1791 -1.3931  0.5529
    4MOL    H67 1573   4.220   6.124   6.377 -2.2462  1.2509  1.2523
    4MOL    H68 1574   4.365   6.229   6.626  1.1414  0.8306  0.2654
    4MOL    H69 1575   4.454   6.187   6.481 -0.0066  0.1933 -1.4590
    4MOL    H70 1576   4.317   6.356   6.353 -3.4877 -0.5657  0.7356
    4MOL    H71 1577   4.233   6.391   6.493 -0.7229  0.9095 -1.6835
    4MOL    H72 1578   4.540   6.421   6.451  0.0550  0.0801 -0.7764
    4MOL    H73 1579   4.437   6.540   6.413  0.0969 -0.8766 -0.1044
    4MOL    H74 1580   4.359   6.562   6.643 -0.2851  0.3643 -3.9239
    4MOL    H75 1581   4.478   6.428   6.694  1.2356 -0.4991  0.0342
    4MOL    H76 1582   4.533   6.582   6.634 -0.1066  0.5487 -0.5677
    4MOL    C77 1583   4.113   5.793   6.726 -0.6656  0.3947  0.4518
    4MOL    C78 1584   4.089   5.665   6.810 -0.3351 -0.3329  0.4182
    4MOL    O79 1585   3.999   5.694   6.916 -0.0105  0.3657  0.1578
    4MOL    C80 1586   3.864   5.681   6.883 -0.6496  0.4668 -0.5645
    4MOL    C81 1587   3.780   5.722   7.002 -0.6788 -0.3151  0.4929
    4MOL    C82 1588   3.632   5.690   6.979 -0.3262 -0.4694  0.3054
    4MOL    C83 1589   3.560   5.809   6.907 -0.0682  0.0473 -0.6099
    4MOL    C84 1590   3.540   5.932   7.002 -0.0755 -0.0492 -0.3366
    4MOL    C85 1591   3.446   6.033   6.943 -0.0345  0.3562 -0.1314
    4MOL    H86 1592   4.016   5.836   6.702 -0.8520 -0.1866  0.1395
    4MOL    H87 1593   4.173   5.869   6.776  2.2513 -0.4478 -1.5975
    4MOL    H88 1594   4.051   5.588   6.743 -0.9576  0.7327 -0.4752
    4MOL    H89 1595   3.863   5.576   6.851 -0.4811 -0.2103  1.5553
    4MOL    H90 1596   3.852   5.753   6.802  0.0010 -0.0300 -1.1073
    4MOL    H91 1597   3.794   5.826   7.034  0.2588 -0.6323  1.1357
    4MOL    H92 1598   3.823   5.661   7.081 -1.6951 -1.5450  0.1094
    4MOL    H93 1599   3.619   5.599   6.919 -0.5691  0.8856 -1.7614
    4MOL    H94 1600   3.575   5.683   7.072 -1.4216  1.8529 -0.1392
    4MOL    H95 1601   3.600   5.829   6.808  1.9948 -4.3451 -0.7540
    4MOL    H96 1602   3.461   5.766   6.892 -0.8816  0.7791  2.2184
    4MOL    H97 1603   3.486   5.892   7.088 -0.0698 -1.9187 -1.1626
    4MOL    H98 1604   3.632   5.980   7.035  0.4162 -0.5672 -0.9416
    4MOL    H99 1605   3.481   6.073   6.848  0.7127  0.5635  0.2323
    4MOL   H100 1606   3.350   5.996   6.908  0.0051  3.0049 -3.2886
    4MOL   H101 1607   3.431   6.118   7.009  2.1579  0.4994  0.2342
    4MOL   C102 1608   4.222   5.610   6.873 -0.0071  0.1640 -0.0844
    4MOL   C103 1609   4.195   5.473   6.937 -0.3415 -0.4214 -0.1473
    4MOL   O104 1610   4.196   5.379   6.831 -0.3810 -0.5661  0.9222
    4MOL   C105 1611   4.109   5.272   6.844  0.4460  0.0776  0.2676
    4MOL   C106 1612   4.127   5.193   6.716  0.2966  0.5046 -0.2491
    4MOL   C107 1613   4.270   5.150   6.702 -0.0898  0.2956  0.5209
    4MOL   C108 1614   4.296   5.072   6.569  1.3470 -0.3590 -0.1100
    4MOL   C109 1615   4.440   5.029   6.563  0.9089 -0.1149 -0.8602
    4MOL   C110 1616   4.480   4.981   6.425  0.5842  0.3454 -0.8822
    4MOL   H111 1617   4.286   5.590   6.787 -0.2414 -0.1679 -0.1841
    4MOL   H112 1618   4.268   5.678   6.944  1.0420 -1.6529  1.0155
    4MOL   H113 1619   4.094   5.467   6.979 -0.9169 -0.5262 -1.5109
    4MOL   H114 1620   4.003   5.291   6.862  0.1986  0.7050 -1.7907
    4MOL   H115 1621   4.139   5.207   6.927  3.1050 -0.0505 -0.7643
    4MOL   H116 1622   4.094   5.258   6.634 -2.1326  0.0406  0.3023
    4MOL   H117 1623   4.059   5.109   6.731 -0.3996  1.3949  1.8187
    4MOL   H118 1624   4.335   5.236   6.715  0.4887 -0.1976  0.9276
    4MOL   H119 1625   4.293   5.085   6.787 -0.1565  1.4218  1.4120
    4MOL   H120 1626   4.230   4.986   6.572  0.3482  0.3313 -1.5439
    4MOL   H121 1627   4.266   5.136   6.486 -2.0679  0.0730  1.3881
    4MOL   H122 1628   4.500   5.113   6.599 -1.6991  0.1522  3.1571
    4MOL   H123 1629   4.452   4.952   6.639  1.7022  1.3538  0.5272
    4MOL   H124 1630   4.576   4.929   6.413 -1.0442 -2.4787 -2.2261
    4MOL   H125 1631   4.423   4.891   6.400  0.0801  0.1563  0.8882
    4MOL   H126 1632   4.468   5.052   6.344 -0.1060 -0.5742 -1.6008
    4MOL   C127 1633   4.300   5.434   7.044 -0.4444 -0.0330  1.1499
    4MOL   C128 1634   4.243   5.436   7.188  0.4998  0.1407 -0.0427
    4MOL   O129 1635   4.345   5.483   7.271  0.7395 -0.1248 -0.3216
    4MOL   C130 1636   4.338   5.615   7.329  0.5115  0.8403  0.5269
    4MOL   C131 1637   4.477   5.665   7.388 -0.1680  0.6561 -0.3621
    4MOL   C132 1638   4.591   5.663   7.285 -0.0881  0.2270 -0.2978
    4MOL   C133 1639   4.721   5.710   7.343  0.9846  0.3392 -0.0423
    4MOL   C134 1640   4.834   5.664   7.256  0.1659 -0.5766 -0.0397
    4MOL   C135 1641   4.970   5.728   7.293 -0.4636 -0.1976 -0.0697
    4MOL   H136 1642   4.361   5.348   7.013  0.7902  1.7018 -1.4256
    4MOL   H137 1643   4.373   5.515   7.040  0.5642 -0.9627  0.2464
    4MOL   H138 1644   4.161   5.508   7.187  0.8078  0.4966  0.4305
    4MOL   H139 1645   4.278   5.626   7.420 -0.7540  0.7393 -0.2945
    4MOL   H140 1646   4.314   5.692   7.256 -0.5269  1.3348  1.3638
    4MOL   H141 1647   4.494   5.613   7.482  2.5194 -0.3794 -1.3720
    4MOL   H142 1648   4.464   5.769   7.418  0.5516  1.5356 -2.9788
    4MOL   H143 1649   4.599   5.561   7.247 -3.1193 -0.5091  0.8430
    4MOL   H144 1650   4.570   5.728   7.201  1.0831 -0.1874 -0.9227
    4MOL   H145 1651   4.725   5.818   7.359 -0.5754  0.3452  0.3503
    4MOL   H146 1652   4.725   5.662   7.441  0.6200  0.1987 -0.0969
    4MOL   H147 1653   4.842   5.555   7.261  1.1889 -0.5158 -0.2020
    4MOL   H148 1654   4.811   5.684   7.151  0.0340 -0.0498  0.0907
    4MOL   H149 1655   4.993   5.722   7.400  0.8962 -0.0443 -0.3436
    4MOL   H150 1656   5.049   5.681   7.236 -0.5933  0.7478 -1.0633
    4MOL   H151 1657   4.961   5.836   7.275 -1.2724 -0.3373 -0.5263
    4MOL   C152 1658   4.189   5.293   7.223  0.5567  0.3856  0.1774
    4MOL   C153 1659   4.051   5.292   7.291  0.0868  0.3824  0.1716
    4MOL   O154 1660   3.954   5.276   7.183  0.6206 -0.5261  0.2242
    4MOL   C155 1661   3.825   5.337   7.188 -0.5643  0.4658 -0.6555
    4MOL   C156 1662   3.742   5.305   7.061  0.0497  0.1798  0.6088
    4MOL   C157 1663   3.588   5.302   7.091 -0.1367  0.4106 -0.3808
    4MOL   C158 1664   3.492   5.279   6.970 -0.2654  0.1978  0.6265
    4MOL   C159 1665   3.352   5.262   7.028 -0.5887  0.2228  0.2304
    4MOL   C160 1666   3.244   5.254   6.925  0.0947 -0.3327 -0.5415
    4MOL   H161 1667   4.205   5.216   7.148  2.2363  0.4269  0.4751
    4MOL   H162 1668   4.258   5.251   7.296  0.0269 -1.4279 -0.3295
    4MOL   H163 1669   4.032   5.394   7.324 -0.2544  0.4417 -0.2024
    4MOL   H164 1670   3.836   5.443   7.208 -0.9780  0.2139  0.9749
    4MOL   H165 1671   3.779   5.308   7.283 -2.1393  2.3574 -0.8119
    4MOL   H166 1672   3.763   5.201   7.037 -0.1554 -0.3613  2.5952
    4MOL   H167 1673   3.779   5.382   6.994 -1.7975  2.1295  1.7491
    4MOL   H168 1674   3.569   5.218   7.158  1.3590  0.2378 -0.1511
    4MOL   H169 1675   3.566   5.389   7.154  1.3255  0.5335 -0.0305
    4MOL   H170 1676   3.509   5.372   6.917 -0.4181  0.9770  1.9187
    4MOL   H171 1677   3.514   5.193   6.907  1.0917  1.6758 -0.9623
    4MOL   H172 1678   3.358   5.170   7.085 -2.4123  0.4796  0.8655
    4MOL   H173 1679   3.316   5.342   7.093 -2.8487 -0.9366  0.4332
    4MOL   H174 1680   3.146   5.235   6.969  0.4027 -2.9274 -0.9110
    4MOL   H175 1681   3.230   5.356   6.888  1.6766 -0.9826 -3.0582
    4MOL   H176 1682   3.265   5.191   6.839 -0.2024 -0.9491 -0.1625
    4MOL   C177 1683   4.045   5.183   7.391  0.0586  0.0310  0.2200
    4MOL   C178 1684   4.123   5.210   7.523 -0.3599  0.8358 -0.0517
    4MOL   O179 1685   4.060   5.321   7.592 -0.2013 -0.1292 -0.2230
    4MOL   C180 1686   4.119   5.448   7.591  0.5664 -0.6621 -0.0943
    4MOL   C181 1687   4.014   5.558   7.629  0.1190 -0.1306  0.4992
    4MOL   C182 1688   3.902   5.560   7.531 -0.3830  0.0219 -0.7412
    4MOL   C183 1689   3.811   5.679   7.564  0.1383 -0.5097 -0.5058
    4MOL   C184 1690   3.721   5.719   7.449 -0.7171  0.5434  0.0467
    4MOL   C185 1691   3.662   5.852   7.458  0.1735 -0.3673  1.0462
    4MOL   H186 1692   3.941   5.163   7.417 -0.1807  0.1466 -0.6281
    4MOL   H187 1693   4.073   5.092   7.337  0.1344  0.8909 -1.2065
    4MOL   H188 1694   4.229   5.231   7.510 -0.3727  0.1368 -1.3430
    4MOL   H189 1695   4.169   5.473   7.498 -0.2116 -0.1092 -0.3785
    4MOL   H190 1696   4.192   5.433   7.670  0.8198  1.0143  0.0097
    4MOL   H191 1697   4.060   5.655   7.645  1.4575 -0.9275  1.6887
    4MOL   H192 1698   3.977   5.515   7.723 -1.3608 -1.6735 -0.7634
    4MOL   H193 1699   3.939   5.561   7.428  0.7404 -0.6851 -0.3567
    4MOL   H194 1700   3.850   5.465   7.548  0.5167 -0.5332 -1.0426
    4MOL   H195 1701   3.749   5.654   7.650 -0.0621 -0.4805 -0.6414
    4MOL   H196 1702   3.873   5.766   7.588 -1.3598  1.4762 -3.4878
    4MOL   H197 1703   3.774   5.731   7.355 -0.8226  1.6047  0.1225
    4MOL   H198 1704   3.643   5.644   7.431 -1.3239  1.3884 -0.8408
    4MOL   H199 1705   3.631   5.893   7.362  1.6855 -0.8225  0.3385
    4MOL   H200 1706   3.579   5.855   7.527 -0.5170 -1.6915  0.2902
    4MOL   H201 1707   3.744   5.918   7.487  0.4050 -0.4770  0.6588
    4MOL   C202 1708   4.120   5.071   7.608 -1.0796 -0.3202  0.5024
    4MOL   C203 1709   4.248   4.988   7.614 -0.1927  0.1535 -0.0920
    4MOL   O204 1710   4.255   4.916   7.491  0.1560  0.8129  0.2012
    4MOL   C205 1711   4.387   4.884   7.466  0.6347 -0.1123 -0.2589
    4MOL   C206 1712   4.389   4.791   7.352 -0.7247  0.2245  0.1026
    4MOL   C207 1713   4.364   4.868   7.226  0.0511  0.4281 -0.9868
    4MOL   C208 1714   4.348   4.793   7.091 -0.6105  0.4902  0.1752
    4MOL   C209 1715   4.309   4.889   6.971  0.3537 -0.3875  0.5717
    4MOL   C210 1716   4.272   4.818   6.838 -0.2749 -0.3529 -0.3634
    4MOL   H211 1717   4.113   5.112   7.709  3.0447  0.1818  0.6713
    4MOL   H212 1718   4.030   5.013   7.588 -0.6297 -0.1513 -2.1949
    4MOL   H213 1719   4.333   5.056   7.614 -1.1299  1.3619 -2.1213
    4MOL   H214 1720   4.437   4.831   7.547  0.0081  0.3134  0.4150
    4MOL   H215 1721   4.446   4.970   7.435  0.8035 -0.2260 -0.2521
    4MOL   H216 1722   4.320   4.711   7.377  1.1768 -1.3831  0.3509
    4MOL   H217 1723   4.483   4.738   7.335 -1.0693  0.3937 -2.5602
    4MOL   H218 1724   4.284   4.942   7.235  1.4608  1.7616  1.1125
    4MOL   H219 1725   4.442   4.944   7.217  0.7125 -0.2965 -1.3973
    4MOL   H220 1726   4.435   4.735   7.062  1.4008  2.5902  1.7126
    4MOL   H221 1727   4.269   4.720   7.107 -0.2130 -0.5316 -2.3465
    4MOL   H222 1728   4.227   4.948   7.011 -0.3813  0.4297 -2.0168
    4MOL   H223 1729   4.387   4.961   6.947  0.3377 -0.1883  1.1278
    4MOL   H224 1730   4.251   4.883   6.753  0.8054  1.2945  0.6019
    4MOL   H225 1731   4.348   4.746   6.810 -1.8479 -2.6340  1.0791
    4MOL   H226 1732   4.181   4.766   6.869  0.8400 -3.0482 -1.4497
    4MOL   C227 1733   4.255   4.894   7.734 -0.2926 -0.0904 -0.3534
    4MOL   C228 1734   4.366   4.936   0.056 -0.0492  0.4425  0.5612
    4MOL   O229 1735   4.316   5.040   0.133  0.1741 -0.2080 -0.0726
    4MOL   C230 1736   4.385   5.168   0.114  0.4078 -0.3040 -0.6775
    4MOL   C231 1737   4.318   5.274   0.194 -0.2660 -0.2503 -0.5375
    4MOL   C232 1738   4.393   5.410   0.168 -0.0788  0.0214 -0.0028
    4MOL   C233 1739   4.321   5.531   0.226 -0.3732  0.2013  0.3607
    4MOL   C234 1740   4.177   5.561   0.180  0.4597  0.5025  0.5122
    4MOL   C235 1741   4.090   5.637   0.282  0.4207  0.0019 -0.8954
    4MOL   H236 1742   4.159   4.897   0.009 -0.4801 -1.1478 -0.6232
    4MOL   H237 1743   4.270   4.792   7.700 -0.1512 -0.2935  0.3081
    4MOL   H238 1744   4.462   4.962   0.010 -0.2761 -1.8050 -1.2961
    4MOL   H239 1745   4.388   5.203   0.011  0.3019 -0.2366 -0.6591
    4MOL   H240 1746   4.488   5.160   0.148 -0.8941  1.5983  4.1327
    4MOL   H241 1747   4.324   5.250   0.300  0.4344 -1.2147 -0.7935
    4MOL   H242 1748   4.215   5.262   0.159  0.0422  0.7986 -1.8386
    4MOL   H243 1749   4.493   5.399   0.211 -0.3989 -2.6261  0.1540
    4MOL   H244 1750   4.409   5.427   0.061 -3.5552  3.8580 -0.0313
    4MOL   H245 1751   4.325   5.508   0.332  0.9151  0.0364  0.2867
    4MOL   H246 1752   4.379   5.623   0.223 -1.6802  1.0690  1.2871
    4MOL   H247 1753   4.176   5.616   0.086  0.6343 -0.2472  0.0766
    4MOL   H248 1754   4.131   5.463   0.165  2.0584 -0.1277 -0.3837
    4MOL   H249 1755   4.103   5.590   0.379 -0.5347 -0.0183 -0.7738
    4MOL   H250 1756   4.126   5.740   0.282  2.1823 -0.5954 -0.7394
    4MOL   H251 1757   3.985   5.642   0.253  0.3666  0.3588 -0.6505
    4MOL   C252 1758   4.400   4.828   0.166 -0.2859  0.3994  0.1226
    4MOL   C253 1759   4.484   4.710   0.115 -0.5309  0.9531  0.2641
    4MOL   O254 1760   4.520   4.621   0.215 -0.0343  0.1188  0.0855
    4MOL   C255 1761   4.412   4.548   0.272 -0.1213  0.1982  0.2499
    4MOL   C256 1762   4.463   4.444   0.373  0.6221 -0.9493 -0.5982
    4MOL   C257 1763   4.520   4.319   0.298 -0.1645  0.1382 -0.4795
    4MOL   C258 1764   4.584   4.223   0.395  0.2906 -0.8215  0.7870
    4MOL   C259 1765   4.642   4.101   0.327  0.4995 -0.6605 -0.1310
    4MOL   C260 1766   4.720   4.026   0.437  0.5256 -0.2922  0.6190
    4MOL   H261 1767   4.459   4.873   0.246 -1.5207  1.4211  0.4767
    4MOL   H262 1768   4.301   4.806   0.207 -0.4727 -2.0075 -1.5194
    4MOL   H263 1769   4.429   4.652   0.041 -1.2810 -0.5095  1.9212
    4MOL   H264 1770   4.354   4.493   0.199 -2.2855 -1.0023  2.7633
    4MOL   H265 1771   4.341   4.603   0.334 -1.6453 -0.6052 -0.7536
    4MOL   H266 1772   4.395   4.412   0.452  2.0551 -1.6459  0.3768
    4MOL   H267 1773   4.550   4.489   0.420 -0.1397 -2.1306  1.9896
    4MOL   H268 1774   4.437   4.264   0.255  0.4319 -0.7772 -0.4862
    4MOL   H269 1775   4.590   4.345   0.219  0.3457 -0.5166 -0.2501
    4MOL   H270 1776   4.672   4.271   0.437  0.6612 -0.7848 -0.0301
    4MOL   H271 1777   4.523   4.210   0.484 -0.7824  0.6757  0.2727
    4MOL   H272 1778   4.551   4.046   0.301  0.4274 -1.4634  1.6877
    4MOL   H273 1779   4.707   4.124   0.243 -0.0152  2.8524  0.3607
    4MOL   H274 1780   4.810   4.080   0.466 -0.2235  1.0547  0.4535
    4MOL   H275 1781   4.661   4.006   0.526  1.7763  1.1136  1.7924
    4MOL   H276 1782   4.753   3.933   0.390 -0.9502 -0.0125 -0.9809
    4MOL   C277 1783   4.620   4.754   0.051 -0.2467  0.0025  0.5332
    4MOL   C278 1784   4.667   4.638   7.740 -0.3676  0.3824  0.0373
    4MOL   O279 1785   4.580   4.637   7.632 -0.7664 -0.3217  0.6754
    4MOL   C280 1786   4.567   4.509   7.574  1.7892 -0.6320  0.3491
    4MOL   C281 1787   4.448   4.415   7.627 -0.6018 -0.3791 -0.0545
    4MOL   C282 1788   4.454   4.268   7.587 -0.5830 -0.1489  0.2898
    4MOL   C283 1789   4.552   4.173   7.661 -0.6225 -0.3147 -0.7152
    4MOL   C284 1790   4.533   4.027   7.606  0.0650  0.2834  0.3638
    4MOL   C285 1791   4.616   3.920   7.677  0.2559 -0.7673 -0.2269
    4MOL   H286 1792   4.641   4.847   7.777  0.7796 -1.0822 -1.0076
    4MOL   H287 1793   4.697   4.766   0.127  1.0933  0.3974 -0.8645
    4MOL   H288 1794   4.670   4.545   0.018  0.7281  0.3975  0.0025
    4MOL   H289 1795   4.656   4.447   7.582  1.2526 -1.5454 -0.5272
    4MOL   H290 1796   4.566   4.522   7.466 -1.5524 -0.8269  0.2997
    4MOL   H291 1797   4.352   4.459   7.602 -0.8073 -1.1358 -0.6152
    4MOL   H292 1798   4.455   4.416   7.736 -1.2652 -2.1387  0.0136
    4MOL   H293 1799   4.352   4.229   7.590 -0.1676 -1.1765  1.6459
    4MOL   H294 1800   4.469   4.261   7.479 -3.6153  0.1952 -0.1935
    4MOL   H295 1801   4.649   4.216   7.637 -1.5829  2.3289 -0.0181
    4MOL   H296 1802   4.540   4.178   7.769 -0.2706  1.5412 -0.7545
    4MOL   H297 1803   4.428   4.002   7.588 -0.1747 -0.2802  2.4096
    4MOL   H298 1804   4.559   4.033   7.501  0.4463  3.0167  0.5714
    4MOL   H299 1805   4.577   3.888   7.774 -1.4838 -0.2687 -0.7437
    4MOL   H300 1806   4.637   3.830   7.621 -0.3315  0.0395 -1.7751
    4MOL   H301 1807   4.712   3.967   7.696 -1.2138  2.4512 -0.4115
    4MOL   C302 1808   4.807   4.666   7.706 -0.4062  0.2350  0.6390
    4MOL   C303 1809   4.892   4.542   7.672  0.0620  0.1923 -0.1608
    4MOL   O304 1810   4.925   4.466   0.008  0.2143 -0.1759  0.1520
    4MOL   C305 1811   4.869   4.342   7.772  0.7125  0.0271 -0.2662
    4MOL   C306 1812   4.929   4.253   0.091  0.7207  0.5995  0.2804
    4MOL   C307 1813   5.074   4.234   0.073 -0.0702 -0.2747  0.0697
    4MOL   C308 1814   5.141   4.139   0.177  0.2243  0.0646  0.1810
    4MOL   C309 1815   5.088   3.998   0.167 -0.6092  0.2607 -0.5524
    4MOL   C310 1816   5.149   3.894   0.264 -0.7158  0.5196  0.4720
    4MOL   H311 1817   4.799   4.730   7.618  1.7321 -0.1497  0.1531
    4MOL   H312 1818   4.862   4.726   7.778  0.7470 -2.9279  2.5097
    4MOL   H313 1819   4.849   4.487   7.589  0.3177  1.1432 -0.9284
    4MOL   H314 1820   4.893   4.296   7.677  1.5165 -0.7158  0.2820
    4MOL   H315 1821   4.760   4.347   7.778  0.5706 -1.8537 -1.2805
    4MOL   H316 1822   4.875   4.160   0.074 -0.4539  1.1093  1.1410
    4MOL   H317 1823   4.908   4.289   0.192  1.6400  2.0527 -0.0238
    4MOL   H318 1824   5.090   4.206   7.747 -1.3447 -0.5834 -0.0562
    4MOL   H319 1825   5.122   4.331   0.085  0.8797 -0.6758 -0.5118
    4MOL   H320 1826   5.247   4.162   0.171  0.0398  0.9281  0.0829
    4MOL   H321 1827   5.114   4.175   0.277 -1.6708  0.8791 -0.5913
    4MOL   H322 1828   4.982   3.985   0.186 -0.4397 -0.9099 -0.3342
    4MOL   H323 1829   5.092   3.969   0.062  0.0395 -0.9454 -0.2191
    4MOL   H324 1830   5.258   3.885   0.267 -0.5369  2.5906  0.8217
    4MOL   H325 1831   5.117   3.920   0.365 -0.5884  2.0383  0.1342
    4MOL   H326 1832   5.109   3.793   0.253  0.4933  0.1454 -0.6007
    4MOL   C327 1833   5.029   4.594   7.632  0.3849 -0.1380  0.3752
    4MOL   C328 1834   5.115   4.501   7.556  0.6826 -0.5213  0.0517
    4MOL   O329 1835   5.033   4.463   7.443  0.0560  0.9655  0.0190
    4MOL   C330 1836   5.050   4.336   7.390 -0.3857  0.9711  0.6457
    4MOL   C331 1837   4.948   4.300   7.277 -0.4988  0.1870 -0.1140
    4MOL   C332 1838   4.809   4.286   7.341  0.1649 -0.1734 -0.1124
    4MOL   C333 1839   4.704   4.249   7.236  0.3568 -0.5816  0.4224
    4MOL   C334 1840   4.638   4.356   7.161  0.5683 -0.2281  0.5959
    4MOL   C335 1841   4.525   4.314   7.064 -0.5816 -0.5130  0.3985
    4MOL   H336 1842   5.085   4.634   7.717  2.6633 -0.2917 -1.0127
    4MOL   H337 1843   5.016   4.683   7.570  2.4704 -0.4666 -0.5876
    4MOL   H338 1844   5.151   4.423   7.623  1.1315  1.6338  2.3776
    4MOL   H339 1845   5.038   4.270   7.476 -1.2215  0.8315  0.4275
    4MOL   H340 1846   5.153   4.320   7.358 -1.0483 -0.8387 -0.7217
    4MOL   H341 1847   4.971   4.204   7.231 -0.1595 -0.1812  0.8065
    4MOL   H342 1848   4.949   4.367   7.191 -1.5485  0.0161 -0.2678
    4MOL   H343 1849   4.814   4.206   7.415 -1.6431  1.5961  1.9893
    4MOL   H344 1850   4.785   4.380   7.391  0.0811 -0.4669  0.3954
    4MOL   H345 1851   4.741   4.182   7.159 -1.0456 -0.2050 -0.5869
    4MOL   H346 1852   4.633   4.188   7.292  0.4776 -0.6061  0.5502
    4MOL   H347 1853   4.590   4.431   7.223  0.2466  1.1026 -1.2354
    4MOL   H348 1854   4.715   4.417   7.114  0.8199  0.7139  2.1759
    4MOL   H349 1855   4.443   4.267   7.117 -0.4331 -1.5347 -0.2672
    4MOL   H350 1856   4.488   4.408   7.023  0.8901  0.8743  2.1358
    4MOL   H351 1857   4.553   4.254   6.977  0.4734 -0.9918  1.0552
    4MOL   C352 1858   5.244   4.586   7.508 -0.3176  0.2540  0.0336
    4MOL   C353 1859   5.377   4.508   7.484 -0.2696  0.3310  0.1452
    4MOL   O354 1860   5.410   4.436   7.601  0.0725 -0.0421  0.1643
    4MOL   C355 1861   5.406   4.296   7.589 -0.1583  0.3202 -0.4191
    4MOL   C356 1862   5.443   4.247   7.727 -0.0634 -0.1880  0.1283
    4MOL   C357 1863   5.437   4.091   7.732  0.0533  0.8403 -0.4113
    4MOL   C358 1864   5.537   4.032   7.635 -0.6195  0.1293  0.1458
    4MOL   C359 1865   5.534   3.880   7.618  0.2852 -0.5144 -0.2293
    4MOL   C360 1866   5.661   3.818   7.546  0.0731 -0.3091  0.7050
    4MOL   H361 1867   5.219   4.654   7.427 -1.3679 -0.1985 -0.0248
    4MOL   H362 1868   5.264   4.649   7.595 -1.1250 -1.0692  1.1984
    4MOL   H363 1869   5.363   4.443   7.398  0.6565  0.1524  0.1219
    4MOL   H364 1870   5.471   4.264   7.507 -0.5617 -0.2912 -0.4996
    4MOL   H365 1871   5.312   4.258   7.548 -0.7378  0.2953  0.9220
    4MOL   H366 1872   5.372   4.292   0.018  0.7608 -0.1371  0.9457
    4MOL   H367 1873   5.543   4.284   7.751 -0.5085  2.3653 -1.7327
    4MOL   H368 1874   5.458   4.052   0.053 -1.0143  1.5808  0.1180
    4MOL   H369 1875   5.339   4.052   7.703  0.7058 -2.2306  1.3509
    4MOL   H370 1876   5.517   4.057   7.531 -2.5687  2.6962  1.0984
    4MOL   H371 1877   5.640   4.062   7.656 -0.2956 -0.6981 -0.2345
    4MOL   H372 1878   5.534   3.829   7.715 -1.3345  1.0595  0.6187
    4MOL   H373 1879   5.444   3.849   7.565  1.6832 -3.0603 -1.2550
    4MOL   H374 1880   5.672   3.841   7.440  1.7739 -0.9811  0.7055
    4MOL   H375 1881   5.754   3.844   7.597  0.3996  0.8504 -0.4605
    4MOL   H376 1882   5.664   3.709   7.553  1.1123 -0.5592 -2.4879
    4MOL   C377 1883   5.500   4.604   7.447 -0.2718  0.0629 -0.2202
    4MOL   C378 1884   5.631   4.532   7.397  0.0775  0.1481  0.3603
    4MOL   O379 1885   5.733   4.629   7.399 -0.3432 -0.0845 -0.0829
    4MOL   C380 1886   5.854   4.576   7.446  0.2468 -0.6177  0.1598
    4MOL   C381 1887   5.955   4.692   7.453 -0.0630 -0.6705  0.4033
    4MOL   C382 1888   6.083   4.646   7.518 -0.8112  0.3935 -0.3436
    4MOL   C383 1889   6.183   4.570   7.420  0.2338 -0.3044 -0.8188
    4MOL   C384 1890   6.268   4.666   7.329  0.2505 -0.0645 -0.5219
    4MOL   C385 1891   6.369   4.582   7.243 -0.9588 -0.0480 -0.2275
    4MOL   H386 1892   5.473   4.675   7.369 -0.0295  0.3499 -0.0428
    4MOL   H387 1893   5.533   4.655   7.538 -0.7781  1.3296 -0.7379
    4MOL   H388 1894   5.643   4.445   7.462  1.5539 -1.1336 -1.5518
    4MOL   H389 1895   5.891   4.490   7.389 -0.1219  0.7460 -2.2036
    4MOL   H390 1896   5.837   4.543   7.548 -0.2679  0.0705  0.3032
    4MOL   H391 1897   5.913   4.784   7.494 -2.0520 -0.3745 -2.1694
    4MOL   H392 1898   5.978   4.714   7.349 -0.9458  0.9134  0.5156
    4MOL   H393 1899   6.127   4.730   7.571  0.0245 -1.0658  1.3188
    4MOL   H394 1900   6.059   4.579   7.600 -1.2798  1.1517  0.1380
    4MOL   H395 1901   6.258   4.515   7.477 -0.1802  1.0141  1.0429
    4MOL   H396 1902   6.129   4.497   7.360 -0.5940 -1.5206  1.3654
    4MOL   H397 1903   6.204   4.728   7.267  0.4434  1.4483  0.7647
    4MOL   H398 1904   6.330   4.732   7.390 -0.2479 -0.1642  0.1036
    4MOL   H399 1905   6.434   4.645   7.183 -0.8417  0.1628  0.1185
    4MOL   H400 1906   6.440   4.531   7.309 -1.2977  0.5172  0.5866
    4MOL   H401 1907   6.316   4.525   7.167  1.0458 -0.8878 -1.0274
    4MOL   C402 1908   5.624   4.483   7.252  0.3396 -0.6209 -0.2849
    4MOL   C403 1909   5.612   4.327   7.243  0.3240 -0.3679  0.4370
    4MOL   O404 1910   5.743   4.271   7.261  0.0484 -0.2328 -0.3186
    4MOL   C405 1911   5.745   4.150   7.337  0.3106 -0.2517  0.0307
    4MOL   C406 1912   5.876   4.069   7.311 -0.5249 -0.5711  0.6193
    4MOL   C407 1913   6.000   4.150   7.339 -0.1681 -0.0191 -0.0337
    4MOL   C408 1914   6.136   4.073   7.303  0.5805 -0.2086  0.0848
    4MOL   C409 1915   6.265   4.155   7.316  0.1959 -0.2810 -0.8964
    4MOL   C410 1916   6.392   4.070   7.278 -0.0393  0.7316 -0.1909
    4MOL   H411 1917   5.712   4.520   7.200 -0.2278  0.2464 -0.6243
    4MOL   H412 1918   5.538   4.535   7.211  0.7163  1.2835  1.3010
    4MOL   H413 1919   5.544   4.289   7.319 -0.8995  1.9189  0.5392
    4MOL   H414 1920   5.661   4.082   7.324 -0.7867  1.1255 -0.1592
    4MOL   H415 1921   5.750   4.189   7.439  1.9967 -0.6591  0.1244
    4MOL   H416 1922   5.885   4.036   7.207  0.0427 -2.1746  1.1568
    4MOL   H417 1923   5.870   3.979   7.373  0.3253 -2.3377 -1.7506
    4MOL   H418 1924   5.983   4.248   7.294  1.5855  0.6512  0.7068
    4MOL   H419 1925   6.016   4.171   7.445 -0.8352  2.1835 -0.3430
    4MOL   H420 1926   6.136   3.984   7.367  1.9632 -1.3208 -1.4313
    4MOL   H421 1927   6.122   4.035   7.202  0.0767  2.3030 -0.8059
    4MOL   H422 1928   6.252   4.231   7.239  0.2750  0.7697  0.1050
    4MOL   H423 1929   6.266   4.201   7.415 -0.6737  1.8685 -1.8583
    4MOL   H424 1930   6.364   4.011   7.191  0.1850 -1.0717  0.9248
    4MOL   H425 1931   6.472   4.143   7.269 -3.3093  4.8318  2.3953
    4MOL   H426 1932   6.407   3.996   7.357 -2.1739  1.3585  0.8237
    4MOL   C427 1933   5.550   4.292   7.103 -0.7768 -0.2579  0.3184
    4MOL   C428 1934   5.505   4.141   7.097  0.1902  0.2906  0.3140
    4MOL   O429 1935   5.397   4.133   7.189 -0.3178  0.0276 -0.2477
    4MOL   C430 1936   5.384   4.005   7.251 -0.1030 -0.1188 -0.1896
    4MOL   C431 1937   5.260   4.013   7.336 -0.0029  0.6110  0.4326
    4MOL   C432 1938   5.219   3.876   7.381  0.3370  0.9501 -0.4297
    4MOL   C433 1939   5.107   3.885   7.485  0.5791  0.1451 -0.8177
    4MOL   C434 1940   5.055   3.748   7.545  0.0812  0.3533  0.5256
    4MOL   C435 1941   5.154   3.690   7.649  0.4645 -0.0593 -0.2469
    4MOL   H436 1942   5.468   4.361   7.084  0.5071  1.0681 -0.4881
    4MOL   H437 1943   5.614   4.316   7.018  1.4678  0.2908  2.1007
    4MOL   H438 1944   5.592   4.078   7.118  1.2152  1.6939  0.3648
    4MOL   H439 1945   5.469   3.990   7.318 -0.7084 -2.2704  0.1153
    4MOL   H440 1946   5.373   3.927   7.177 -0.2841  0.5891 -0.9140
    4MOL   H441 1947   5.187   4.055   7.266  1.3731 -2.4364 -2.9741
    4MOL   H442 1948   5.256   4.078   7.424  1.3615 -0.9083  1.6375
    4MOL   H443 1949   5.193   3.819   7.292  2.8766  1.1864 -1.3566
    4MOL   H444 1950   5.294   3.810   7.426 -1.3198 -1.2279 -0.7967
    4MOL   H445 1951   5.131   3.958   7.562 -1.5991  0.1582 -0.1401
    4MOL   H446 1952   5.026   3.935   7.432 -0.8200 -2.5060 -1.2502
    4MOL   H447 1953   4.960   3.773   7.592 -0.1854  0.0219  0.1618
    4MOL   H448 1954   5.036   3.673   7.468 -0.0701  1.0528 -0.1243
    4MOL   H449 1955   5.250   3.657   7.611  0.1547 -2.9168  1.3437
    4MOL   H450 1956   5.182   3.770   7.718 -0.0994 -2.1034  2.4436
    4MOL   H451 1957   5.114   3.605   7.705 -1.3918 -0.3389 -1.9258
    4MOL   C452 1958   5.454   4.095   6.960  0.7012 -0.1494 -0.1535
    4MOL   C453 1959   5.515   3.967   6.913 -0.1900  0.3655 -0.4739
    4MOL   O454 1960   5.652   4.005   6.884 -0.0400  0.4154  0.1205
    4MOL   C455 1961   5.746   3.901   6.911 -0.0137 -0.1463 -0.3576
    4MOL   C456 1962   5.892   3.960   6.884  0.4265 -0.6290  0.0404
    4MOL   C457 1963   6.000   3.855   6.906 -0.6018 -0.4065 -0.2034
    4MOL   C458 1964   6.140   3.901   6.859 -0.0248 -0.6536  0.0844
    4MOL   C459 1965   6.234   3.776   6.850 -0.9541  0.6142 -0.2826
    4MOL   C460 1966   6.377   3.824   6.825 -0.5235  0.0986  0.8777
    4MOL   H461 1967   5.345   4.100   6.965  0.8394  3.9219  0.0639
    4MOL   H462 1968   5.465   4.174   6.886 -1.5418  1.1973  0.9032
    4MOL   H463 1969   5.513   3.887   6.988  0.6511 -0.3299 -1.1814
    4MOL   H464 1970   5.719   3.822   6.841 -2.6618  0.9770 -0.6450
    4MOL   H465 1971   5.725   3.866   7.012 -1.0576 -0.4001 -0.6631
    4MOL   H466 1972   5.896   4.046   6.950  0.5833  0.2708 -1.1174
    4MOL   H467 1973   5.900   3.995   6.781 -1.0209 -2.9344 -0.8904
    4MOL   H468 1974   6.002   3.834   7.013 -0.8643  0.8896  0.0531
    4MOL   H469 1975   5.984   3.761   6.851 -2.1603  0.8213 -1.9163
    4MOL   H470 1976   6.141   3.946   6.760  0.4744 -0.4327  0.1917
    4MOL   H471 1977   6.180   3.975   6.927 -2.0497  0.0221  0.5845
    4MOL   H472 1978   6.230   3.721   6.944 -0.2233 -1.2537 -1.3185
    4MOL   H473 1979   6.205   3.707   6.771  0.0993  0.3873 -0.4808
    4MOL   H474 1980   6.377   3.885   6.734 -2.2093  0.3618  1.0307
    4MOL   H475 1981   6.421   3.897   6.893 -2.0099  1.2288  0.6556
    4MOL   H476 1982   6.438   3.736   6.805  3.2565  2.6811  0.4595
    4MOL   C477 1983   5.447   3.914   6.783  0.2433  0.4981 -0.4520
    4MOL   C478 1984   5.301   3.861   6.804  0.1594  0.1384  0.0291
    4MOL   O479 1985   5.243   3.848   6.677  0.6639  0.6457  0.5179
    4MOL   C480 1986   5.128   3.778   6.675 -0.5861 -0.0474  0.4588
    4MOL   C481 1987   5.071   3.778   6.527  0.0043 -0.2335  0.3833
    4MOL   C482 1988   4.926   3.724   6.517  0.7507 -0.4344 -0.1108
    4MOL   C483 1989   4.885   3.708   6.374  0.3490  0.3582  0.6178
    4MOL   C484 1990   4.738   3.663   6.353  0.1436 -0.5294 -0.5501
    4MOL   C485 1991   4.718   3.521   6.403  0.2380 -0.1647 -0.3292
    4MOL   H486 1992   5.463   3.990   6.707  1.6261 -0.7398 -1.4199
    4MOL   H487 1993   5.507   3.835   6.739 -0.5588  0.8497 -2.2030
    4MOL   H488 1994   5.315   3.761   6.845 -1.4614 -0.3012 -0.4555
    4MOL   H489 1995   5.060   3.831   6.742 -0.1760 -0.0855  0.9116
    4MOL   H490 1996   5.125   3.679   6.720 -0.6517 -1.2843 -2.2011
    4MOL   H491 1997   5.142   3.713   6.476  1.0498  0.8225  0.4736
    4MOL   H492 1998   5.082   3.879   6.487 -2.2076 -0.6426 -1.3369
    4MOL   H493 1999   4.908   3.636   6.580  0.3359 -0.5344 -0.3650
    4MOL   H494 2000   4.856   3.799   6.554  0.7024  0.8408 -2.6943
    4MOL   H495 2001   4.885   3.796   6.310  1.9000 -0.3068 -0.3365
    4MOL   H496 2002   4.954   3.644   6.318 -1.3801 -0.2620 -0.8282
    4MOL   H497 2003   4.662   3.725   6.401  0.9237 -0.1416  0.1992
    4MOL   H498 2004   4.719   3.661   6.246 -0.0683 -1.0342 -0.5096
    4MOL   H499 2005   4.622   3.491   6.361 -0.3426  2.1331 -0.7163
    4MOL   H500 2006   4.794   3.455   6.360  1.2617 -0.0972  1.3428
    4MOL   H501 2007   4.723   3.509   6.511  0.7215 -0.0221 -0.3338
    4MOL   H502 2008   5.233   3.923   6.862 -1.2328  0.5442 -2.0121
    5MOL     C1 2009   2.453   3.867   4.321 -0.2782  0.2408  0.1154
    5MOL     C2 2010   2.537   3.735   4.317  0.7565 -0.0038  0.7367
    5MOL     O3 2011   2.667   3.749   4.379 -0.4996  0.6682 -0.0012
    5MOL     C4 2012   2.657   3.725   4.518  0.2726 -0.2640  0.2910
    5MOL     C5 2013   2.805   3.736   4.575 -0.5250 -0.0424 -0.4746
    5MOL     C6 2014   2.817   3.698   4.725  0.0872 -0.0029 -0.1001
    5MOL     C7 2015   2.961   3.693   4.777 -0.5039  0.6261  1.0225
    5MOL     C8 2016   3.038   3.823   4.794 -0.0234 -0.4856  0.1762
    5MOL     C9 2017   3.187   3.811   4.841 -0.0386 -0.0604  0.1599
    5MOL    H10 2018   2.418   3.871   4.424  2.8625 -1.2993  1.3077
    5MOL    H11 2019   2.519   3.949   4.295  0.3592 -0.9302 -2.0709
    5MOL    H12 2020   2.481   3.653   4.362  0.7938  0.2947  1.3270
    5MOL    H13 2021   2.619   3.624   4.534 -1.3093  0.0975 -1.1209
    5MOL    H14 2022   2.589   3.785   4.578  0.2582 -1.4963  1.5282
    5MOL    H15 2023   2.830   3.842   4.563  0.7063 -0.2814 -0.0974
    5MOL    H16 2024   2.877   3.678   4.517 -1.2404 -0.3292 -1.0980
    5MOL    H17 2025   2.744   3.751   4.786  0.9937 -2.4092  3.2365
    5MOL    H18 2026   2.783   3.595   4.730 -2.2582  0.8276  2.3388
    5MOL    H19 2027   2.957   3.638   4.871  1.1345 -0.4655  0.4690
    5MOL    H20 2028   3.016   3.629   4.708 -1.8854 -0.5496  0.9744
    5MOL    H21 2029   2.984   3.894   4.856  0.8946  0.8032 -0.4711
    5MOL    H22 2030   3.039   3.870   4.696 -0.8961  1.8680  1.2516
    5MOL    H23 2031   3.186   3.762   4.939  0.1605  1.5017  0.9556
    5MOL    H24 2032   3.247   3.748   4.775  0.4051 -1.0142  1.4500
    5MOL    H25 2033   3.233   3.907   4.861  0.7928 -0.3369 -0.4063
    5MOL    H26 2034   2.357   3.866   4.269 -0.7535 -2.9674  0.9025
    5MOL    C27 2035   2.558   3.711   4.170 -0.6057  0.0868 -0.0223
    5MOL    C28 2036   2.603   3.568   4.136 -0.5153 -0.1563  0.1016
    5MOL    O29 2037   2.509   3.500   4.053 -1.0936 -0.3566  0.1107
    5MOL    C30 2038   2.409   3.428   4.126  0.5816  0.1690  0.7277
    5MOL    C31 2039   2.342   3.333   4.023 -0.0906  1.0639  0.3606
    5MOL    C32 2040   2.293   3.403   3.889  0.2425  0.1944  0.0362
    5MOL    C33 2041   2.191   3.318   3.808  0.1244 -0.7509  0.4475
    5MOL    C34 2042   2.057   3.315   3.879  0.2233  0.0459  0.5852
    5MOL    C35 2043   1.948   3.251   3.797 -0.3191  0.0241  0.3790
    5MOL    H36 2044   2.459   3.718   4.126 -0.8049 -0.3319  0.3593
    5MOL    H37 2045   2.626   3.790   4.138 -0.5933  0.9259  2.0297
    5MOL    H38 2046   2.611   3.514   4.230 -1.1711  0.4813  0.5262
    5MOL    H39 2047   2.338   3.501   4.163  1.0696  0.2305  1.5536
    5MOL    H40 2048   2.449   3.364   4.205 -1.2138 -0.5094  1.1123
    5MOL    H41 2049   2.256   3.279   4.064  0.2136  0.7680  0.6129
    5MOL    H42 2050   2.410   3.256   3.986 -1.0744  0.6825 -0.6754
    5MOL    H43 2051   2.258   3.504   3.911  0.9915  0.0387  2.0717
    5MOL    H44 2052   2.391   3.410   3.841  0.9146 -3.4612  0.7595
    5MOL    H45 2053   2.168   3.368   3.714  1.9374  2.4223  1.6263
    5MOL    H46 2054   2.229   3.219   3.781 -0.3914 -0.3874 -1.7466
    5MOL    H47 2055   2.058   3.260   3.973  0.6578 -2.1313 -0.6697
    5MOL    H48 2056   2.039   3.418   3.910 -1.5390 -0.8633  2.7074
    5MOL    H49 2057   1.859   3.237   3.858  1.8716 -0.0225  3.7385
    5MOL    H50 2058   1.918   3.313   3.714  0.1119  1.4434  1.2665
    5MOL    H51 2059   1.983   3.157   3.755 -0.8592 -0.2163  0.4675
    5MOL    C52 2060   2.748   3.559   4.071 -0.0083 -0.1976 -0.2161
    5MOL    C53 2061   2.823   3.418   4.087  0.3254 -0.3913 -0.9105
    5MOL    O54 2062   2.935   3.394   3.999 -0.5643 -0.1563  0.4510
    5MOL    C55 2063   2.900   3.390   3.864 -0.7275  0.1519  1.1119
    5MOL    C56 2064   2.812   3.266   3.822  1.4118 -0.0703  0.1776
    5MOL    C57 2065   2.896   3.144   3.850 -0.4144  0.3999 -0.3714
    5MOL    C58 2066   2.842   3.009   3.812 -0.3258 -0.8838  0.7806
    5MOL    C59 2067   2.882   2.982   3.665 -0.1870 -0.3594  0.1296
    5MOL    C60 2068   3.032   2.946   3.659  0.1201  0.2897 -0.1011
    5MOL    H61 2069   2.810   3.638   4.113 -1.7166  1.8530 -1.4831
    5MOL    H62 2070   2.732   3.589   3.968 -0.5261 -1.0095 -0.3776
    5MOL    H63 2071   2.750   3.340   4.061  0.0605 -0.2215 -0.6736
    5MOL    H64 2072   2.996   3.387   3.813 -1.4612  0.1539 -0.2833
    5MOL    H65 2073   2.845   3.476   3.826 -3.0209 -1.1215  1.4634
    5MOL    H66 2074   2.783   3.268   3.717 -0.1133  1.5961  0.5967
    5MOL    H67 2075   2.719   3.274   3.879  0.8051 -0.3963 -0.7738
    5MOL    H68 2076   3.003   3.150   3.827 -0.7902  0.4078 -2.1394
    5MOL    H69 2077   2.896   3.146   3.959 -0.1708 -0.4518 -0.3462
    5MOL    H70 2078   2.878   2.927   3.874 -0.3614  0.2140  2.2498
    5MOL    H71 2079   2.734   3.008   3.829 -0.3142  1.4020  1.1159
    5MOL    H72 2080   2.835   2.888   3.635  0.4345 -0.4073 -0.6935
    5MOL    H73 2081   2.843   3.056   3.596 -0.6945  0.2359  1.0326
    5MOL    H74 2082   3.094   3.036   3.654 -0.4188  0.6741  0.0920
    5MOL    H75 2083   3.065   2.888   3.745 -1.4882  0.5611  0.6982
    5MOL    H76 2084   3.065   2.888   3.572 -0.4593 -1.6041  0.9214
    5MOL    C77 2085   2.878   3.396   4.233  0.3911  0.3929  0.3780
    5MOL    C78 2086   2.888   3.249   4.268 -0.5179  0.4229 -0.3892
    5MOL    O79 2087   2.752   3.211   4.292 -0.4986  0.3934  0.1969
    5MOL    C80 2088   2.721   3.081   4.228  0.2767  0.2524  0.0827
    5MOL    C81 2089   2.571   3.074   4.211  0.6348 -0.1697  0.1997
    5MOL    C82 2090   2.484   3.076   4.341 -0.3888  0.0036 -0.3376
    5MOL    C83 2091   2.336   3.072   4.318  0.3169 -0.7482  0.2722
    5MOL    C84 2092   2.255   3.102   4.446 -0.2007 -0.5988  0.1090
    5MOL    C85 2093   2.102   3.092   4.422 -0.0953 -0.6782 -0.3521
    5MOL    H86 2094   2.808   3.443   4.302  0.3074 -0.9316  1.2243
    5MOL    H87 2095   2.971   3.452   4.233 -0.3987  1.7613 -0.8546
    5MOL    H88 2096   2.930   3.199   4.180  2.2610  1.2548  0.4078
    5MOL    H89 2097   2.766   3.009   4.297  1.6221 -1.2727 -2.2946
    5MOL    H90 2098   2.770   3.062   4.133 -1.6447 -0.0137 -0.8839
    5MOL    H91 2099   2.533   2.983   4.164  0.2385  0.1180 -0.0481
    5MOL    H92 2100   2.543   3.161   4.151 -0.0407  0.0676  0.8406
    5MOL    H93 2101   2.504   2.988   4.402 -0.2454  0.7348  0.6812
    5MOL    H94 2102   2.509   3.153   4.413 -1.2474 -0.2253  0.2103
    5MOL    H95 2103   2.311   3.144   4.241 -0.1922 -1.0470  0.1568
    5MOL    H96 2104   2.309   2.975   4.278 -0.8745  0.3041 -1.5236
    5MOL    H97 2105   2.263   3.026   4.524  0.9779 -0.1963  0.3897
    5MOL    H98 2106   2.299   3.188   4.497 -0.5909 -1.4311  1.9005
    5MOL    H99 2107   2.068   3.003   4.476 -0.0217  0.6629  1.9485
    5MOL   H100 2108   2.047   3.181   4.452  1.9723  0.9752 -1.3615
    5MOL   H101 2109   2.071   3.084   4.318 -1.3797 -0.1021 -0.0236
    5MOL   C102 2110   2.981   3.204   4.384 -0.1047 -0.0063 -0.5590
    5MOL   C103 2111   3.125   3.250   4.366  0.5757  0.6230  0.2018
    5MOL   O104 2112   3.189   3.233   4.491  0.1456 -0.2847  0.0275
    5MOL   C105 2113   3.176   3.337   4.584  0.0695 -0.2621  0.0962
    5MOL   C106 2114   3.274   3.310   4.702 -0.1600 -0.0181 -0.4977
    5MOL   C107 2115   3.266   3.432   4.803  0.2718  0.9313 -0.2865
    5MOL   C108 2116   3.369   3.424   4.923 -0.0214  0.1250 -0.0172
    5MOL   C109 2117   3.306   3.483   5.052 -0.6851  0.2425  0.2425
    5MOL   C110 2118   3.398   3.453   5.172  0.1930 -0.2756  0.2903
    5MOL   H111 2119   2.928   3.252   4.467 -1.3191  1.5986 -2.2136
    5MOL   H112 2120   2.969   3.097   4.402  1.8361 -0.5643 -2.4797
    5MOL   H113 2121   3.137   3.357   4.349 -1.7509  0.8206 -0.3246
    5MOL   H114 2122   3.072   3.346   4.616  0.5660 -0.7747  1.8628
    5MOL   H115 2123   3.213   3.422   4.528 -0.7569 -0.6301 -1.0437
    5MOL   H116 2124   3.374   3.294   4.661  0.3935  1.3374  0.3047
    5MOL   H117 2125   3.258   3.213   4.750  0.1503 -1.9007 -3.9920
    5MOL   H118 2126   3.282   3.532   4.762 -0.8142  1.9067  1.6053
    5MOL   H119 2127   3.163   3.441   4.838 -0.2936  3.2422 -2.3344
    5MOL   H120 2128   3.406   3.322   4.934 -1.6489 -0.5028 -0.1712
    5MOL   H121 2129   3.461   3.478   4.901  2.0388 -3.1318  0.2579
    5MOL   H122 2130   3.280   3.589   5.052 -1.0623  0.1537 -0.8748
    5MOL   H123 2131   3.210   3.434   5.060  0.1673 -1.2184  1.6627
    5MOL   H124 2132   3.362   3.489   5.268  1.8687  1.6043  0.2506
    5MOL   H125 2133   3.416   3.345   5.177 -2.3445 -0.7305  0.1374
    5MOL   H126 2134   3.497   3.497   5.161 -0.5780  1.4145 -0.0662
    5MOL   C127 2135   3.199   3.155   4.263  0.4816  0.0496  0.2544
    5MOL   C128 2136   3.339   3.195   4.219  0.2460 -0.6759 -0.0604
    5MOL   O129 2137   3.335   3.325   4.159 -0.2235  0.2597 -0.4555
    5MOL   C130 2138   3.390   3.426   4.242  0.3314  0.1736 -0.5267
    5MOL   C131 2139   3.343   3.563   4.191 -0.0268 -1.0155 -0.0171
    5MOL   C132 2140   3.399   3.607   4.051 -0.2680 -0.5069  0.8018
    5MOL   C133 2141   3.327   3.729   3.998 -0.0595  0.2858 -0.2804
    5MOL   C134 2142   3.334   3.763   3.845 -0.1574 -0.0151 -0.3681
    5MOL   C135 2143   3.251   3.892   3.811  0.4445 -0.1647 -0.3795
    5MOL   H136 2144   3.210   3.054   4.303 -0.8869  0.6349  2.1810
    5MOL   H137 2145   3.151   3.143   4.166  2.2535 -2.4206 -0.3929
    5MOL   H138 2146   3.413   3.185   4.298 -0.1023  1.9204  0.6460
    5MOL   H139 2147   3.498   3.422   4.231  0.4993 -1.8768  1.3745
    5MOL   H140 2148   3.370   3.401   4.346 -1.0535  0.3527 -0.7377
    5MOL   H141 2149   3.371   3.644   4.258  0.1523  0.6099 -2.0093
    5MOL   H142 2150   3.234   3.556   4.191 -0.2543  1.9613 -0.3373
    5MOL   H143 2151   3.507   3.624   4.055 -0.1144 -1.0301 -0.7593
    5MOL   H144 2152   3.386   3.521   3.984 -0.1836  1.2466 -1.5139
    5MOL   H145 2153   3.223   3.720   4.029  0.5612  1.6236  2.3720
    5MOL   H146 2154   3.362   3.814   4.057  0.9148 -1.4647  1.7380
    5MOL   H147 2155   3.437   3.779   3.815 -0.2335  0.3937 -0.4133
    5MOL   H148 2156   3.289   3.684   3.785  0.0206  0.1216 -0.6796
    5MOL   H149 2157   3.148   3.864   3.831  0.4053 -0.0792 -0.4606
    5MOL   H150 2158   3.279   3.977   3.875  1.9714 -0.0852 -1.1435
    5MOL   H151 2159   3.258   3.929   3.709  1.3598  4.3186  1.1430
    5MOL   C152 2160   3.395   3.096   4.117 -0.2351 -0.3072 -0.4265
    5MOL   C153 2161   3.541   3.107   4.097 -0.0008 -0.1403  0.3462
    5MOL   O154 2162   3.607   3.063   4.216  0.0204 -0.1502 -0.7713
    5MOL   C155 2163   3.699   3.158   4.258 -0.1713 -0.4832  0.7966
    5MOL   C156 2164   3.825   3.185   4.171  0.8942  0.0427 -0.5350
    5MOL   C157 2165   3.923   3.266   4.253 -0.7069  0.1493 -0.5691
    5MOL   C158 2166   4.043   3.313   4.164 -0.6941  0.7626 -0.5300
    5MOL   C159 2167   4.153   3.382   4.241  0.1069  0.1077  0.3848
    5MOL   C160 2168   4.252   3.441   4.151  0.6058 -0.4030  0.2516
    5MOL   H161 2169   3.370   2.998   4.157 -1.5961  1.1484  2.5114
    5MOL   H162 2170   3.338   3.098   4.024 -1.5739  2.3210  0.3750
    5MOL   H163 2171   3.573   3.207   4.068  2.6696 -0.4872  1.8377
    5MOL   H164 2172   3.720   3.149   4.365  0.3402  2.3213  0.9888
    5MOL   H165 2173   3.655   3.258   4.267 -0.4043 -0.7303  2.5984
    5MOL   H166 2174   3.796   3.244   4.084  0.1478  0.5257  0.0333
    5MOL   H167 2175   3.867   3.099   4.119 -0.0362  0.3639 -1.8436
    5MOL   H168 2176   3.872   3.355   4.290  0.6637  0.5162  0.5037
    5MOL   H169 2177   3.951   3.206   4.340 -2.0183  1.8535  1.0773
    5MOL   H170 2178   4.098   3.233   4.113  1.3047  0.7679  1.5763
    5MOL   H171 2179   4.006   3.379   4.085  0.5669  1.4910 -0.5190
    5MOL   H172 2180   4.105   3.460   4.300 -1.5411  0.0852 -0.8828
    5MOL   H173 2181   4.204   3.313   4.307 -0.1699 -0.3295  0.1412
    5MOL   H174 2182   4.286   3.371   4.075  0.1005 -1.6467  1.1495
    5MOL   H175 2183   4.200   3.517   4.093 -2.9757 -2.2290  0.9487
    5MOL   H176 2184   4.336   3.476   4.212 -0.3356  0.2146  1.2153
    5MOL   C177 2185   3.587   3.023   3.975 -0.0871  0.5688  0.3752
    5MOL   C178 2186   3.545   3.064   3.830  0.4424  0.5263 -0.4439
    5MOL   O179 2187   3.596   3.196   3.803  0.0024 -0.3721  0.4405
    5MOL   C180 2188   3.493   3.303   3.809  0.6420 -0.0239 -0.0508
    5MOL   C181 2189   3.576   3.430   3.789  0.1633 -0.1549  0.1903
    5MOL   C182 2190   3.688   3.456   3.895 -0.2145 -0.5984  0.3570
    5MOL   C183 2191   3.746   3.604   3.890  0.1011  0.4957 -0.0100
    5MOL   C184 2192   3.850   3.646   3.995  0.5007  0.0583 -0.2329
    5MOL   C185 2193   3.903   3.786   3.966  0.3098  0.1832  0.4105
    5MOL   H186 2194   3.696   3.018   3.981  0.0594  0.3554 -1.9227
    5MOL   H187 2195   3.563   2.920   4.003 -0.0759 -0.3025 -2.6603
    5MOL   H188 2196   3.436   3.055   3.825  0.4620 -1.6969  1.7320
    5MOL   H189 2197   3.450   3.298   3.909  1.2094  0.1239  0.2045
    5MOL   H190 2198   3.419   3.292   3.730  1.3180 -1.8052 -0.4596
    5MOL   H191 2199   3.512   3.518   3.784 -0.1949 -0.5319 -2.6588
    5MOL   H192 2200   3.623   3.433   3.691 -1.3504  2.6508 -0.4982
    5MOL   H193 2201   3.652   3.443   3.997  0.8292 -0.0216  0.8082
    5MOL   H194 2202   3.773   3.388   3.886  0.4360  0.2146  0.3316
    5MOL   H195 2203   3.784   3.629   3.791  1.8760 -1.4280  0.1560
    5MOL   H196 2204   3.664   3.672   3.913 -0.0088 -0.1747  1.6742
    5MOL   H197 2205   3.803   3.657   4.093  1.3832 -2.7312  0.5445
    5MOL   H198 2206   3.936   3.579   3.992 -0.2171 -0.9277  0.7946
    5MOL   H199 2207   3.972   3.783   3.881  1.1432 -3.0411  1.1255
    5MOL   H200 2208   3.827   3.864   3.968  2.1355  2.0460 -1.0529
    5MOL   H201 2209   3.961   3.821   4.052 -1.2146 -3.1607  2.9053
    5MOL   C202 2210   3.614   2.969   3.723 -0.0125  0.3067 -0.0371
    5MOL   C203 2211   3.556   2.825   3.724  0.1634 -0.0035 -0.2216
    5MOL   O204 2212   3.633   2.729   3.651  0.1086 -0.0446  0.2059
    5MOL   C205 2213   3.764   2.715   3.703 -0.0847 -0.4637 -0.6547
    5MOL   C206 2214   3.825   2.580   3.664  0.0717 -0.3127 -0.8087
    5MOL   C207 2215   3.747   2.462   3.708  0.4913 -0.2288  0.0715
    5MOL   C208 2216   3.840   2.336   3.724  0.4374 -0.3926  0.4906
    5MOL   C209 2217   3.799   2.262   3.843 -1.2465  0.1457  0.0842
    5MOL   C210 2218   3.879   2.134   3.865  0.4275 -0.0851  0.5612
    5MOL   H211 2219   3.604   3.005   3.620  2.9822 -1.6475 -1.0998
    5MOL   H212 2220   3.722   2.961   3.736  0.4089  0.3815 -3.0699
    5MOL   H213 2221   3.543   2.783   3.823 -0.6902 -1.1755 -0.8260
    5MOL   H214 2222   3.764   2.714   3.812 -1.1396  3.0353 -0.5521
    5MOL   H215 2223   3.832   2.790   3.663  0.2054  0.4699  1.4821
    5MOL   H216 2224   3.919   2.579   3.720  0.7838 -1.0559 -1.9982
    5MOL   H217 2225   3.865   2.574   3.563  0.0159 -0.7139 -0.8078
    5MOL   H218 2226   3.689   2.474   3.800  1.4568  1.8832  0.4367
    5MOL   H219 2227   3.663   2.453   3.638  0.3729  0.1133  0.1663
    5MOL   H220 2228   3.860   2.278   3.635  1.9603 -0.7779  1.0497
    5MOL   H221 2229   3.939   2.380   3.737  0.4589 -0.3700  0.2486
    5MOL   H222 2230   3.811   2.325   3.931  1.5492  0.7272 -0.6929
    5MOL   H223 2231   3.696   2.224   3.839 -1.5848  1.1654 -1.4067
    5MOL   H224 2232   3.988   2.136   3.858  0.3969 -1.7588 -0.6274
    5MOL   H225 2233   3.848   2.083   3.956  0.0546 -2.0447 -0.6525
    5MOL   H226 2234   3.853   2.067   3.784  0.2619  1.2674 -0.5273
    5MOL   C227 2235   3.417   2.820   3.667 -0.3302  1.0730  0.0500
    5MOL   C228 2236   3.342   2.689   3.702 -0.5865 -0.4976 -0.1408
    5MOL   O229 2237   3.272   2.712   3.815  0.1357  0.0811  0.2091
    5MOL   C230 2238   3.293   2.615   3.913 -0.3423 -0.4923 -0.2313
    5MOL   C231 2239   3.200   2.654   4.034 -0.1981  0.2726 -0.5808
    5MOL   C232 2240   3.054   2.629   3.978 -0.2999  0.5050 -0.0618
    5MOL   C233 2241   2.943   2.696   4.055  0.6641  0.5636 -0.6420
    5MOL   C234 2242   2.813   2.668   3.975  0.2349 -0.4229  0.3512
    5MOL   C235 2243   2.689   2.726   4.049 -0.1188  1.1390  0.2346
    5MOL   H236 2244   3.359   2.905   3.704  0.2908  1.3332  0.4370
    5MOL   H237 2245   3.425   2.843   3.561  3.0751  0.0190  0.0084
    5MOL   H238 2246   3.422   2.615   3.712  0.0636 -0.1944 -2.7168
    5MOL   H239 2247   3.398   2.621   3.944 -0.5543  1.7954  0.0830
    5MOL   H240 2248   3.268   2.521   3.864 -1.0753  0.2569 -1.2978
    5MOL   H241 2249   3.203   2.761   4.056 -0.2226 -0.3878  2.7603
    5MOL   H242 2250   3.226   2.596   4.122 -1.2345  1.5815  0.6142
    5MOL   H243 2251   3.047   2.678   3.881  0.5448 -0.0793 -0.4278
    5MOL   H244 2252   3.020   2.527   3.962  1.9269  0.0453 -2.1491
    5MOL   H245 2253   2.950   2.675   4.162  1.7921  1.0049 -0.6229
    5MOL   H246 2254   2.957   2.803   4.065 -1.0318  0.6563  0.9949
    5MOL   H247 2255   2.823   2.705   3.873  2.4082 -1.2789  0.2223
    5MOL   H248 2256   2.789   2.561   3.975  1.9978 -0.8307  1.9456
    5MOL   H249 2257   2.587   2.693   4.030 -0.3536  1.7762  0.3698
    5MOL   H250 2258   2.703   2.712   4.156 -2.2548 -0.5198  0.3337
    5MOL   H251 2259   2.690   2.833   4.032  0.6140  1.2046  0.6669
    5MOL   C252 2260   3.238   2.643   3.590 -0.2023  0.2684  0.2559
    5MOL   C253 2261   3.299   2.553   3.478  0.1585  0.1576 -0.0300
    5MOL   O254 2262   3.203   2.514   3.376  0.1206 -0.3377 -0.0455
    5MOL   C255 2263   3.176   2.598   3.267 -0.2923 -0.3788  0.3854
    5MOL   C256 2264   3.078   2.528   3.166 -0.5195 -0.8248 -0.1575
    5MOL   C257 2265   2.935   2.556   3.198  0.1186  0.4700 -0.0175
    5MOL   C258 2266   2.838   2.464   3.124 -0.2240  0.5154 -0.0070
    5MOL   C259 2267   2.694   2.492   3.162 -0.7095  0.4935 -0.8109
    5MOL   C260 2268   2.586   2.408   3.093  0.7686  0.0256 -0.1336
    5MOL   H261 2269   3.157   2.584   3.633  0.9867 -1.3646  0.3346
    5MOL   H262 2270   3.189   2.730   3.546  1.2430  0.9676 -0.0124
    5MOL   H263 2271   3.379   2.608   3.427 -0.4123  1.3340  0.3188
    5MOL   H264 2272   3.274   2.615   3.222 -0.1467  2.8692  1.8552
    5MOL   H265 2273   3.144   2.694   3.307  2.0751  1.0179 -0.9850
    5MOL   H266 2274   3.108   2.424   3.165  0.3206 -0.5859 -1.4914
    5MOL   H267 2275   3.108   2.569   3.069  0.8355 -0.5140  0.3721
    5MOL   H268 2276   2.916   2.544   3.305  3.3147 -0.1188  0.5350
    5MOL   H269 2277   2.906   2.661   3.183 -0.5863  0.3356  0.3984
    5MOL   H270 2278   2.854   2.467   3.016  2.5443  2.1063  0.3982
    5MOL   H271 2279   2.872   2.365   3.156  0.5095  0.4493 -0.9633
    5MOL   H272 2280   2.691   2.459   3.266 -0.8438 -0.9183 -1.2500
    5MOL   H273 2281   2.662   2.596   3.159 -1.4096  0.3248  0.5293
    5MOL   H274 2282   2.602   2.301   3.101  0.5008  0.0563  0.8633
    5MOL   H275 2283   2.486   2.426   3.132 -0.0086 -3.8228 -0.1338
    5MOL   H276 2284   2.580   2.438   2.988  0.7742  1.0623  0.1575
    5MOL   C277 2285   3.353   2.417   3.529 -0.0045  0.3342 -0.1170
    5MOL   C278 2286   3.444   2.346   3.428  0.8116  0.7553  0.2016
    5MOL   O279 2287   3.564   2.409   3.389  0.6846  0.1506 -0.5776
    5MOL   C280 2288   3.571   2.444   3.255  0.2439  0.2125  0.4875
    5MOL   C281 2289   3.705   2.511   3.226  0.0379  0.4023 -0.3573
    5MOL   C282 2290   3.699   2.668   3.256  0.2524 -0.1792 -0.1832
    5MOL   C283 2291   3.828   2.744   3.225  0.2807  0.6003  0.0022
    5MOL   C284 2292   3.836   2.897   3.236 -0.4727  0.4623  0.3091
    5MOL   C285 2293   3.782   2.963   3.369  0.5709 -0.1401  0.0304
    5MOL   H286 2294   3.400   2.422   3.627 -0.1033 -1.1938  0.0336
    5MOL   H287 2295   3.266   2.354   3.548 -0.9511  1.2011 -1.4503
    5MOL   H288 2296   3.389   2.320   3.337  2.0516  0.1488 -0.3913
    5MOL   H289 2297   3.485   2.506   3.229 -1.0267 -0.6354  2.4756
    5MOL   H290 2298   3.567   2.359   3.187 -1.4883  0.0250  0.8037
    5MOL   H291 2299   3.733   2.493   3.122 -3.3936 -0.2619 -1.2322
    5MOL   H292 2300   3.787   2.464   3.280  0.7936  1.0588 -0.9279
    5MOL   H293 2301   3.617   2.696   3.190  1.8208  0.4812 -1.9362
    5MOL   H294 2302   3.668   2.687   3.358  2.8005 -0.1255  0.6145
    5MOL   H295 2303   3.891   2.712   3.308  0.6008  2.7379  0.6227
    5MOL   H296 2304   3.879   2.712   3.134  1.0881 -2.8586  1.5940
    5MOL   H297 2305   3.940   2.928   3.232 -0.0464 -1.0347 -0.4794
    5MOL   H298 2306   3.782   2.929   3.147 -0.7243 -3.1090 -0.9098
    5MOL   H299 2307   3.801   3.070   3.365  1.6730 -0.3672 -1.5074
    5MOL   H300 2308   3.673   2.955   3.377  0.5032 -0.6577 -1.2461
    5MOL   H301 2309   3.838   2.925   3.454  2.2383 -0.9631 -1.3919
    5MOL   C302 2310   3.501   2.213   3.473 -0.3656  0.0744  0.6139
    5MOL   C303 2311   3.395   2.104   3.504 -0.0846 -0.0392 -0.5563
    5MOL   O304 2312   3.418   2.039   3.625 -0.2380 -0.8389  0.4681
    5MOL   C305 2313   3.378   2.117   3.736  0.8548  0.1111 -0.0709
    5MOL   C306 2314   3.388   2.042   3.862 -0.2948 -0.2299 -0.4778
    5MOL   C307 2315   3.384   2.133   3.992  0.4256  0.2231  0.2131
    5MOL   C308 2316   3.406   2.049   4.121 -0.3436  0.0676  0.0163
    5MOL   C309 2317   3.436   2.142   4.238 -0.3113 -0.4652 -0.0237
    5MOL   C310 2318   3.495   2.081   4.367  0.1688 -0.4630 -0.6382
    5MOL   H311 2319   3.568   2.167   3.400 -1.1601 -0.0315 -0.0527
    5MOL   H312 2320   3.570   2.219   3.557  0.8642  0.5259 -0.4142
    5MOL   H313 2321   3.297   2.150   3.501  0.4930  1.2312 -0.0403
    5MOL   H314 2322   3.273   2.138   3.717  0.5473 -2.3216 -1.3702
    5MOL   H315 2323   3.433   2.210   3.749  1.0494 -0.1702  1.1795
    5MOL   H316 2324   3.482   1.986   3.863  0.6736  1.2799 -2.4720
    5MOL   H317 2325   3.309   1.969   3.877 -1.0626  0.3172 -1.7667
    5MOL   H318 2326   3.468   2.202   3.986 -0.6763  1.7749  2.2165
    5MOL   H319 2327   3.295   2.194   4.006  0.5249  0.5166 -0.4464
    5MOL   H320 2328   3.312   2.001   4.148  0.3766 -0.7415  1.1443
    5MOL   H321 2329   3.485   1.974   4.116 -0.0108  0.4165  0.0035
    5MOL   H322 2330   3.500   2.226   4.211  0.9659 -1.0190  1.2262
    5MOL   H323 2331   3.345   2.195   4.265  0.0121 -0.2236  0.5989
    5MOL   H324 2332   3.582   2.015   4.361  0.6935  0.0847  0.5782
    5MOL   H325 2333   3.530   2.170   4.419  0.9794 -2.3271  2.1707
    5MOL   H326 2334   3.423   2.035   4.435  1.9528  0.1664  1.7604
    5MOL   C327 2335   3.405   1.977   3.408  0.2264  0.3339 -0.0600
    5MOL   C328 2336   3.282   1.890   3.423 -0.2340  0.8550 -0.0213
    5MOL   O329 2337   3.167   1.962   3.365  0.5846 -0.5218  0.1398
    5MOL   C330 2338   3.041   1.929   3.425  0.0296  1.0891 -0.6583
    5MOL   C331 2339   2.954   2.057   3.405 -0.1190  0.2401 -0.2782
    5MOL   C332 2340   2.987   2.173   3.503 -0.1847  0.4783  0.0119
    5MOL   C333 2341   2.882   2.283   3.483 -0.8658 -0.7068 -0.3794
    5MOL   C334 2342   2.903   2.407   3.575 -0.5420  0.3562  0.0104
    5MOL   C335 2343   2.788   2.509   3.575  0.5384  0.4653 -0.1047
    5MOL   H336 2344   3.494   1.922   3.437 -0.3144 -0.6829 -0.3251
    5MOL   H337 2345   3.422   1.993   3.302 -1.3996 -0.2172 -0.4254
    5MOL   H338 2346   3.264   1.874   3.530 -2.4005  0.9010 -0.3593
    5MOL   H339 2347   3.042   1.915   3.533  1.2996  0.0613 -0.8006
    5MOL   H340 2348   3.001   1.843   3.371  3.3775  0.6293 -2.5654
    5MOL   H341 2349   2.853   2.022   3.430 -0.7095  1.3678 -1.0346
    5MOL   H342 2350   2.961   2.094   3.303  1.8022 -0.0308 -0.2632
    5MOL   H343 2351   2.984   2.141   3.607  0.1680  0.8772  0.1463
    5MOL   H344 2352   3.085   2.204   3.468  0.2110 -2.0439 -1.2547
    5MOL   H345 2353   2.891   2.319   3.380  1.3115 -1.1298 -0.3523
    5MOL   H346 2354   2.785   2.235   3.495 -0.4526 -1.5454 -0.3984
    5MOL   H347 2355   2.929   2.376   3.676 -1.5236 -2.7756 -0.6253
    5MOL   H348 2356   2.987   2.461   3.532 -0.3166  0.0327  0.0465
    5MOL   H349 2357   2.713   2.462   3.638  0.1943 -0.4406 -1.1686
    5MOL   H350 2358   2.823   2.607   3.610  1.0360 -0.0142  0.7583
    5MOL   H351 2359   2.746   2.524   3.475  0.7685  0.0774 -0.2626
    5MOL   C352 2360   3.303   1.752   3.351 -0.0718 -0.3143 -0.1089
    5MOL   C353 2361   3.343   1.650   3.454 -0.4587 -0.2742  0.0004
    5MOL   O354 2362   3.405   1.539   3.392 -0.0311  0.0242  0.3068
    5MOL   C355 2363   3.546   1.542   3.395 -0.3946 -0.5673 -0.0188
    5MOL   C356 2364   3.629   1.441   3.316  0.6856  0.5526  0.0139
    5MOL   C357 2365   3.574   1.303   3.325 -0.0555  0.5728 -0.5125
    5MOL   C358 2366   3.664   1.200   3.245  0.0392 -0.2433  1.0455
    5MOL   C359 2367   3.586   1.067   3.234  0.5822  0.1381 -0.2627
    5MOL   C360 2368   3.673   0.961   3.152  0.0183 -0.4503  0.1030
    5MOL   H361 2369   3.215   1.727   3.292  1.1245 -3.9234 -0.4853
    5MOL   H362 2370   3.389   1.753   3.284 -0.6856 -0.0645 -0.8953
    5MOL   H363 2371   3.414   1.701   3.519  1.7848 -2.8748 -0.3198
    5MOL   H364 2372   3.589   1.559   3.494 -0.4092 -0.4708 -0.0286
    5MOL   H365 2373   3.575   1.632   3.340  0.1602 -0.6105  0.1953
    5MOL   H366 2374   3.730   1.452   3.356  0.8843 -0.7019 -0.1246
    5MOL   H367 2375   3.621   1.468   3.211  0.9101 -1.7455 -0.6309
    5MOL   H368 2376   3.552   1.276   3.428  0.7315  0.2921 -0.4127
    5MOL   H369 2377   3.477   1.304   3.274 -0.5149 -0.4218  0.3475
    5MOL   H370 2378   3.684   1.237   3.145 -1.9013  1.1501  1.1327
    5MOL   H371 2379   3.760   1.176   3.291  0.3966 -0.1846  0.3289
    5MOL   H372 2380   3.563   1.021   3.330 -1.2908  2.1960  0.3116
    5MOL   H373 2381   3.495   1.101   3.185  0.5370  1.4004  0.6759
    5MOL   H374 2382   3.779   0.985   3.145  0.5112 -2.2378  1.2410
    5MOL   H375 2383   3.669   0.856   3.180 -0.7047 -0.6070 -0.5635
    5MOL   H376 2384   3.641   0.961   3.048 -0.3634 -1.4291  0.2168
    5MOL   C377 2385   3.227   1.598   3.537  0.7169  0.4500 -0.4835
    5MOL   C378 2386   3.251   1.492   3.643 -0.3433  0.0079  0.2401
    5MOL   O379 2387   3.128   1.468   3.706  0.3103  0.9746 -0.6859
    5MOL   C380 2388   3.067   1.343   3.678  0.4095 -0.3119  0.4819
    5MOL   C381 2389   2.990   1.293   3.799  0.7063  0.4795  0.3741
    5MOL   C382 2390   2.853   1.370   3.819  0.3088 -0.1108  0.4489
    5MOL   C383 2391   2.778   1.345   3.954 -0.1411  0.6388  0.6889
    5MOL   C384 2392   2.651   1.425   3.983 -0.9231 -1.1480  0.2672
    5MOL   C385 2393   2.585   1.406   4.120  0.2036  0.9399  0.9382
    5MOL   H386 2394   3.188   1.690   3.581 -0.9453 -0.9759  1.1009
    5MOL   H387 2395   3.146   1.566   3.472  2.7943  0.8229 -3.3655
    5MOL   H388 2396   3.289   1.403   3.593  0.9890 -0.2212  1.6076
    5MOL   H389 2397   3.145   1.270   3.654  0.4466 -0.6410  1.6042
    5MOL   H390 2398   3.002   1.361   3.592 -1.3583  1.2195  2.1125
    5MOL   H391 2399   3.057   1.296   3.885  0.2695  0.2625  0.7281
    5MOL   H392 2400   2.952   1.191   3.786  0.7844  0.4352  0.4955
    5MOL   H393 2401   2.879   1.475   3.804  2.2102 -0.3857  1.5732
    5MOL   H394 2402   2.780   1.338   3.745  0.6332  2.1175 -0.8726
    5MOL   H395 2403   2.762   1.238   3.949 -1.1916  0.8231  0.1249
    5MOL   H396 2404   2.851   1.361   4.034 -1.1275 -1.2823  2.0001
    5MOL   H397 2405   2.651   1.532   3.966  1.4256 -1.3434 -1.2017
    5MOL   H398 2406   2.581   1.392   3.905 -1.9283 -1.5613  1.3327
    5MOL   H399 2407   2.656   1.417   4.202 -0.2733  0.7086  1.3831
    5MOL   H400 2408   2.504   1.476   4.141 -0.9682 -0.8077  2.3016
    5MOL   H401 2409   2.547   1.304   4.122  2.7619 -0.1058 -0.9585
    5MOL   C402 2410   3.355   1.540   3.747 -0.2379 -0.4890 -0.0952
    5MOL   C403 2411   3.384   1.443   3.860  0.1458 -0.2805 -0.2452
    5MOL   O404 2412   3.459   1.506   3.956 -0.0095  0.0355  0.0206
    5MOL   C405 2413   3.374   1.561   4.057  0.2254 -0.8451 -0.7204
    5MOL   C406 2414   3.466   1.657   4.134  0.1936  0.0140 -0.9310
    5MOL   C407 2415   3.577   1.581   4.218  0.1956 -0.4717  0.2781
    5MOL   C408 2416   3.666   1.681   4.295 -0.7119  0.8781 -0.2450
    5MOL   C409 2417   3.748   1.770   4.203  0.0266  0.1569  0.2721
    5MOL   C410 2418   3.854   1.851   4.273 -0.0864 -0.2226  0.2642
    5MOL   H411 2419   3.321   1.635   3.786  1.8964 -0.1299  0.9535
    5MOL   H412 2420   3.445   1.568   3.693  0.1410  1.3415  1.4869
    5MOL   H413 2421   3.290   1.409   3.902  0.3843 -1.8026 -0.9084
    5MOL   H414 2422   3.343   1.478   4.120 -2.0974  1.0797  0.7692
    5MOL   H415 2423   3.297   1.610   3.998  0.5965 -0.6778 -1.0718
    5MOL   H416 2424   3.397   1.712   4.198  0.6211 -0.9247  0.3625
    5MOL   H417 2425   3.515   1.728   4.068  1.1784 -1.1968 -1.5119
    5MOL   H418 2426   3.520   1.518   4.286 -0.4653  0.3091  0.4634
    5MOL   H419 2427   3.647   1.518   4.164  0.0025 -1.2694  0.9610
    5MOL   H420 2428   3.604   1.742   4.360  1.5192  1.5061  1.3275
    5MOL   H421 2429   3.734   1.625   4.359 -1.3594  0.3083 -0.0557
    5MOL   H422 2430   3.797   1.713   4.125  1.2162 -0.4610  1.4396
    5MOL   H423 2431   3.684   1.844   4.156 -1.0442 -2.1822 -2.0383
    5MOL   H424 2432   3.931   1.785   4.314  0.4281 -0.6014 -1.2788
    5MOL   H425 2433   3.919   1.910   4.208  0.9887  1.4435  2.7258
    5MOL   H426 2434   3.822   1.917   4.354 -1.0965 -0.1881 -0.1567
    5MOL   C427 2435   3.476   1.328   3.808 -0.0802  0.4416  0.0697
    5MOL   C428 2436   3.497   1.216   3.917  0.5438 -0.4663 -0.1273
    5MOL   O429 2437   3.567   1.109   3.854  0.4156 -0.0105 -0.5984
    5MOL   C430 2438   3.481   1.010   3.802 -0.3517  0.3945 -0.4250
    5MOL   C431 2439   3.557   0.910   3.720 -0.2997  0.1777  0.6546
    5MOL   C432 2440   3.501   0.764   3.704  0.6808 -0.0217 -0.1834
    5MOL   C433 2441   3.585   0.665   3.623  0.0632 -0.5231 -0.5016
    5MOL   C434 2442   3.566   0.690   3.469  0.0958 -1.0458  0.1825
    5MOL   C435 2443   3.429   0.706   3.411 -0.2757  0.1393 -0.2135
    5MOL   H436 2444   3.441   1.281   3.716  1.0969  0.8889 -0.6165
    5MOL   H437 2445   3.570   1.378   3.782 -0.7183  1.4209 -0.3753
    5MOL   H438 2446   3.407   1.173   3.962  0.1730 -0.0042 -0.4190
    5MOL   H439 2447   3.396   1.049   3.746 -0.5362  2.6585  1.3207
    5MOL   H440 2448   3.452   0.956   3.892 -0.6195  2.0593  0.5209
    5MOL   H441 2449   3.654   0.911   3.770 -0.7512  0.5836  1.5431
    5MOL   H442 2450   3.566   0.954   3.621 -0.3417 -1.0748  0.0996
    5MOL   H443 2451   3.496   0.729   3.807  1.3024 -2.2618 -0.8816
    5MOL   H444 2452   3.397   0.759   3.672  0.6284 -0.9928  0.1142
    5MOL   H445 2453   3.692   0.673   3.644 -0.0181 -1.4508  0.2534
    5MOL   H446 2454   3.556   0.565   3.654 -3.1593  0.3807 -0.4587
    5MOL   H447 2455   3.617   0.782   3.440 -0.4555 -1.3900 -1.9430
    5MOL   H448 2456   3.621   0.610   3.419  1.6781  2.0914 -3.3665
    5MOL   H449 2457   3.376   0.794   3.448 -1.8126 -0.3488 -1.2111
    5MOL   H450 2458   3.441   0.727   3.305  1.6809 -2.0388 -0.4759
    5MOL   H451 2459   3.361   0.621   3.425 -2.2561  1.4720 -1.5292
    5MOL   C452 2460   3.589   1.245   4.037 -0.6065 -0.0884  0.4913
    5MOL   C453 2461   3.615   1.129   4.131 -0.4479 -0.3732 -0.4226
    5MOL   O454 2462   3.500   1.102   4.205  0.4616 -0.1429  0.1735
    5MOL   C455 2463   3.458   0.971   4.218 -0.2371  0.0083 -0.0217
    5MOL   C456 2464   3.320   0.961   4.288 -0.3347  0.1445  0.6454
    5MOL   C457 2465   3.196   0.996   4.187 -0.2932  0.0881 -1.1319
    5MOL   C458 2466   3.063   1.005   4.264  0.1982  0.3589  0.0906
    5MOL   C459 2467   2.986   1.127   4.214  0.3661 -0.4275 -0.5212
    5MOL   C460 2468   2.849   1.143   4.268 -0.5783 -0.4312  0.0745
    5MOL   H461 2469   3.686   1.271   3.995 -2.0852 -0.5822 -3.4612
    5MOL   H462 2470   3.554   1.329   4.098  1.0033 -0.2903  1.7301
    5MOL   H463 2471   3.649   1.044   4.072  1.7078  0.5143 -0.4878
    5MOL   H464 2472   3.531   0.921   4.281 -0.7939  0.5568  1.0942
    5MOL   H465 2473   3.463   0.920   4.122 -0.3057  1.6115 -0.8950
    5MOL   H466 2474   3.311   1.026   4.374 -1.2452 -0.1060  0.7463
    5MOL   H467 2475   3.307   0.859   4.323  0.2939 -0.9025 -2.0232
    5MOL   H468 2476   3.215   1.096   4.147 -0.7327  1.2443  1.4440
    5MOL   H469 2477   3.183   0.922   4.108 -1.1155 -0.5524 -0.4168
    5MOL   H470 2478   3.011   0.911   4.248  2.0464 -0.6744  0.0545
    5MOL   H471 2479   3.081   1.023   4.370 -1.7069 -0.1194  0.5236
    5MOL   H472 2480   3.034   1.222   4.239  2.3700 -0.6382 -3.2133
    5MOL   H473 2481   2.970   1.118   4.106  0.1878  0.5622 -0.5892
    5MOL   H474 2482   2.807   1.052   4.225  0.1257 -2.5557  3.6980
    5MOL   H475 2483   2.846   1.117   4.374 -0.1801  0.8652  0.4097
    5MOL   H476 2484   2.794   1.230   4.231  0.9238  0.0854 -0.9848
    5MOL   C477 2485   3.727   1.147   4.235  0.5176  0.5111 -0.1406
    5MOL   C478 2486   3.863   1.114   4.166  0.2642 -0.5491  0.1479
    5MOL   O479 2487   3.965   1.191   4.210 -0.2001 -0.1154 -0.0640
    5MOL   C480 2488   3.967   1.322   4.140  0.1812  0.0623 -0.1162
    5MOL   C481 2489   4.082   1.394   4.202 -0.4052  0.4896 -0.2202
    5MOL   C482 2490   4.224   1.344   4.166 -0.8846  0.1774 -0.4753
    5MOL   C483 2491   4.336   1.433   4.228 -0.7367 -0.9337 -0.3199
    5MOL   C484 2492   4.484   1.376   4.207  0.0023 -0.5680  0.1572
    5MOL   C485 2493   4.580   1.459   4.297  0.0802 -0.0418  0.7021
    5MOL   H486 2494   3.721   1.243   4.286 -2.6317  0.4624 -0.3461
    5MOL   H487 2495   3.716   1.071   4.312 -0.1522  0.6940 -0.0525
    5MOL   H488 2496   3.897   1.010   4.174  0.8185 -0.5325 -1.7478
    5MOL   H489 2497   3.879   1.382   4.163  2.1043  3.5674 -1.4681
    5MOL   H490 2498   3.984   1.305   4.034  0.4794  0.3314 -0.1129
    5MOL   H491 2499   4.075   1.414   4.309 -0.2715  0.9494 -0.2963
    5MOL   H492 2500   4.088   1.498   4.170  1.9376  0.2461 -0.6346
    5MOL   H493 2501   4.249   1.242   4.197  1.9456  0.4309 -1.8606
    5MOL   H494 2502   4.237   1.349   4.058 -1.8553 -1.8176 -0.7088
    5MOL   H495 2503   4.328   1.532   4.185 -2.1465 -1.7284 -1.9213
    5MOL   H496 2504   4.318   1.454   4.334  1.6360  1.2727 -0.3163
    5MOL   H497 2505   4.497   1.269   4.219  1.1095 -0.2163  2.3341
    5MOL   H498 2506   4.506   1.398   4.102  0.8219 -0.8341  0.2724
    5MOL   H499 2507   4.571   1.567   4.284 -0.2580 -0.1114  0.3365
    5MOL   H500 2508   4.564   1.439   4.402  0.5129  1.0584  0.9848
    5MOL   H501 2509   4.687   1.440   4.281  0.7521  1.8283  2.6703
    5MOL   H502 2510   3.855   1.135   4.059 -0.7097  0.7406  0.4699
    6MOL     C1 2511   4.146   1.090   5.513 -0.2289 -0.1604 -0.1000
    6MOL     C2 2512   4.075   1.218   5.510  0.3917  0.0300  0.3606
    6MOL     O3 2513   4.075   1.259   5.377  0.2349  0.3671  0.6505
    6MOL     C4 2514   3.951   1.285   5.313 -0.0106  0.1595 -0.5338
    6MOL     C5 2515   3.956   1.365   5.187  0.8749 -0.3393 -0.2442
    6MOL     C6 2516   3.965   1.520   5.194  0.3936  0.7372 -0.2176
    6MOL     C7 2517   3.963   1.589   5.056 -0.5033  0.0923 -0.6892
    6MOL     C8 2518   3.999   1.738   5.053 -0.4574  0.5422  0.0839
    6MOL     C9 2519   3.907   1.817   5.145 -0.1899 -0.2303  0.0863
    6MOL    H10 2520   4.104   1.011   5.451 -1.3199  0.3989 -0.0855
    6MOL    H11 2521   4.253   1.105   5.499 -0.1225  0.7674  1.5788
    6MOL    H12 2522   3.973   1.205   5.548  0.5269 -1.4351  0.2575
    6MOL    H13 2523   3.882   1.329   5.385  1.4928  1.4784  0.1243
    6MOL    H14 2524   3.918   1.189   5.272  2.2214 -0.2020 -1.5452
    6MOL    H15 2525   3.881   1.349   5.110 -1.0312 -0.2999  1.5709
    6MOL    H16 2526   4.042   1.323   5.134  0.4518  0.4176 -1.5543
    6MOL    H17 2527   3.885   1.560   5.256 -2.2001 -2.8835 -1.1121
    6MOL    H18 2528   4.057   1.544   5.249  0.0803 -0.5884  0.9093
    6MOL    H19 2529   4.023   1.536   4.982  2.6393 -0.8080  2.3660
    6MOL    H20 2530   3.860   1.584   5.020 -1.6915 -0.3834  2.6538
    6MOL    H21 2531   3.986   1.781   4.954 -1.7632 -1.4285 -0.6229
    6MOL    H22 2532   4.104   1.754   5.077 -0.6334  0.6023  0.8267
    6MOL    H23 2533   3.927   1.808   5.252 -1.1583  1.1945  0.3914
    6MOL    H24 2534   3.917   1.922   5.116 -1.3560 -0.2556 -0.4166
    6MOL    H25 2535   3.802   1.792   5.132 -0.2746 -0.9544  1.9958
    6MOL    H26 2536   4.140   1.055   5.616  2.8318  0.4257  0.3224
    6MOL    C27 2537   4.148   1.328   5.587 -0.3511  0.4363  0.0904
    6MOL    C28 2538   4.074   1.455   5.605  0.5290  0.1120  0.0491
    6MOL    O29 2539   3.955   1.409   5.671 -0.1473 -0.3898  0.4113
    6MOL    C30 2540   3.847   1.493   5.639  0.4346  0.1240 -0.0773
    6MOL    C31 2541   3.737   1.451   5.728 -0.8021 -0.5513 -0.0378
    6MOL    C32 2542   3.777   1.457   5.880 -0.0497 -1.0050 -0.0999
    6MOL    C33 2543   3.780   1.605   5.937  0.0652  0.1335 -0.3200
    6MOL    C34 2544   3.833   1.626   6.084 -0.0911 -0.1363 -0.0530
    6MOL    C35 2545   3.984   1.600   6.094 -0.2081  0.5287 -0.8389
    6MOL    H36 2546   4.161   1.288   5.688 -0.0692  0.1420 -0.0621
    6MOL    H37 2547   4.245   1.350   5.542  1.0680  1.3539  3.4398
    6MOL    H38 2548   4.051   1.497   5.507  0.2226 -1.6919 -0.6708
    6MOL    H39 2549   3.817   1.480   5.535  3.6872 -1.8572 -0.8605
    6MOL    H40 2550   3.866   1.599   5.653  1.1382  0.0017 -0.0727
    6MOL    H41 2551   3.696   1.358   5.690 -1.8809 -0.2771  0.4416
    6MOL    H42 2552   3.652   1.518   5.715  0.1230  1.0384  1.7261
    6MOL    H43 2553   3.701   1.406   5.941 -0.3000 -0.3614  0.1277
    6MOL    H44 2554   3.864   1.394   5.900  1.8089  2.3619  3.0603
    6MOL    H45 2555   3.843   1.667   5.874 -0.0929  0.3636 -0.2540
    6MOL    H46 2556   3.678   1.638   5.915 -0.0301  0.5997  0.7902
    6MOL    H47 2557   3.810   1.732   6.089 -1.6024 -0.4274 -0.7606
    6MOL    H48 2558   3.782   1.574   6.166  1.0706 -1.6948 -0.2940
    6MOL    H49 2559   3.997   1.492   6.091  0.5031  0.4640  2.5850
    6MOL    H50 2560   4.048   1.647   6.019  2.3055 -0.8341  0.3838
    6MOL    H51 2561   4.013   1.630   6.195 -0.7624  0.1830 -0.5728
    6MOL    C52 2562   4.151   1.545   5.701 -0.2550 -0.1994 -0.1239
    6MOL    C53 2563   4.273   1.616   5.635  0.6872  0.4983  0.1504
    6MOL    O54 2564   4.235   1.700   5.530  0.4642 -0.1389  0.4095
    6MOL    C55 2565   4.335   1.710   5.430  0.0350  0.7970 -0.2625
    6MOL    C56 2566   4.283   1.802   5.323 -0.9178 -0.0192  0.1518
    6MOL    C57 2567   4.374   1.816   5.197  0.3069  0.0142 -0.3116
    6MOL    C58 2568   4.333   1.926   5.096  0.3960  0.4758 -0.1667
    6MOL    C59 2569   4.382   2.070   5.136  0.0573  0.0239  0.2929
    6MOL    C60 2570   4.527   2.117   5.117 -0.0230 -0.2331  0.3789
    6MOL    H61 2571   4.183   1.485   5.786 -1.2589  2.5440  2.2915
    6MOL    H62 2572   4.084   1.626   5.731  2.0386  2.5786 -2.1792
    6MOL    H63 2573   4.343   1.544   5.592  3.2622  3.7514 -1.3561
    6MOL    H64 2574   4.363   1.615   5.385  0.0181  0.5482  0.2482
    6MOL    H65 2575   4.429   1.749   5.469 -0.7684  2.1194  0.4309
    6MOL    H66 2576   4.243   1.894   5.367 -2.4060 -0.2476 -0.6681
    6MOL    H67 2577   4.194   1.759   5.276  0.6206 -0.8548 -2.0575
    6MOL    H68 2578   4.474   1.835   5.235 -0.2118  0.6531  0.7709
    6MOL    H69 2579   4.362   1.717   5.151  0.0197 -0.2231  0.2646
    6MOL    H70 2580   4.395   1.903   5.010 -0.2033 -1.0383 -0.2075
    6MOL    H71 2581   4.229   1.913   5.066  0.2866 -2.2778  1.2277
    6MOL    H72 2582   4.323   2.128   5.066 -1.7174 -3.9708 -1.6697
    6MOL    H73 2583   4.355   2.104   5.236  1.0980  0.2318  0.5168
    6MOL    H74 2584   4.600   2.063   5.178  0.1695 -0.8126 -0.3577
    6MOL    H75 2585   4.542   2.101   5.011 -3.1331  0.4243 -0.2062
    6MOL    H76 2586   4.537   2.224   5.139  2.0159 -0.3136 -0.0872
    6MOL    C77 2587   4.341   1.710   5.736  0.0324  0.1898  0.0226
    6MOL    C78 2588   4.426   1.639   5.845 -0.1855 -0.8224 -0.3696
    6MOL    O79 2589   4.454   1.744   5.941  0.4374 -0.3571  0.0500
    6MOL    C80 2590   4.387   1.726   6.062 -0.4185 -0.6779  0.3845
    6MOL    C81 2591   4.441   1.610   6.153 -0.0447  0.1136 -0.1848
    6MOL    C82 2592   4.347   1.590   6.271  0.7006 -0.1353  0.1021
    6MOL    C83 2593   4.389   1.466   6.346  0.3426 -0.3566  0.2574
    6MOL    C84 2594   4.294   1.417   6.463 -0.7632  0.5899  0.9940
    6MOL    C85 2595   4.365   1.290   6.519 -0.3686 -0.9174 -0.0800
    6MOL    H86 2596   4.258   1.764   5.783 -0.2189  0.3887 -0.6509
    6MOL    H87 2597   4.399   1.790   5.689  0.0209  0.2549  0.1175
    6MOL    H88 2598   4.374   1.555   5.891 -0.0050 -0.4235  0.5817
    6MOL    H89 2599   4.280   1.711   6.050 -0.4135  0.1278 -0.6967
    6MOL    H90 2600   4.403   1.821   6.114  0.9729  0.4865 -2.0897
    6MOL    H91 2601   4.532   1.650   6.196  0.1591 -1.7523  1.1529
    6MOL    H92 2602   4.463   1.521   6.094 -2.1547 -0.7166  0.2207
    6MOL    H93 2603   4.352   1.686   6.323 -1.6410  0.1343 -0.1419
    6MOL    H94 2604   4.248   1.575   6.227 -0.6497  1.1821  2.6154
    6MOL    H95 2605   4.409   1.378   6.285  1.5300 -0.6566  1.0540
    6MOL    H96 2606   4.485   1.492   6.391 -0.0064 -0.0915  0.8662
    6MOL    H97 2607   4.273   1.502   6.529  1.4782 -0.0207  2.5560
    6MOL    H98 2608   4.201   1.388   6.414 -0.5840 -0.6127  1.3482
    6MOL    H99 2609   4.396   1.215   6.447 -0.0422 -0.6842 -0.1783
    6MOL   H100 2610   4.450   1.322   6.579  0.9792  1.8694 -3.3835
    6MOL   H101 2611   4.288   1.242   6.581  0.3496 -2.2329 -0.1967
    6MOL   C102 2612   4.552   1.572   5.780  0.0518  0.2773  0.1031
    6MOL   C103 2613   4.579   1.421   5.805 -0.6409 -0.1286  0.0117
    6MOL   O104 2614   4.462   1.350   5.763 -0.2654  0.3442  0.0309
    6MOL   C105 2615   4.441   1.218   5.813 -0.9054 -0.5530 -0.0934
    6MOL   C106 2616   4.348   1.227   5.933 -0.2663  0.0315  0.4742
    6MOL   C107 2617   4.307   1.091   5.990 -0.1533  0.5754 -0.6589
    6MOL   C108 2618   4.214   1.089   6.113  0.7300  0.0218  0.2258
    6MOL   C109 2619   4.086   1.172   6.100 -0.1335  0.3908  0.0234
    6MOL   C110 2620   4.003   1.146   6.223  0.1375 -0.4400  0.0158
    6MOL   H111 2621   4.552   1.589   5.672  0.4659 -2.2999 -0.3368
    6MOL   H112 2622   4.638   1.630   5.814  0.3222  0.4780 -0.9026
    6MOL   H113 2623   4.597   1.404   5.911 -0.6118 -3.8078 -0.5147
    6MOL   H114 2624   4.536   1.169   5.835 -0.2788  1.1045  0.9929
    6MOL   H115 2625   4.393   1.155   5.738  0.6560  1.8595 -3.2518
    6MOL   H116 2626   4.255   1.269   5.896 -1.2173 -2.0326  0.4335
    6MOL   H117 2627   4.381   1.297   6.009 -2.5674  2.3255 -0.5760
    6MOL   H118 2628   4.260   1.029   5.913  0.5927 -0.4183 -0.3225
    6MOL   H119 2629   4.402   1.044   6.015 -0.9943 -1.0531 -0.4800
    6MOL   H120 2630   4.188   0.987   6.140  1.5023 -0.1110  0.4988
    6MOL   H121 2631   4.275   1.115   6.200 -1.0589  0.0694  1.4943
    6MOL   H122 2632   4.094   1.280   6.089 -3.3194  0.6439 -0.3216
    6MOL   H123 2633   4.039   1.135   6.009 -0.9831  0.3670  0.4714
    6MOL   H124 2634   3.896   1.157   6.210  0.1297 -0.7513 -0.1938
    6MOL   H125 2635   4.021   1.042   6.249  1.5720  0.0510  1.0613
    6MOL   H126 2636   4.024   1.207   6.310  0.2765 -1.9051  1.0234
    6MOL   C127 2637   4.703   1.374   5.724 -0.0196 -0.5213 -0.0429
    6MOL   C128 2638   4.837   1.447   5.759 -0.0046  0.6530  0.3625
    6MOL   O129 2639   4.911   1.475   5.640  0.0987  0.2982  0.3830
    6MOL   C130 2640   4.870   1.606   5.587  0.0831 -0.2336  0.9320
    6MOL   C131 2641   4.903   1.615   5.436  0.0060 -0.2236 -1.0965
    6MOL   C132 2642   4.816   1.513   5.348 -0.4957 -0.2203 -0.0088
    6MOL   C133 2643   4.673   1.565   5.320 -0.8330 -0.1642 -0.6788
    6MOL   C134 2644   4.594   1.465   5.241 -0.0840 -0.2605  0.0686
    6MOL   C135 2645   4.574   1.330   5.317 -0.0278  0.6874  0.1138
    6MOL   H136 2646   4.708   1.265   5.731  2.4079 -0.4667 -0.4899
    6MOL   H137 2647   4.675   1.373   5.619 -0.0859 -1.2455 -0.0192
    6MOL   H138 2648   4.827   1.539   5.817 -1.5683  0.8497 -0.2022
    6MOL   H139 2649   4.921   1.689   5.637 -2.4372  0.7157  2.0220
    6MOL   H140 2650   4.763   1.622   5.599 -0.0548 -0.0950 -0.3936
    6MOL   H141 2651   5.008   1.594   5.412  0.7743  0.3845  1.5337
    6MOL   H142 2652   4.869   1.715   5.408 -2.0793 -0.3786  0.7834
    6MOL   H143 2653   4.862   1.497   5.251 -1.4556  1.2531 -0.7189
    6MOL   H144 2654   4.813   1.419   5.404  1.8192  0.1419  0.7796
    6MOL   H145 2655   4.621   1.609   5.404  2.9074  1.2790  1.0251
    6MOL   H146 2656   4.686   1.651   5.255 -1.3674  1.9132  1.8849
    6MOL   H147 2657   4.498   1.514   5.221  0.5445  1.1758  0.5512
    6MOL   H148 2658   4.635   1.431   5.146 -1.1679 -0.4830 -0.3346
    6MOL   H149 2659   4.544   1.332   5.422  0.4554  2.4389  0.2424
    6MOL   H150 2660   4.500   1.269   5.266 -1.4600  1.3442  1.3603
    6MOL   H151 2661   4.672   1.283   5.312 -0.8900 -1.1231 -0.1503
    6MOL   C152 2662   4.914   1.352   5.853 -0.3140 -0.0163 -0.4226
    6MOL   C153 2663   5.046   1.415   5.918  0.6874 -0.0557 -0.6403
    6MOL   O154 2664   4.988   1.503   6.020  0.2629  0.1176  0.2764
    6MOL   C155 2665   5.070   1.618   6.048  0.0213 -0.1653 -0.1517
    6MOL   C156 2666   5.013   1.692   6.164  0.2513 -0.8591 -0.5708
    6MOL   C157 2667   4.886   1.765   6.130  0.0534  0.1023 -0.8689
    6MOL   C158 2668   4.834   1.876   6.235 -0.3926 -0.0885  0.1616
    6MOL   C159 2669   4.909   2.010   6.220  0.3085 -0.2648 -0.3597
    6MOL   C160 2670   4.831   2.134   6.283  0.3495  0.1974 -0.1199
    6MOL   H161 2671   4.850   1.317   5.934  0.7722  1.6214  1.1916
    6MOL   H162 2672   4.947   1.265   5.797  0.5408  1.3960 -2.2072
    6MOL   H163 2673   5.089   1.477   5.840  1.4418 -0.4277 -0.5244
    6MOL   H164 2674   5.085   1.680   5.959  2.5230  0.5564  0.7453
    6MOL   H165 2675   5.172   1.593   6.076  0.5190  2.3625  0.4387
    6MOL   H166 2676   5.095   1.750   6.206 -1.7909  0.5166  1.6647
    6MOL   H167 2677   4.996   1.620   6.244 -0.6295  1.1329  1.0762
    6MOL   H168 2678   4.894   1.824   6.039  0.2960  1.2766 -0.0983
    6MOL   H169 2679   4.806   1.694   6.112 -1.0956  0.4768  2.3302
    6MOL   H170 2680   4.729   1.891   6.209 -0.3799  1.4582  0.9658
    6MOL   H171 2681   4.837   1.845   6.340  2.5526 -1.5125 -0.2949
    6MOL   H172 2682   5.007   1.994   6.264 -0.1192  2.3235  1.6402
    6MOL   H173 2683   4.922   2.035   6.115  1.2926 -0.4332 -0.2803
    6MOL   H174 2684   4.898   2.219   6.266  0.9650 -0.3631 -0.5056
    6MOL   H175 2685   4.746   2.150   6.218 -0.0186 -4.1486 -0.7920
    6MOL   H176 2686   4.804   2.124   6.388 -3.3123  1.4061 -0.8927
    6MOL   C177 2687   5.149   1.327   5.990  0.0937 -0.2387  0.0547
    6MOL   C178 2688   5.217   1.216   5.908 -0.6284  0.0363  0.1457
    6MOL   O179 2689   5.286   1.287   5.813  0.2097 -0.1434  0.0050
    6MOL   C180 2690   5.310   1.211   5.695  0.0546  0.2412  0.9209
    6MOL   C181 2691   5.253   1.289   5.578  0.5546 -0.2049  0.7949
    6MOL   C182 2692   5.288   1.216   5.444  0.1140  0.2557  0.0121
    6MOL   C183 2693   5.436   1.219   5.406 -0.0831  0.3244  0.1624
    6MOL   C184 2694   5.479   1.149   5.272  0.6208 -0.6823  0.4457
    6MOL   C185 2695   5.630   1.180   5.253 -0.1424 -0.2247 -0.3231
    6MOL   H186 2696   5.236   1.385   6.021  0.3685  0.3695 -1.7852
    6MOL   H187 2697   5.103   1.284   6.079 -2.2958  5.2255  1.7190
    6MOL   H188 2698   5.139   1.154   5.864  0.4780 -1.2340 -0.0617
    6MOL   H189 2699   5.281   1.106   5.702  1.3079 -0.0674  1.5456
    6MOL   H190 2700   5.417   1.200   5.682 -0.0281 -1.4263  1.4798
    6MOL   H191 2701   5.298   1.388   5.579  3.1368 -1.2449 -2.2060
    6MOL   H192 2702   5.146   1.304   5.590  0.2928 -0.6734 -0.8488
    6MOL   H193 2703   5.252   1.114   5.448  0.9536 -0.2635 -3.5725
    6MOL   H194 2704   5.237   1.272   5.365  0.2878 -0.6839 -0.7696
    6MOL   H195 2705   5.483   1.318   5.414 -1.2725  1.0314 -1.2693
    6MOL   H196 2706   5.492   1.164   5.481  2.0879  0.4770 -1.2794
    6MOL   H197 2707   5.468   1.041   5.273  1.1893 -0.7363  1.9739
    6MOL   H198 2708   5.414   1.185   5.192 -1.4162 -3.9705  0.5450
    6MOL   H199 2709   5.684   1.149   5.343 -1.8838  0.1780  0.8990
    6MOL   H200 2710   5.667   1.129   5.164  3.2562  2.9646 -0.8259
    6MOL   H201 2711   5.649   1.286   5.234 -0.6283 -0.0082  0.3537
    6MOL   C202 2712   5.316   1.118   5.991  0.1655  0.1879 -0.1422
    6MOL   C203 2713   5.254   1.033   6.108 -0.0481  0.1374  0.0409
    6MOL   O204 2714   5.248   1.128   6.215  0.1129  0.3623 -0.0289
    6MOL   C205 2715   5.160   1.097   6.322  0.4656  0.9514  0.4972
    6MOL   C206 2716   5.141   1.223   6.417 -0.1127 -0.1579  0.1298
    6MOL   C207 2717   5.058   1.175   6.527 -0.4163 -0.0211 -0.8096
    6MOL   C208 2718   5.034   1.288   6.627  0.0735  0.1958  0.1588
    6MOL   C209 2719   4.937   1.395   6.577  0.1219 -0.4212 -0.5748
    6MOL   C210 2720   4.868   1.491   6.681  0.0404  0.4831  0.5645
    6MOL   H211 2721   5.356   1.047   5.919  1.4155  0.3604  0.3543
    6MOL   H212 2722   5.400   1.163   6.044  1.7642 -1.5780 -1.1263
    6MOL   H213 2723   5.157   0.984   6.098 -0.6507  1.2607  0.3499
    6MOL   H214 2724   5.206   1.012   6.373  1.9989  0.2900 -1.9016
    6MOL   H215 2725   5.058   1.076   6.290  0.2151  1.6032  0.8547
    6MOL   H216 2726   5.093   1.297   6.353  0.4678  0.6715  0.6498
    6MOL   H217 2727   5.235   1.265   6.451  0.1840 -1.1961  0.6056
    6MOL   H218 2728   4.961   1.130   6.506 -0.6994  0.0495  0.3198
    6MOL   H219 2729   5.105   1.099   6.590  0.4590 -0.5908 -2.1306
    6MOL   H220 2730   4.997   1.241   6.718  1.5070 -3.3851 -1.0084
    6MOL   H221 2731   5.131   1.333   6.646  1.3098 -1.5450 -1.7638
    6MOL   H222 2732   4.993   1.455   6.504  0.4877 -2.2397 -1.8306
    6MOL   H223 2733   4.853   1.346   6.528 -0.5867 -0.3239  0.5430
    6MOL   H224 2734   4.767   1.456   6.702 -0.2786 -0.3695 -2.3074
    6MOL   H225 2735   4.927   1.488   6.773 -0.5246 -1.2314  0.8887
    6MOL   H226 2736   4.859   1.598   6.661  0.4505  0.4423  0.1755
    6MOL   C227 2737   5.352   0.917   6.145  0.0325  1.2545  0.2222
    6MOL   C228 2738   5.325   0.792   6.053  0.1155 -0.1500 -0.7999
    6MOL   O229 2739   5.433   0.711   6.100 -0.5093  0.1194  0.4357
    6MOL   C230 2740   5.537   0.675   6.004  0.1867 -0.6271 -0.2111
    6MOL   C231 2741   5.623   0.559   6.061 -0.2392 -0.0379 -0.0117
    6MOL   C232 2742   5.731   0.513   5.967  0.0367 -0.2185 -0.4823
    6MOL   C233 2743   5.800   0.388   6.021  0.0522 -0.2153  0.7034
    6MOL   C234 2744   5.898   0.314   5.932 -0.2859  0.2193  0.0187
    6MOL   C235 2745   5.965   0.193   5.997 -0.1769  0.5660  0.8460
    6MOL   H236 2746   5.454   0.949   6.125  1.2450 -0.8063  2.7784
    6MOL   H237 2747   5.353   0.891   6.251  2.0162  0.5108  0.0537
    6MOL   H238 2748   5.345   0.814   5.948  0.9978  2.3423 -0.1268
    6MOL   H239 2749   5.599   0.765   5.995 -0.4596 -0.1325  0.2438
    6MOL   H240 2750   5.497   0.641   5.909  0.6477  1.7244 -1.2701
    6MOL   H241 2751   5.558   0.479   6.096  0.8141 -0.1414  1.7983
    6MOL   H242 2752   5.672   0.601   6.149 -0.5966  2.2277 -0.8671
    6MOL   H243 2753   5.691   0.502   5.867 -1.2793 -2.1312  0.2321
    6MOL   H244 2754   5.797   0.599   5.954 -0.1852  0.1447  0.7387
    6MOL   H245 2755   5.853   0.412   6.113  0.4345 -0.8438  0.6502
    6MOL   H246 2756   5.723   0.319   6.054  0.2639 -0.1429  1.3473
    6MOL   H247 2757   5.851   0.278   5.841  0.7590  2.0970 -1.2910
    6MOL   H248 2758   5.974   0.389   5.909 -0.3911  0.4787  0.5043
    6MOL   H249 2759   5.888   0.119   6.019 -0.0054  0.4417  1.0324
    6MOL   H250 2760   6.037   0.144   5.931  0.4638  2.6940 -0.0696
    6MOL   H251 2761   6.005   0.218   6.096  1.3781  0.1622  0.3293
    6MOL   C252 2762   5.197   0.714   6.092  0.2595 -0.0375 -0.7856
    6MOL   C253 2763   5.078   0.728   5.991  0.2623  0.6559  0.0086
    6MOL   O254 2764   5.000   0.845   6.030 -0.1590 -0.2465  0.1985
    6MOL   C255 2765   4.887   0.880   5.948  0.1345  0.3619 -0.1701
    6MOL   C256 2766   4.838   1.016   5.989  0.3106  0.2966 -0.1005
    6MOL   C257 2767   4.752   1.027   6.118 -0.1941 -0.1852 -0.0323
    6MOL   C258 2768   4.700   1.171   6.146  0.3365  0.3436 -0.6290
    6MOL   C259 2769   4.802   1.262   6.212  0.0936 -0.4591 -0.1355
    6MOL   C260 2770   4.752   1.408   6.217 -0.5105 -0.1743 -0.2624
    6MOL   H261 2771   5.224   0.609   6.091 -0.1576 -0.1581  0.4494
    6MOL   H262 2772   5.173   0.737   6.196 -0.0035 -3.4704 -0.0423
    6MOL   H263 2773   5.121   0.750   5.894 -0.7978  0.7186 -0.4589
    6MOL   H264 2774   4.803   0.811   5.948 -0.3888  0.9665 -1.6920
    6MOL   H265 2775   4.925   0.878   5.846  0.0603 -0.7837 -0.1797
    6MOL   H266 2776   4.792   1.063   5.902  0.2918 -0.4846 -0.5211
    6MOL   H267 2777   4.928   1.073   6.009  0.5510 -0.9448  2.5128
    6MOL   H268 2778   4.671   0.954   6.120 -1.4479  1.1564 -0.8683
    6MOL   H269 2779   4.824   0.985   6.189  1.0049 -1.2081 -1.7990
    6MOL   H270 2780   4.665   1.219   6.054 -0.3566  2.1276  0.5388
    6MOL   H271 2781   4.612   1.152   6.207  0.2458  1.2928 -0.4561
    6MOL   H272 2782   4.841   1.229   6.308  2.1067 -1.1319 -1.1567
    6MOL   H273 2783   4.893   1.266   6.151  0.1186 -1.3907 -0.1684
    6MOL   H274 2784   4.737   1.462   6.124  0.9820 -1.7661 -1.4741
    6MOL   H275 2785   4.663   1.418   6.279  0.7920 -0.5084  1.7009
    6MOL   H276 2786   4.834   1.459   6.267 -1.1156  0.9894 -0.4394
    6MOL   C277 2787   5.006   0.592   5.990  0.0514 -0.3811  0.3090
    6MOL   C278 2788   4.915   0.564   6.104 -0.7177  0.6545 -0.3064
    6MOL   O279 2789   4.828   0.471   6.057  0.0368 -0.2630  0.2453
    6MOL   C280 2790   4.699   0.525   6.032 -0.3743 -0.4055  0.4738
    6MOL   C281 2791   4.623   0.400   5.997  0.5216 -0.1429  0.6353
    6MOL   C282 2792   4.597   0.299   6.113 -0.0065  0.0218  0.4851
    6MOL   C283 2793   4.533   0.167   6.056  0.1691  0.7668  0.5371
    6MOL   C284 2794   4.511   0.066   6.175  0.1213  0.0892 -0.1609
    6MOL   C285 2795   4.633   7.769   6.225  0.1692  0.1366 -0.1768
    6MOL   H286 2796   4.947   0.591   5.899  0.3736  0.8937  0.0783
    6MOL   H287 2797   5.077   0.510   5.975  1.2256  0.6242  0.3065
    6MOL   H288 2798   4.874   0.658   6.140  0.5428  0.9771  0.3092
    6MOL   H289 2799   4.708   0.590   5.946  1.4604 -2.2626 -0.7952
    6MOL   H290 2800   4.661   0.564   6.126  0.6565 -0.3659  0.8826
    6MOL   H291 2801   4.673   0.365   5.907 -1.3421 -1.0001 -0.0940
    6MOL   H292 2802   4.524   0.431   5.962  1.0774 -0.5852 -1.3925
    6MOL   H293 2803   4.689   0.273   6.165  0.4438  1.9168  0.6519
    6MOL   H294 2804   4.542   0.339   6.198 -0.6306 -0.0005  0.0955
    6MOL   H295 2805   4.434   0.195   6.021 -0.6724 -2.1903  0.4233
    6MOL   H296 2806   4.585   0.124   5.971 -0.6775  2.5088 -0.8999
    6MOL   H297 2807   4.462   0.117   6.257 -1.8250 -0.9653 -0.6237
    6MOL   H298 2808   4.434   7.771   6.150 -1.1070  1.7544 -1.3652
    6MOL   H299 2809   4.693   0.057   6.287 -1.2785  2.6173 -1.3701
    6MOL   H300 2810   4.604   7.693   6.298  1.5104 -1.0845 -0.9029
    6MOL   H301 2811   4.690   7.723   6.145 -1.5488 -2.3481 -0.0424
    6MOL   C302 2812   4.995   0.482   6.211 -0.5473  0.6143  0.7575
    6MOL   C303 2813   4.908   0.445   6.333  0.4671 -0.0235  0.2111
    6MOL   O304 2814   4.859   0.565   6.389 -0.3269 -0.8007 -0.0105
    6MOL   C305 2815   4.957   0.659   6.434  0.3052 -0.2799 -0.7389
    6MOL   C306 2816   4.908   0.747   6.548  0.0633 -0.0127 -0.2088
    6MOL   C307 2817   4.809   0.854   6.506 -0.4202  0.1111 -0.6497
    6MOL   C308 2818   4.753   0.934   6.625 -0.5855  0.0069 -0.2008
    6MOL   C309 2819   4.684   1.073   6.595  0.1957 -0.4510  0.3391
    6MOL   C310 2820   4.638   1.160   6.714  0.7821 -0.0339  0.0523
    6MOL   H311 2821   5.022   0.387   6.165  2.3018  2.6933 -2.0928
    6MOL   H312 2822   5.089   0.527   6.245  0.0260  0.2138 -0.2731
    6MOL   H313 2823   4.819   0.394   6.296 -1.3798  1.9850  1.7075
    6MOL   H314 2824   4.998   0.715   6.350 -2.9194 -0.9300 -2.8196
    6MOL   H315 2825   5.033   0.592   6.473  1.2441  0.7915 -0.6960
    6MOL   H316 2826   4.996   0.791   6.596  0.0840  1.2464 -1.3735
    6MOL   H317 2827   4.851   0.690   6.622  0.2044 -0.9134 -0.8018
    6MOL   H318 2828   4.850   0.929   6.438  1.7459 -2.0931 -1.8891
    6MOL   H319 2829   4.723   0.809   6.456 -0.8094 -1.0401  1.0442
    6MOL   H320 2830   4.689   0.869   6.685 -0.6773  0.2624 -0.0208
    6MOL   H321 2831   4.836   0.958   6.691 -2.4053  0.3300  2.0525
    6MOL   H322 2832   4.749   1.144   6.544 -0.4250 -1.4000 -1.8220
    6MOL   H323 2833   4.604   1.053   6.524  1.6460  4.0472 -2.8271
    6MOL   H324 2834   4.540   1.127   6.750  0.2847  2.5709  1.1419
    6MOL   H325 2835   4.708   1.150   6.796 -0.7845  0.0264  1.4293
    6MOL   H326 2836   4.624   1.263   6.681  0.3238 -0.3206 -0.6706
    6MOL   C327 2837   4.970   0.348   6.431 -0.0981 -0.4667 -0.9312
    6MOL   C328 2838   4.895   0.340   6.570  0.3867 -0.1709  0.0669
    6MOL   O329 2839   4.776   0.280   6.520  0.3396  0.2535  0.4950
    6MOL   C330 2840   4.663   0.290   6.606 -0.0163  0.2949  0.7930
    6MOL   C331 2841   4.546   0.246   6.513 -0.1059  0.0754  0.2969
    6MOL   C332 2842   4.417   0.255   6.593 -0.0074 -0.3274 -0.0642
    6MOL   C333 2843   4.296   0.229   6.495 -0.3878 -0.5075  0.1530
    6MOL   C334 2844   4.165   0.184   6.550 -0.2949  0.4713  0.2816
    6MOL   C335 2845   4.118   0.251   6.683  0.0848 -0.4015  0.2224
    6MOL   H336 2846   5.075   0.375   6.438 -0.4857  1.3739 -1.7721
    6MOL   H337 2847   4.970   0.252   6.381  2.4767 -1.1643  0.3493
    6MOL   H338 2848   4.885   0.438   6.618  0.7775  0.4391 -1.0822
    6MOL   H339 2849   4.653   0.386   6.656  0.6660  0.1897  1.1331
    6MOL   H340 2850   4.676   0.223   6.692  0.3347 -2.0325 -1.0276
    6MOL   H341 2851   4.563   0.140   6.492  2.1539  0.7227 -1.3487
    6MOL   H342 2852   4.538   0.298   6.417 -3.2710  1.3187  1.1612
    6MOL   H343 2853   4.417   0.172   6.663 -0.9021 -0.7978 -0.6048
    6MOL   H344 2854   4.407   0.347   6.650 -2.7551 -1.6970  1.7939
    6MOL   H345 2855   4.294   0.329   6.450  0.7827 -0.8689 -0.7133
    6MOL   H346 2856   4.322   0.168   6.409  0.4695 -1.5316  1.1326
    6MOL   H347 2857   4.083   0.197   6.479 -0.5972 -1.7063  0.2041
    6MOL   H348 2858   4.177   0.077   6.570  3.3039  0.5980 -0.8718
    6MOL   H349 2859   4.021   0.221   6.721 -0.5028  1.2175  0.0451
    6MOL   H350 2860   4.192   0.227   6.759 -0.4627  0.9916  1.2026
    6MOL   H351 2861   4.121   0.360   6.684 -1.3053 -0.3200 -1.5404
    6MOL   C352 2862   4.976   0.251   6.665 -0.3092  0.3666 -0.1640
    6MOL   C353 2863   5.081   0.327   6.751  1.0556  0.6034  0.3951
    6MOL   O354 2864   5.184   0.379   6.666  0.1144 -0.1120 -0.3651
    6MOL   C355 2865   5.231   0.509   6.692 -0.4301 -0.5883  0.2687
    6MOL   C356 2866   5.338   0.559   6.599  0.1047  0.2309  0.7542
    6MOL   C357 2867   5.463   0.478   6.595 -0.0972  0.0230  0.3668
    6MOL   C358 2868   5.571   0.527   6.499  0.5711 -0.5133 -0.1924
    6MOL   C359 2869   5.700   0.439   6.494  0.2324  1.0266 -0.7206
    6MOL   C360 2870   5.818   0.511   6.430  0.2103 -0.1779  0.1314
    6MOL   H361 2871   4.904   0.204   6.732 -2.6102  4.6252  0.5351
    6MOL   H362 2872   5.032   0.168   6.623 -0.6005  1.2149 -2.3230
    6MOL   H363 2873   5.034   0.416   6.792  0.4337  1.1012 -1.3639
    6MOL   H364 2874   5.268   0.523   6.793  1.9607 -2.6275 -0.2522
    6MOL   H365 2875   5.146   0.576   6.686  0.7226  0.7492 -1.8065
    6MOL   H366 2876   5.361   0.658   6.639  3.4647  0.8695 -2.4849
    6MOL   H367 2877   5.292   0.561   6.500  0.7038 -0.8582  0.4490
    6MOL   H368 2878   5.500   0.466   6.697 -2.1469  1.8095  1.3415
    6MOL   H369 2879   5.434   0.380   6.556 -0.3556  0.3931 -0.3899
    6MOL   H370 2880   5.538   0.529   6.395 -0.2125 -1.7972  0.0214
    6MOL   H371 2881   5.605   0.624   6.534 -1.5071 -0.0926  0.7766
    6MOL   H372 2882   5.730   0.403   6.592 -0.8119  0.6957 -0.5135
    6MOL   H373 2883   5.685   0.349   6.433  0.6741  0.2334  0.3380
    6MOL   H374 2884   5.794   0.565   6.339  2.8942  1.3375  0.2895
    6MOL   H375 2885   5.841   0.591   6.500  0.7882 -1.9366  2.0204
    6MOL   H376 2886   5.905   0.446   6.423 -0.3121 -0.7984 -0.6948
    6MOL   C377 2887   5.148   0.231   6.857  0.1836  0.2412  0.8043
    6MOL   C378 2888   5.247   0.293   6.959  0.4358  0.5183  0.0362
    6MOL   O379 2889   5.303   0.183   7.030  0.0689 -0.0268 -0.1638
    6MOL   C380 2890   5.434   0.160   6.991  0.5617  0.2884  0.7396
    6MOL   C381 2891   5.493   0.042   7.070  0.2145  0.3061 -0.4667
    6MOL   C382 2892   5.478   0.061   7.224 -0.0077 -0.4045  0.4177
    6MOL   C383 2893   5.583   7.762   7.299 -0.2608  0.2724  0.6380
    6MOL   C384 2894   5.588   0.011   7.446  0.8715  0.7012  0.0198
    6MOL   C385 2895   5.694   7.720   7.523  0.4208  0.8580 -0.6127
    6MOL   H386 2896   5.068   0.192   6.920  0.7760 -0.5769  1.0592
    6MOL   H387 2897   5.193   0.138   6.822 -0.2042 -0.3412  1.8330
    6MOL   H388 2898   5.321   0.344   6.897 -0.9284 -0.1077 -2.1708
    6MOL   H389 2899   5.487   0.255   7.002 -0.9264  1.2713 -0.2963
    6MOL   H390 2900   5.439   0.131   6.886  0.0065  0.1476  0.7530
    6MOL   H391 2901   5.598   0.053   7.042  0.2486 -0.7639 -0.7984
    6MOL   H392 2902   5.447   7.723   7.054 -2.2339  0.5593  4.0752
    6MOL   H393 2903   5.473   0.169   7.241 -1.7024 -0.3809 -0.1477
    6MOL   H394 2904   5.377   0.027   7.245 -0.8769  1.7783 -0.0819
    6MOL   H395 2905   5.562   7.655   7.288 -0.4292  0.6681 -3.9646
    6MOL   H396 2906   5.685   7.768   7.260  0.1599 -1.2941  1.4313
    6MOL   H397 2907   5.586   0.120   7.459 -1.1221  0.8063 -1.0191
    6MOL   H398 2908   5.490   7.761   7.485  1.2431  1.4389  1.5323
    6MOL   H399 2909   5.794   7.753   7.497  0.2362 -1.3609 -4.5022
    6MOL   H400 2910   5.676   7.754   7.625 -0.5705  1.3823 -0.9568
    6MOL   H401 2911   5.684   7.612   7.513 -1.6453  1.1931 -2.5584
    6MOL   C402 2912   5.170   0.371   7.070  0.5075 -0.1845  0.1759
    6MOL   C403 2913   5.257   0.465   7.159  0.6273  0.2572 -0.3507
    6MOL   O404 2914   5.189   0.507   7.273 -0.2648 -0.3247  0.4505
    6MOL   C405 2915   5.207   0.413   7.383  0.1579  1.3113  0.2999
    6MOL   C406 2916   5.116   0.455   7.495  0.4321  0.3725  0.0374
    6MOL   C407 2917   4.966   0.466   7.462 -0.3403  0.3855 -0.2996
    6MOL   C408 2918   4.883   0.531   7.578  0.4247 -0.3415 -0.0630
    6MOL   C409 2919   4.730   0.508   7.559 -0.5608 -0.7205  0.7154
    6MOL   C410 2920   4.688   0.361   7.572 -0.5673  0.1218  0.1264
    6MOL   H411 2921   5.118   0.304   7.139 -1.5667  0.1053 -1.0690
    6MOL   H412 2922   5.093   0.440   7.035  0.6428 -0.6075 -0.9928
    6MOL   H413 2923   5.336   0.396   7.189  0.2043 -0.0316  0.1120
    6MOL   H414 2924   5.309   0.395   7.416 -0.2790 -0.9456  0.4856
    6MOL   H415 2925   5.168   0.316   7.352 -0.9482  0.9803  2.6252
    6MOL   H416 2926   5.145   0.547   7.546  0.8508 -1.1304  2.6041
    6MOL   H417 2927   5.132   0.381   7.573 -3.9132  0.7583  1.4430
    6MOL   H418 2928   4.950   0.532   7.377 -1.2528 -0.8559 -1.1204
    6MOL   H419 2929   4.934   0.367   7.428  2.6266 -0.7779  0.1404
    6MOL   H420 2930   4.913   0.482   7.671  2.1223 -0.7628 -0.8073
    6MOL   H421 2931   4.898   0.639   7.579 -1.4106 -0.0688  0.4939
    6MOL   H422 2932   4.673   0.556   7.638  0.8552 -0.8228  1.8160
    6MOL   H423 2933   4.707   0.556   7.464  2.6802  1.5545  0.9976
    6MOL   H424 2934   4.754   0.293   7.519 -2.2854 -1.5188  0.0457
    6MOL   H425 2935   4.698   0.329   7.676 -1.0780  3.1644  1.1952
    6MOL   H426 2936   4.582   0.354   7.547 -0.4666 -0.6055 -0.0840
    6MOL   C427 2937   5.330   0.582   7.103 -0.5481  0.0908  1.0297
    6MOL   C428 2938   5.419   0.648   7.202  0.4630 -0.0869  0.2842
    6MOL   O429 2939   5.535   0.575   7.212 -0.4394 -0.4838 -0.2544
    6MOL   C430 2940   5.594   0.588   7.342 -0.1318 -0.0636 -0.4085
    6MOL   C431 2941   5.736   0.527   7.334 -0.3061  0.7644  0.1666
    6MOL   C432 2942   5.735   0.372   7.341 -0.5254 -0.0894  0.3017
    6MOL   C433 2943   5.872   0.305   7.324 -0.5913 -1.0746 -0.5241
    6MOL   C434 2944   5.944   0.315   7.188 -0.0112 -0.5680 -0.8798
    6MOL   C435 2945   5.865   0.249   7.071  0.3962 -0.0792 -0.1378
    6MOL   H436 2946   5.385   0.538   7.019  0.3029  1.5993  0.7878
    6MOL   H437 2947   5.254   0.654   7.073  0.9298  0.3243 -2.4552
    6MOL   H438 2948   5.364   0.656   7.296 -0.9626  0.7042 -0.6112
    6MOL   H439 2949   5.541   0.524   7.412  1.0810  1.1327  1.6754
    6MOL   H440 2950   5.588   0.690   7.382 -0.8496 -0.8146  1.4362
    6MOL   H441 2951   5.786   0.559   7.425  0.0913  2.1812 -0.5317
    6MOL   H442 2952   5.784   0.565   7.244  0.3350 -0.1076  0.1382
    6MOL   H443 2953   5.696   0.349   7.441  1.5565  1.7646  1.6041
    6MOL   H444 2954   5.673   0.334   7.260 -2.0042 -0.0753  1.3920
    6MOL   H445 2955   5.942   0.346   7.396  0.0358 -3.1077  0.0460
    6MOL   H446 2956   5.861   0.200   7.351  0.3754 -1.0292  0.0485
    6MOL   H447 2957   5.948   0.417   7.151  0.6132 -1.0075 -2.0749
    6MOL   H448 2958   6.046   0.278   7.204 -0.3608 -1.0743  0.1788
    6MOL   H449 2959   5.773   0.307   7.059  0.3506 -0.1334 -0.0529
    6MOL   H450 2960   5.919   0.249   6.977 -1.2395 -0.0791 -1.0923
    6MOL   H451 2961   5.837   0.146   7.089 -1.9853  0.5337 -0.2402
    6MOL   C452 2962   5.457   0.788   7.140  0.6594  0.6320  0.1438
    6MOL   C453 2963   5.420   0.899   7.237 -0.0481  0.5927  0.4549
    6MOL   O454 2964   5.284   0.915   7.233 -0.1531  0.2016  0.0697
    6MOL   C455 2965   5.216   0.908   7.363  0.8468 -0.0939  0.1441
    6MOL   C456 2966   5.065   0.904   7.344  0.1123  0.2669  0.0737
    6MOL   C457 2967   5.026   0.804   7.232 -0.0764  0.1702 -0.4450
    6MOL   C458 2968   4.875   0.787   7.211 -0.8328  0.0475 -0.6058
    6MOL   C459 2969   4.854   0.691   7.098 -0.3231 -0.2656  0.1122
    6MOL   C460 2970   4.879   0.748   6.951  0.1503  0.6001 -0.9585
    6MOL   H461 2971   5.565   0.790   7.126  0.3580 -0.1060 -2.4891
    6MOL   H462 2972   5.403   0.821   7.051  0.8126  2.2900  0.6369
    6MOL   H463 2973   5.467   0.894   7.335 -1.6585 -0.2313  1.1984
    6MOL   H464 2974   5.243   0.986   7.434  0.3098  0.3180 -0.1108
    6MOL   H465 2975   5.237   0.813   7.413  0.5476 -0.0324  0.3863
    6MOL   H466 2976   5.035   1.006   7.317 -3.4797 -1.3251 -2.2301
    6MOL   H467 2977   5.012   0.880   7.435  1.0814  0.4391  0.6977
    6MOL   H468 2978   5.068   0.841   7.138 -0.3171 -1.7411 -1.3164
    6MOL   H469 2979   5.069   0.706   7.248 -0.9640  0.0549  1.3659
    6MOL   H470 2980   4.825   0.746   7.298  0.3546 -0.7521 -0.2979
    6MOL   H471 2981   4.835   0.888   7.198 -0.3091  0.1454 -1.5628
    6MOL   H472 2982   4.914   0.603   7.121 -1.7285 -0.8394  1.7288
    6MOL   H473 2983   4.756   0.644   7.108 -0.4033 -0.4890 -1.6164
    6MOL   H474 2984   4.815   0.835   6.935  0.3811  0.9506 -0.0509
    6MOL   H475 2985   4.982   0.779   6.930  1.1423 -0.5812  1.9187
    6MOL   H476 2986   4.855   0.671   6.878 -1.7260  0.7790 -0.5619
    6MOL   C477 2987   5.473   1.031   7.178  0.1157 -0.0449 -0.0370
    6MOL   C478 2988   5.623   1.059   7.208  0.0824 -0.0551  0.9286
    6MOL   O479 2989   5.710   0.990   7.118 -0.0070 -0.3336 -0.1599
    6MOL   C480 2990   5.852   0.984   7.148  0.3501  0.6977  0.0633
    6MOL   C481 2991   5.891   0.898   7.276  0.2374 -0.5485 -0.1641
    6MOL   C482 2992   6.043   0.887   7.294  0.1492  0.3071  0.5056
    6MOL   C483 2993   6.090   0.801   7.414 -0.7982 -0.8900 -0.6032
    6MOL   C484 2994   6.094   0.866   7.554  0.3990  0.5571  0.1411
    6MOL   C485 2995   6.159   0.781   7.662  0.0786 -0.5419 -0.7380
    6MOL   H486 2996   5.468   1.032   7.069  1.1469  1.2911 -0.0915
    6MOL   H487 2997   5.421   1.119   7.217 -1.0157  0.0537 -1.7306
    6MOL   H488 2998   5.641   1.164   7.182 -0.5336 -0.4536 -1.2066
    6MOL   H489 2999   5.894   1.083   7.162  1.5028  0.1688  0.4421
    6MOL   H490 3000   5.896   0.938   7.060  0.1967  1.8634 -0.6160
    6MOL   H491 3001   5.854   0.796   7.282 -1.5340  0.0805 -0.0885
    6MOL   H492 3002   5.845   0.951   7.360  2.1952  0.8763  0.0270
    6MOL   H493 3003   6.081   0.848   7.199  1.3979  0.2035  1.0399
    6MOL   H494 3004   6.077   0.990   7.294  1.0367  0.0689 -2.3021
    6MOL   H495 3005   6.034   0.707   7.420 -0.2335 -1.1633  0.4760
    6MOL   H496 3006   6.196   0.779   7.414 -0.6037  0.0416 -0.0808
    6MOL   H497 3007   6.148   0.959   7.538  0.3253  0.7472  0.9660
    6MOL   H498 3008   5.997   0.908   7.581  0.3579 -0.2196  1.2679
    6MOL   H499 3009   6.259   0.744   7.639  1.2007  1.8666  0.1582
    6MOL   H500 3010   6.176   0.843   7.749  0.0128  0.9732 -1.7916
    6MOL   H501 3011   6.098   0.693   7.685 -0.1633 -0.0036  0.7145
    6MOL   H502 3012   5.647   1.050   7.314 -0.0755 -2.0601  0.8030
    7MOL     C1 3013   5.030   2.853   0.141  0.1464  0.6576 -0.3936
    7MOL     C2 3014   5.117   2.982   0.146  0.5252  1.0694  0.1061
    7MOL     O3 3015   5.250   2.931   0.175 -0.4103 -0.1536 -0.6692
    7MOL     C4 3016   5.349   2.968   0.085 -0.3135  0.3761 -0.1575
    7MOL     C5 3017   5.484   2.891   0.110 -0.1319 -0.1508  0.6749
    7MOL     C6 3018   5.576   2.921   7.767  0.2653  0.0982 -0.5606
    7MOL     C7 3019   5.708   2.836   0.007  0.4887 -0.5423  0.1141
    7MOL     C8 3020   5.818   2.898   0.097  0.3506 -0.7807 -0.6218
    7MOL     C9 3021   5.936   2.814   0.121  0.2171  0.1062  0.1726
    7MOL    H10 3022   5.047   2.793   0.230  1.1070  2.5219  0.7188
    7MOL    H11 3023   4.928   2.887   0.124  0.8229  2.0122 -1.8659
    7MOL    H12 3024   5.115   3.041   0.055 -2.5264  0.1057 -0.5057
    7MOL    H13 3025   5.369   3.075   0.087  1.1854  0.0922  1.8639
    7MOL    H14 3026   5.309   2.956   7.763  0.7205  0.2543 -0.5592
    7MOL    H15 3027   5.457   2.786   0.121 -1.6684 -0.0590 -1.8975
    7MOL    H16 3028   5.532   2.926   0.201  1.8297  0.9640 -0.7658
    7MOL    H17 3029   5.516   2.883   7.684 -0.2071 -1.5546  0.5165
    7MOL    H18 3030   5.595   3.027   7.748  0.4125  0.5978  2.2339
    7MOL    H19 3031   5.682   2.733   0.035  1.3607 -0.7954  0.0212
    7MOL    H20 3032   5.752   2.821   7.687  1.4881 -1.2729  0.6546
    7MOL    H21 3033   5.768   2.920   0.191  1.7272 -1.4548  0.2728
    7MOL    H22 3034   5.847   2.998   0.066  0.7334 -0.6896  0.0369
    7MOL    H23 3035   5.918   2.737   0.197  0.0683  1.2811  1.3387
    7MOL    H24 3036   5.979   2.774   0.028 -0.2963  1.9651 -0.8789
    7MOL    H25 3037   6.024   2.870   0.154  0.8080 -0.8016  0.1890
    7MOL    H26 3038   5.069   2.804   0.052 -2.3030  0.6282 -1.4959
    7MOL    C27 3039   5.077   3.073   0.266  0.2386  0.2597 -0.2700
    7MOL    C28 3040   5.173   3.192   0.282  0.0768  0.1433  0.5569
    7MOL    O29 3041   5.108   3.309   0.331 -0.6240  0.0518  0.2613
    7MOL    C30 3042   5.083   3.401   0.223  0.2526  0.5523 -0.3814
    7MOL    C31 3043   5.020   3.539   0.263 -0.1738  0.5793 -0.5712
    7MOL    C32 3044   4.866   3.519   0.304  0.3032  0.1292  0.1722
    7MOL    C33 3045   4.783   3.649   0.332 -0.0492  0.6736  0.4322
    7MOL    C34 3046   4.626   3.649   0.324  1.0674  0.2185  0.6613
    7MOL    C35 3047   4.557   3.600   0.194 -0.2856  0.1991 -0.3792
    7MOL    H36 3048   4.982   3.114   0.232  0.9800  0.5719 -2.0137
    7MOL    H37 3049   5.066   3.022   0.362 -4.1017 -1.1722 -1.4214
    7MOL    H38 3050   5.226   3.208   0.188 -0.1202  0.9622  0.5787
    7MOL    H39 3051   5.023   3.354   0.146  1.6399 -2.3242  0.2416
    7MOL    H40 3052   5.171   3.416   0.159  2.0446 -2.4784  1.2589
    7MOL    H41 3053   5.044   3.599   0.175  1.8169  0.9237  0.1847
    7MOL    H42 3054   5.070   3.579   0.351 -0.2906 -2.6267  1.0275
    7MOL    H43 3055   4.819   3.448   0.236  2.2164  0.7688 -1.8701
    7MOL    H44 3056   4.864   3.463   0.397 -1.8796  1.4913  0.9878
    7MOL    H45 3057   4.808   3.683   0.432 -1.2423  1.8126  0.3674
    7MOL    H46 3058   4.826   3.720   0.261  1.4759  0.3400  1.0171
    7MOL    H47 3059   4.581   3.591   0.405  0.7040 -1.1659 -0.5077
    7MOL    H48 3060   4.598   3.754   0.335 -1.0516 -0.1663 -0.6451
    7MOL    H49 3061   4.449   3.599   0.208  0.2381 -1.1341  4.3286
    7MOL    H50 3062   4.589   3.676   0.122 -2.3773  1.4593 -0.0388
    7MOL    H51 3063   4.592   3.500   0.169 -1.4468  0.3519 -2.7928
    7MOL    C52 3064   5.283   3.153   0.379 -0.1919 -0.3495 -0.4065
    7MOL    C53 3065   5.390   3.258   0.398 -0.0424  0.4339  0.5929
    7MOL    O54 3066   5.385   3.305   0.536  0.5615 -0.7650 -0.0259
    7MOL    C55 3067   5.318   3.430   0.557 -0.3678  0.1395 -0.8805
    7MOL    C56 3068   5.348   3.464   0.703  0.3394 -0.3953  0.2041
    7MOL    C57 3069   5.314   3.605   0.745  0.0081 -0.1432  0.3013
    7MOL    C58 3070   5.346   3.637   0.889  0.4663  0.4736 -0.5815
    7MOL    C59 3071   5.306   3.778   0.924  0.4345 -0.5717 -0.3943
    7MOL    C60 3072   5.371   3.836   1.049  0.3547 -0.4985  0.3100
    7MOL    H61 3073   5.339   3.062   0.358  3.1007  1.5132 -0.1648
    7MOL    H62 3074   5.232   3.135   0.474 -0.8345  0.1994 -0.6430
    7MOL    H63 3075   5.384   3.335   0.321 -1.6685  0.3343  0.6121
    7MOL    H64 3076   5.211   3.425   0.538 -0.5974  0.4208  0.3267
    7MOL    H65 3077   5.367   3.499   0.488 -0.1455 -0.0069 -0.8687
    7MOL    H66 3078   5.449   3.434   0.731  0.6756  2.0758  1.7921
    7MOL    H67 3079   5.279   3.395   0.753 -0.6619  1.7756  1.9182
    7MOL    H68 3080   5.378   3.673   0.688 -1.3989  1.3495  0.4634
    7MOL    H69 3081   5.215   3.637   0.714 -0.4535  0.9393  2.7784
    7MOL    H70 3082   5.300   3.567   0.959 -4.0437  3.3409 -0.4938
    7MOL    H71 3083   5.454   3.630   0.902  0.4762  0.4082 -0.7057
    7MOL    H72 3084   5.334   3.850   0.847  2.0943  1.2413  1.8108
    7MOL    H73 3085   5.198   3.792   0.922  0.7168  2.7625  2.3784
    7MOL    H74 3086   5.478   3.816   1.048  1.3874  4.2952  0.9900
    7MOL    H75 3087   5.354   3.943   1.060  2.8118 -0.1603  1.2748
    7MOL    H76 3088   5.324   3.799   1.140 -1.0317  0.5566  0.0391
    7MOL    C77 3089   5.534   3.204   0.384 -0.3280 -0.2186 -0.0264
    7MOL    C78 3090   5.646   3.301   0.365 -0.1273  0.1946 -0.0513
    7MOL    O79 3091   5.617   3.387   0.254  0.8530  0.3474  0.1701
    7MOL    C80 3092   5.615   3.532   0.289  0.0218  0.7428 -0.2783
    7MOL    C81 3093   5.601   3.590   0.150 -0.0388  0.7873 -0.2757
    7MOL    C82 3094   5.731   3.586   0.064 -0.6488  0.0349 -0.2983
    7MOL    C83 3095   5.772   3.452   0.003 -0.1482 -0.2543 -0.0125
    7MOL    C84 3096   5.890   3.458   7.679 -0.0797 -0.0040  0.7206
    7MOL    C85 3097   5.926   3.324   7.622 -0.3925  0.3094 -0.1906
    7MOL    H86 3098   5.537   3.145   0.293 -0.0719 -1.7344  0.9400
    7MOL    H87 3099   5.555   3.135   0.466  2.6098  0.7290  0.0505
    7MOL    H88 3100   5.644   3.353   0.461 -1.1420 -0.1679  0.1262
    7MOL    H89 3101   5.705   3.564   0.342 -0.0635  1.1363 -0.3766
    7MOL    H90 3102   5.533   3.566   0.351  1.0417 -0.7480  1.9666
    7MOL    H91 3103   5.572   3.695   0.148 -0.5867  0.6287 -1.1500
    7MOL    H92 3104   5.520   3.542   0.095 -0.5723 -0.3612  1.4643
    7MOL    H93 3105   5.710   3.659   7.763 -1.7061 -0.7423 -0.7458
    7MOL    H94 3106   5.810   3.633   0.122 -2.1014  1.7821  0.3138
    7MOL    H95 3107   5.794   3.376   0.078 -1.6442 -0.4791  0.2006
    7MOL    H96 3108   5.683   3.408   7.736  0.7019 -2.7742  0.6867
    7MOL    H97 3109   5.856   3.527   7.602  0.8103 -1.9190 -1.4570
    7MOL    H98 3110   5.981   3.506   7.715  0.0472  1.0210 -0.9098
    7MOL    H99 3111   5.968   3.341   7.522 -0.7573 -1.8671 -0.7546
    7MOL   H100 3112   6.014   3.292   7.678 -1.0872  0.3646  0.9345
    7MOL   H101 3113   5.855   3.242   7.631  1.0676 -1.1364 -1.3555
    7MOL   C102 3114   5.775   3.215   0.337 -0.0487  0.2961 -0.1168
    7MOL   C103 3115   5.904   3.290   0.353  0.2381  0.3294 -0.0858
    7MOL   O104 3116   5.911   3.323   0.491 -0.0981  0.0682 -0.0805
    7MOL   C105 3117   5.967   3.451   0.517 -0.4370 -0.5475  0.0448
    7MOL   C106 3118   5.987   3.439   0.664  0.1491  0.3495  0.1037
    7MOL   C107 3119   5.848   3.431   0.722 -0.2344 -1.3080 -0.2682
    7MOL   C108 3120   5.845   3.440   0.880  0.2050  0.2342  0.3202
    7MOL   C109 3121   5.702   3.445   0.929 -0.7320  0.2351  0.1667
    7MOL   C110 3122   5.700   3.475   1.076 -0.2484 -0.4662  0.6057
    7MOL   H111 3123   5.779   3.138   0.414 -0.6261 -0.2779 -0.6597
    7MOL   H112 3124   5.751   3.162   0.245  0.3789 -1.3047  0.6770
    7MOL   H113 3125   5.899   3.381   0.294 -3.1885  1.2340  1.4316
    7MOL   H114 3126   5.902   3.535   0.493 -0.3491 -0.4912  0.0051
    7MOL   H115 3127   6.063   3.460   0.467 -0.3598  0.2810  0.3486
    7MOL   H116 3128   6.054   3.521   0.689 -2.2583  2.5957 -0.6064
    7MOL   H117 3129   6.045   3.349   0.686 -0.8747 -0.7945 -1.7379
    7MOL   H118 3130   5.787   3.519   0.701  3.7045  1.6225 -0.0197
    7MOL   H119 3131   5.796   3.339   0.697 -0.9990 -1.6297  2.3186
    7MOL   H120 3132   5.892   3.349   0.918  0.5560  0.5677  0.7055
    7MOL   H121 3133   5.901   3.527   0.915 -0.3588  0.5219  0.5011
    7MOL   H122 3134   5.667   3.530   0.870  0.1753  1.7695  1.8044
    7MOL   H123 3135   5.644   3.355   0.908 -0.3411 -0.5174  2.2426
    7MOL   H124 3136   5.754   3.568   1.091 -0.4637 -0.1071 -0.8265
    7MOL   H125 3137   5.602   3.478   1.125 -1.7615  0.2562 -2.3764
    7MOL   H126 3138   5.754   3.397   1.131 -0.0108 -0.6583  0.0977
    7MOL   C127 3139   6.010   3.194   0.306 -0.4579 -0.0219  0.7822
    7MOL   C128 3140   6.153   3.252   0.289  0.0209 -0.6967  0.5226
    7MOL   O129 3141   6.150   3.363   0.198  0.1366 -0.1910  0.0607
    7MOL   C130 3142   6.248   3.467   0.228  0.3027 -0.2828  0.0318
    7MOL   C131 3143   6.219   3.586   0.136  0.1400  0.5692  0.0205
    7MOL   C132 3144   6.086   3.653   0.180 -0.1769 -0.8246  0.3112
    7MOL   C133 3145   6.069   3.793   0.110 -0.3280  0.2344 -0.1509
    7MOL   C134 3146   6.086   3.790   7.738  0.1550  0.1845  0.1351
    7MOL   C135 3147   6.068   3.933   7.681 -0.5107  0.5702 -0.1880
    7MOL   H136 3148   6.018   3.115   0.380 -0.6623 -0.5473  0.2482
    7MOL   H137 3149   5.978   3.151   0.211 -0.8230  0.3959  0.7085
    7MOL   H138 3150   6.195   3.278   0.386  0.4647 -0.4181  0.2558
    7MOL   H139 3151   6.345   3.425   0.202  0.6933  0.7308 -0.1307
    7MOL   H140 3152   6.249   3.489   0.334 -1.3216 -1.7974  0.4014
    7MOL   H141 3153   6.200   3.544   0.038  0.4508  1.2153 -0.3205
    7MOL   H142 3154   6.302   3.656   0.147 -1.7357  2.8167  0.2536
    7MOL   H143 3155   6.007   3.585   0.149  0.7677 -0.8234 -2.1598
    7MOL   H144 3156   6.094   3.681   0.285  3.6863  0.6365 -0.2851
    7MOL   H145 3157   5.974   3.826   0.152  0.9962  3.7080  0.2413
    7MOL   H146 3158   6.137   3.868   0.150  0.0863 -1.0702  1.7055
    7MOL   H147 3159   6.176   3.739   7.705  0.6294  2.5466 -2.4038
    7MOL   H148 3160   5.997   3.732   7.712 -0.0726 -0.5650  2.4336
    7MOL   H149 3161   5.972   3.971   7.716  0.3451  3.1643 -0.5991
    7MOL   H150 3162   6.147   3.996   7.722  0.0783 -0.4295  0.2568
    7MOL   H151 3163   6.071   3.944   7.573 -0.3334  0.3695 -0.2046
    7MOL   C152 3164   6.259   3.148   0.240  0.3831 -0.4590  0.4179
    7MOL   C153 3165   6.322   3.056   0.345  0.6671  0.0023  0.2856
    7MOL   O154 3166   6.223   2.957   0.365  0.1363  0.4488 -0.6107
    7MOL   C155 3167   6.215   2.923   0.501 -0.2765 -0.4531 -0.1646
    7MOL   C156 3168   6.109   2.817   0.543 -0.1741 -0.5666  0.3504
    7MOL   C157 3169   5.972   2.873   0.506 -0.8183  0.4850  0.3079
    7MOL   C158 3170   5.868   2.773   0.546 -0.7632 -0.1039  0.1795
    7MOL   C159 3171   5.739   2.852   0.562 -0.2450  0.3420  0.2824
    7MOL   C160 3172   5.628   2.771   0.620 -0.3730  0.4620  0.5390
    7MOL   H161 3173   6.229   3.084   0.157 -0.4841  0.8548 -0.2988
    7MOL   H162 3174   6.336   3.202   0.186 -0.4505  0.3075 -0.0069
    7MOL   H163 3175   6.347   3.121   0.429  0.8854  1.6537 -1.0252
    7MOL   H164 3176   6.195   3.011   0.563 -0.6571 -0.4165 -0.3359
    7MOL   H165 3177   6.316   2.896   0.530  0.1604  0.4086 -0.8588
    7MOL   H166 3178   6.108   2.791   0.648  1.0686  0.4796  0.6280
    7MOL   H167 3179   6.148   2.727   0.494 -0.7568  0.1866 -1.5523
    7MOL   H168 3180   5.966   2.964   0.566 -2.5234 -1.2114  2.8135
    7MOL   H169 3181   5.962   2.892   0.399 -3.1218  2.3413  0.8047
    7MOL   H170 3182   5.864   2.705   0.461  0.4239 -0.4741  0.4169
    7MOL   H171 3183   5.900   2.714   0.631  1.9663  0.2460 -0.5751
    7MOL   H172 3184   5.756   2.931   0.635 -1.6154 -0.1786  1.1816
    7MOL   H173 3185   5.711   2.896   0.466 -2.0714 -0.2177  0.5506
    7MOL   H174 3186   5.552   2.843   0.652 -0.3330  0.7428 -0.0011
    7MOL   H175 3187   5.586   2.710   0.540  0.4456  1.5168 -0.7132
    7MOL   H176 3188   5.656   2.707   0.704  1.2634  3.5750  2.4527
    7MOL   C177 3189   6.457   2.982   0.311  0.6974 -0.4448  0.2166
    7MOL   C178 3190   6.585   3.042   0.366  0.5873  0.2192 -0.6698
    7MOL   O179 3191   6.701   2.966   0.331 -0.1489  0.3703  0.5483
    7MOL   C180 3192   6.748   2.870   0.430  0.0533 -0.0526  0.3039
    7MOL   C181 3193   6.852   2.771   0.373 -0.2650  0.0480 -0.0954
    7MOL   C182 3194   6.917   2.672   0.473 -0.5977 -0.7683 -0.3290
    7MOL   C183 3195   7.000   2.566   0.397  0.2705 -0.2428 -0.3948
    7MOL   C184 3196   7.097   2.486   0.485 -0.2732  0.2807 -0.7382
    7MOL   C185 3197   7.028   2.366   0.548  0.3699  0.2550 -0.3003
    7MOL   H186 3198   6.447   2.885   0.360 -1.5220  1.4552  3.6489
    7MOL   H187 3199   6.473   2.966   0.204 -0.5695  1.5543 -0.3049
    7MOL   H188 3200   6.581   3.051   0.475  0.5383 -2.1555 -0.4351
    7MOL   H189 3201   6.664   2.815   0.470  0.5674  0.4930  2.1599
    7MOL   H190 3202   6.789   2.926   0.514 -1.1899 -0.3393  1.1051
    7MOL   H191 3203   6.935   2.818   0.320 -0.4462 -0.7320 -1.0882
    7MOL   H192 3204   6.813   2.711   0.291  0.1503  0.8928 -0.9358
    7MOL   H193 3205   6.994   2.732   0.521 -3.5834  2.0612  1.0888
    7MOL   H194 3206   6.858   2.632   0.556  1.1540 -1.3688  0.6411
    7MOL   H195 3207   6.937   2.493   0.347  1.6483 -2.9500  1.6498
    7MOL   H196 3208   7.060   2.608   0.316  1.2121  0.8226  0.8355
    7MOL   H197 3209   7.191   2.465   0.434  0.4104  1.5499 -0.0099
    7MOL   H198 3210   7.125   2.538   0.576  3.3763  0.5307 -1.9246
    7MOL   H199 3211   6.991   2.286   0.484 -0.3350 -1.0723  1.7273
    7MOL   H200 3212   7.095   2.322   0.621  0.2862  0.7686  0.0916
    7MOL   H201 3213   6.942   2.409   0.601  0.8705 -1.3441  1.8650
    7MOL   C202 3214   6.607   3.175   0.300  0.3587  0.3721  0.0793
    7MOL   C203 3215   6.703   3.272   0.372 -0.3946  0.6345  0.5561
    7MOL   O204 3216   6.675   3.284   0.511  0.0615  0.2220 -0.1658
    7MOL   C205 3217   6.781   3.240   0.594 -0.0463  0.4274 -0.0557
    7MOL   C206 3218   6.732   3.240   0.732  0.1724  0.1464 -0.5278
    7MOL   C207 3219   6.826   3.231   0.851  0.2643 -0.1999 -0.9076
    7MOL   C208 3220   6.758   3.253   0.986  0.5296 -0.1908  0.1209
    7MOL   C209 3221   6.705   3.389   1.014  0.1858 -0.0145 -0.7895
    7MOL   C210 3222   6.625   3.412   1.142 -0.5525  0.3875 -0.2932
    7MOL   H211 3223   6.636   3.161   0.196  0.8646 -2.4696  0.5564
    7MOL   H212 3224   6.513   3.230   0.295  1.0387  1.3656 -2.8076
    7MOL   H213 3225   6.809   3.263   0.350 -0.5673  0.3621 -0.1880
    7MOL   H214 3226   6.868   3.302   0.570  0.4934 -0.3202 -0.0637
    7MOL   H215 3227   6.816   3.142   0.562 -1.2296  0.4761 -1.5510
    7MOL   H216 3228   6.644   3.176   0.739  0.2503  0.0896 -0.0808
    7MOL   H217 3229   6.684   3.337   0.744  2.6881  1.0438  3.1538
    7MOL   H218 3230   6.875   3.136   0.869 -1.2690 -0.7466  0.5214
    7MOL   H219 3231   6.904   3.306   0.841 -1.0655  1.3412 -0.0683
    7MOL   H220 3232   6.686   3.175   1.011 -0.4536  0.7841  0.4119
    7MOL   H221 3233   6.830   3.239   1.066 -2.2314 -0.8341  2.5814
    7MOL   H222 3234   6.780   3.468   1.019  1.2343 -1.0424  0.1808
    7MOL   H223 3235   6.644   3.417   0.929 -1.0183  0.2067  0.1253
    7MOL   H224 3236   6.560   3.327   1.164  0.1330 -0.0780 -0.0521
    7MOL   H225 3237   6.692   3.422   1.228 -0.4755  0.6733 -0.3874
    7MOL   H226 3238   6.580   3.511   1.145  1.7051  1.5004 -1.6532
    7MOL   C227 3239   6.677   3.405   0.308  0.2465 -0.3944  0.7294
    7MOL   C228 3240   6.776   3.523   0.335  0.2700  0.1115 -0.1368
    7MOL   O229 3241   6.891   3.482   0.265  0.2873 -0.4755 -0.6950
    7MOL   C230 3242   7.009   3.527   0.330  0.2148  0.0279  0.6302
    7MOL   C231 3243   7.131   3.482   0.259  0.3703  0.4639 -0.0122
    7MOL   C232 3244   7.156   3.531   0.115  0.2312 -0.3030  0.3865
    7MOL   C233 3245   7.270   3.447   0.053 -0.8892 -0.1985  0.4734
    7MOL   C234 3246   7.268   3.433   7.679 -0.0862  0.0862  0.4654
    7MOL   C235 3247   7.259   3.567   7.608  0.0688  0.1859 -0.6951
    7MOL   H236 3248   6.684   3.383   0.202 -1.0821 -1.3245  0.8117
    7MOL   H237 3249   6.574   3.439   0.325  0.0250 -0.5704 -0.2346
    7MOL   H238 3250   6.788   3.523   0.443 -0.2743 -0.1070 -0.0758
    7MOL   H239 3251   7.022   3.481   0.428 -1.4798 -2.0992 -0.1006
    7MOL   H240 3252   7.011   3.635   0.343 -0.8256 -0.0335  1.3803
    7MOL   H241 3253   7.115   3.374   0.255 -0.2940  0.5690 -0.2926
    7MOL   H242 3254   7.221   3.493   0.319 -0.0831  0.2723  0.7104
    7MOL   H243 3255   7.071   3.516   0.049 -0.7585  0.1146  1.5571
    7MOL   H244 3256   7.188   3.635   0.116  0.0236 -0.2412  1.0008
    7MOL   H245 3257   7.369   3.485   0.075 -1.2333  0.2108  1.3517
    7MOL   H246 3258   7.265   3.345   0.092 -0.3122 -0.5963 -0.4761
    7MOL   H247 3259   7.358   3.386   7.640 -0.7858 -1.2674  0.4357
    7MOL   H248 3260   7.188   3.371   7.639  1.2852 -1.2722 -0.2130
    7MOL   H249 3261   7.337   3.628   7.653  1.6181 -2.3491  0.1410
    7MOL   H250 3262   7.264   3.564   7.499  0.1329  1.6123 -0.7389
    7MOL   H251 3263   7.163   3.610   7.635 -0.2042 -0.4852 -0.6011
    7MOL   C252 3264   6.760   3.660   0.270  0.5362 -0.0877 -0.2729
    7MOL   C253 3265   6.643   3.747   0.322  0.6182  0.0055 -0.3793
    7MOL   O254 3266   6.631   3.876   0.267 -0.4439  0.0596 -0.5802
    7MOL   C255 3267   6.573   3.893   0.138 -0.1301 -0.3742  0.2041
    7MOL   C256 3268   6.593   4.038   0.099 -0.0003  0.6428  0.5607
    7MOL   C257 3269   6.584   4.070   7.728  0.1216  0.3387 -0.4945
    7MOL   C258 3270   6.633   4.215   7.703 -0.1927 -0.4428 -0.1330
    7MOL   C259 3271   6.601   4.269   7.564  0.0140  0.6700 -0.0948
    7MOL   C260 3272   6.579   4.420   7.565  0.6802  0.5508  0.4479
    7MOL   H261 3273   6.845   3.728   0.277 -1.1370  2.0298 -0.0741
    7MOL   H262 3274   6.745   3.633   0.165 -0.8919  2.1994 -0.6926
    7MOL   H263 3275   6.548   3.697   0.307 -1.0226  3.2308 -1.0659
    7MOL   H264 3276   6.469   3.862   0.126 -0.2238  0.3263 -0.8866
    7MOL   H265 3277   6.631   3.827   0.074  0.6218 -0.2184  0.7269
    7MOL   H266 3278   6.696   4.058   0.129 -0.1614  0.9718  0.9044
    7MOL   H267 3279   6.517   4.102   0.143  0.6088 -0.3190  3.1446
    7MOL   H268 3280   6.661   4.018   7.671 -0.0919 -0.0194 -0.4624
    7MOL   H269 3281   6.488   4.059   7.677  0.0447 -0.6706 -0.1526
    7MOL   H270 3282   6.586   4.261   0.012 -1.0387 -0.4238 -0.5861
    7MOL   H271 3283   6.739   4.230   7.720  0.2259 -0.2648 -2.7474
    7MOL   H272 3284   6.682   4.252   7.493  0.5610  2.2594  0.1323
    7MOL   H273 3285   6.515   4.216   7.523 -1.6395  2.7122  0.6422
    7MOL   H274 3286   6.610   4.460   7.469  0.6082 -1.0096 -0.2503
    7MOL   H275 3287   6.477   4.458   7.569  0.6126  0.3758  0.4233
    7MOL   H276 3288   6.636   4.461   7.648  0.0243 -1.6363  2.0374
    7MOL   C277 3289   6.653   3.771   0.477  0.5197 -0.5193 -0.6817
    7MOL   C278 3290   6.516   3.826   0.537 -0.2288 -0.2169  0.6696
    7MOL   O279 3291   6.479   3.749   0.651  0.2785  1.0216  0.0875
    7MOL   C280 3292   6.420   3.627   0.610 -0.4919  0.4373 -0.5400
    7MOL   C281 3293   6.406   3.537   0.731  0.2031  0.6337 -0.0762
    7MOL   C282 3294   6.362   3.392   0.694  0.5110  0.0810 -0.1727
    7MOL   C283 3295   6.337   3.302   0.822  0.0386  1.0808 -0.3995
    7MOL   C284 3296   6.275   3.164   0.802 -0.2279  0.2464 -0.5658
    7MOL   C285 3297   6.230   3.091   0.931 -0.2674  0.0353  0.2524
    7MOL   H286 3298   6.678   3.682   0.535  0.2962 -0.0382  0.1523
    7MOL   H287 3299   6.724   3.848   0.506  1.5114 -0.5204 -3.0045
    7MOL   H288 3300   6.440   3.812   0.460 -1.5972 -1.7722  2.2545
    7MOL   H289 3301   6.481   3.576   0.536 -1.2519 -2.1393  0.5672
    7MOL   H290 3302   6.320   3.652   0.573  0.0266  3.1421 -0.2457
    7MOL   H291 3303   6.322   3.566   0.794 -1.1738  0.1455 -1.6528
    7MOL   H292 3304   6.495   3.541   0.794 -0.2828 -0.2926  0.6929
    7MOL   H293 3305   6.268   3.407   0.641  0.4194  1.0749  0.2650
    7MOL   H294 3306   6.432   3.344   0.626  1.6434  1.0405  0.2920
    7MOL   H295 3307   6.430   3.292   0.879 -1.8906 -1.5580  2.3805
    7MOL   H296 3308   6.262   3.357   0.878 -0.5474 -0.7112  0.5902
    7MOL   H297 3309   6.195   3.177   0.729 -1.3063 -0.3982  0.4745
    7MOL   H298 3310   6.337   3.103   0.737  0.6571 -0.0307  0.5148
    7MOL   H299 3311   6.192   2.993   0.901  0.5537  0.4894 -2.4035
    7MOL   H300 3312   6.306   3.095   1.010 -1.3172  1.8193  1.2106
    7MOL   H301 3313   6.151   3.153   0.974  1.1630  1.2232  1.2467
    7MOL   C302 3314   6.520   3.971   0.583 -0.4476 -0.0645  0.0033
    7MOL   C303 3315   6.382   4.017   0.648  0.7215 -0.2873  0.4602
    7MOL   O304 3316   6.285   4.038   0.535 -0.2221 -0.2224  0.1751
    7MOL   C305 3317   6.200   3.929   0.498 -0.1444  0.1233 -1.0623
    7MOL   C306 3318   6.061   3.997   0.467 -0.6435  0.2276 -0.2775
    7MOL   C307 3319   6.059   4.095   0.355  0.2010 -0.2080  0.4640
    7MOL   C308 3320   5.920   4.145   0.318  0.1829  0.4089  0.1723
    7MOL   C309 3321   5.921   4.266   0.219  0.7534  0.0619  0.0206
    7MOL   C310 3322   5.977   4.402   0.279  0.0179  0.4079 -0.5418
    7MOL   H311 3323   6.592   3.985   0.664 -1.2739  0.9474  0.5918
    7MOL   H312 3324   6.548   4.039   0.503  2.0652 -0.5231  0.4495
    7MOL   H313 3325   6.361   3.936   0.718  0.5691  1.3017  2.3008
    7MOL   H314 3326   6.181   3.869   0.586  0.3325 -0.5378 -1.4048
    7MOL   H315 3327   6.233   3.874   0.410  0.2381 -0.3686 -0.6057
    7MOL   H316 3328   6.044   4.059   0.555  1.1288 -0.9903  0.9618
    7MOL   H317 3329   5.979   3.925   0.470 -1.0980  0.7719  0.4174
    7MOL   H318 3330   6.127   4.175   0.383  1.7807 -1.6460  0.8946
    7MOL   H319 3331   6.098   4.048   0.264 -1.3319  1.8986 -1.3372
    7MOL   H320 3332   5.871   4.055   0.281 -1.1343  0.1563  2.4966
    7MOL   H321 3333   5.860   4.176   0.403 -1.7148 -1.5213 -0.4107
    7MOL   H322 3334   5.983   4.240   0.134  0.1521 -0.9245 -0.1253
    7MOL   H323 3335   5.820   4.271   0.179  0.3906 -0.0291  0.9004
    7MOL   H324 3336   5.984   4.466   0.192 -2.8330  0.5686 -0.6922
    7MOL   H325 3337   5.925   4.454   0.359  3.4388 -0.9041  2.7267
    7MOL   H326 3338   6.078   4.394   0.320 -0.0070 -2.7396 -0.9642
    7MOL   C327 3339   6.394   4.140   0.733 -0.4861 -0.7310 -0.1562
    7MOL   C328 3340   6.434   4.118   0.882  0.1208  0.3216  0.1734
    7MOL   O329 3341   6.550   4.034   0.885 -0.7571 -0.4789 -0.0585
    7MOL   C330 3342   6.575   3.946   0.998 -0.2813  0.6712 -0.7299
    7MOL   C331 3343   6.715   3.885   1.004  0.2243 -0.4748  0.5514
    7MOL   C332 3344   6.743   3.789   0.882 -0.0074 -0.1577  0.2600
    7MOL   C333 3345   6.882   3.726   0.884 -0.4897 -0.2610 -0.5097
    7MOL   C334 3346   6.898   3.617   0.774 -0.5468  0.1661  0.0011
    7MOL   C335 3347   7.039   3.563   0.760 -0.6947 -0.3336  0.3776
    7MOL   H336 3348   6.291   4.176   0.740  0.1446  1.3914 -1.2059
    7MOL   H337 3349   6.453   4.219   0.686  1.4700  0.1198  3.5460
    7MOL   H338 3350   6.351   4.061   0.924 -0.2640  0.9446  0.2725
    7MOL   H339 3351   6.498   3.869   0.989 -0.6093  1.0418 -1.1191
    7MOL   H340 3352   6.558   3.996   1.094 -1.8503  0.9101 -1.1126
    7MOL   H341 3353   6.727   3.838   1.101 -1.5056 -1.2785  0.3855
    7MOL   H342 3354   6.778   3.975   1.002 -2.4022  1.4182 -2.0451
    7MOL   H343 3355   6.668   3.710   0.884  0.1343 -0.3104 -0.4906
    7MOL   H344 3356   6.711   3.840   0.792  2.8147  0.6121 -0.3602
    7MOL   H345 3357   6.959   3.803   0.887 -0.9423  0.2224 -1.1367
    7MOL   H346 3358   6.897   3.676   0.980 -2.1703  0.4853  0.1548
    7MOL   H347 3359   6.820   3.543   0.790 -0.9514  0.9394  1.7552
    7MOL   H348 3360   6.876   3.666   0.678  1.7001 -1.9499 -1.6342
    7MOL   H349 3361   7.054   3.525   0.862 -1.9906 -1.4115  0.1735
    7MOL   H350 3362   7.041   3.482   0.688 -1.3609 -0.0748  0.0685
    7MOL   H351 3363   7.108   3.645   0.739  0.9655 -1.4317  1.3284
    7MOL   C352 3364   6.459   4.242   0.963 -0.1348 -0.6044  0.5332
    7MOL   C353 3365   6.345   4.342   0.955 -0.4560 -0.9517 -0.2774
    7MOL   O354 3366   6.399   4.457   1.020 -0.0567  0.5581  0.0466
    7MOL   C355 3367   6.326   4.569   0.989 -0.5146 -0.4702 -0.4517
    7MOL   C356 3368   6.418   4.690   0.980  0.3083  0.3582 -0.5975
    7MOL   C357 3369   6.549   4.675   0.904 -0.2598  0.2053 -0.6025
    7MOL   C358 3370   6.532   4.618   0.756  0.2988  0.1875  0.3601
    7MOL   C359 3371   6.669   4.605   0.685 -0.0812  0.1031  0.2556
    7MOL   C360 3372   6.770   4.517   0.761 -0.1898 -1.3660  0.1702
    7MOL   H361 3373   6.476   4.199   1.062 -3.5583 -1.1207  0.9441
    7MOL   H362 3374   6.549   4.290   0.923 -0.9328 -0.5877 -1.2710
    7MOL   H363 3375   6.336   4.376   0.852 -0.7815 -0.5751 -0.1239
    7MOL   H364 3376   6.253   4.586   1.068  2.2764  1.3978  1.8176
    7MOL   H365 3377   6.293   4.574   0.885  0.1120 -0.1921 -0.6450
    7MOL   H366 3378   6.441   4.716   1.084  0.8325 -1.5727 -0.2166
    7MOL   H367 3379   6.357   4.771   0.940 -2.7918 -2.2215 -1.3280
    7MOL   H368 3380   6.614   4.762   0.895  2.0132 -1.3246  0.6688
    7MOL   H369 3381   6.610   4.605   0.960  1.2769 -0.8350 -3.4869
    7MOL   H370 3382   6.476   4.525   0.767  1.8679 -1.0584 -1.8859
    7MOL   H371 3383   6.483   4.689   0.691  1.2098 -1.4123 -2.1507
    7MOL   H372 3384   6.660   4.576   0.580  0.2034  2.1322 -0.3477
    7MOL   H373 3385   6.714   4.704   0.675  0.5778 -0.3675 -1.6976
    7MOL   H374 3386   6.731   4.420   0.789  0.3646 -1.2000  1.5316
    7MOL   H375 3387   6.860   4.500   0.701 -0.9464 -0.7542 -1.1666
    7MOL   H376 3388   6.791   4.560   0.859  1.6737 -0.3411 -0.6469
    7MOL   C377 3389   6.212   4.300   1.031  0.5716  0.6103 -0.3960
    7MOL   C378 3390   6.091   4.270   0.941 -0.2915 -0.2061  0.3624
    7MOL   O379 3391   6.051   4.387   0.857 -0.1607 -0.0083 -0.2206
    7MOL   C380 3392   5.984   4.359   0.731 -0.6276 -0.2486  0.0421
    7MOL   C381 3393   5.948   4.503   0.671 -0.4120  0.1759  0.1466
    7MOL   C382 3394   6.060   4.582   0.608  0.5702  0.5148  0.3855
    7MOL   C383 3395   6.024   4.724   0.578  0.4373  0.8440  0.0980
    7MOL   C384 3396   6.137   4.821   0.546  0.0515 -0.3441  0.3880
    7MOL   C385 3397   6.213   4.765   0.423 -0.3033  0.3918 -0.2035
    7MOL   H386 3398   6.227   4.214   1.096 -1.3136  0.7537  0.2336
    7MOL   H387 3399   6.184   4.379   1.100  0.2184  1.4153 -1.4451
    7MOL   H388 3400   6.125   4.197   0.867 -1.7185 -0.5100 -0.0190
    7MOL   H389 3401   5.893   4.304   0.753 -0.0892 -0.6995  1.1830
    7MOL   H390 3402   6.055   4.302   0.671 -1.3378 -1.3235  0.2233
    7MOL   H391 3403   5.905   4.570   0.745  1.4679  1.1526  0.3938
    7MOL   H392 3404   5.872   4.489   0.594 -0.9705  2.0479  0.3298
    7MOL   H393 3405   6.138   4.570   0.684 -0.0547 -1.4668  0.7598
    7MOL   H394 3406   6.097   4.528   0.520  0.2191 -0.6743  0.9492
    7MOL   H395 3407   5.953   4.726   0.496 -0.3489 -2.3276  0.6645
    7MOL   H396 3408   5.974   4.763   0.667 -0.9028  3.2408 -1.6372
    7MOL   H397 3409   6.109   4.926   0.533  2.9670  0.2073 -1.9881
    7MOL   H398 3410   6.206   4.827   0.630  1.0437  0.7808 -0.4789
    7MOL   H399 3411   6.266   4.845   0.371 -1.6666  1.1427 -0.4743
    7MOL   H400 3412   6.290   4.702   0.467  0.1041  0.9831 -0.0488
    7MOL   H401 3413   6.147   4.723   0.347  1.6943 -1.9317 -0.6939
    7MOL   C402 3414   5.968   4.211   1.016  0.2147 -0.3059  0.1345
    7MOL   C403 3415   5.876   4.302   1.104  0.2422 -0.2135 -0.4863
    7MOL   O404 3416   5.958   4.373   1.199 -0.1863 -0.3551 -0.5552
    7MOL   C405 3417   5.886   4.477   1.275  0.0980  0.0533  0.2658
    7MOL   C406 3418   5.859   4.615   1.210 -0.5955  0.4334 -0.2809
    7MOL   C407 3419   5.987   4.685   1.154 -0.1803  0.4377  0.0759
    7MOL   C408 3420   5.960   4.807   1.061  0.4825 -0.3040  0.7415
    7MOL   C409 3421   6.082   4.881   0.998 -0.2221 -0.0269 -0.3644
    7MOL   C410 3422   6.044   5.003   0.915 -0.5725 -0.0446 -0.1458
    7MOL   H411 3423   5.996   4.131   1.084 -0.1093 -0.7317 -0.2301
    7MOL   H412 3424   5.900   4.166   0.945  0.4812  0.1186 -0.3973
    7MOL   H413 3425   5.827   4.380   1.046  0.1652  0.5850  0.6521
    7MOL   H414 3426   5.951   4.502   1.360 -0.4116 -0.6575  0.8748
    7MOL   H415 3427   5.794   4.442   1.322  0.1864  0.3405  0.6589
    7MOL   H416 3428   5.821   4.686   1.284 -0.7726 -1.3685  1.4163
    7MOL   H417 3429   5.777   4.601   1.139 -2.0738  1.0911  1.2564
    7MOL   H418 3430   6.051   4.707   1.239  0.9651  0.0557 -0.6658
    7MOL   H419 3431   6.045   4.603   1.112 -0.6159  0.3746 -0.4037
    7MOL   H420 3432   5.896   4.774   0.980 -0.6097  0.2366  1.3777
    7MOL   H421 3433   5.899   4.880   1.113  0.2595 -0.7838  1.1508
    7MOL   H422 3434   6.153   4.909   1.076 -0.8473 -0.7787  0.4889
    7MOL   H423 3435   6.130   4.813   0.927  1.9364  0.5771  0.4638
    7MOL   H424 3436   6.127   5.064   0.880 -2.1468  1.5126 -1.2824
    7MOL   H425 3437   5.997   4.970   0.822  0.1155 -2.1510  0.2365
    7MOL   H426 3438   5.976   5.067   0.972  1.2659  1.5336  0.3227
    7MOL   C427 3439   5.772   4.207   1.177  0.3962  0.0660  0.3375
    7MOL   C428 3440   5.634   4.271   1.166 -0.2360 -1.0393  0.3051
    7MOL   O429 3441   5.603   4.265   1.024 -0.1729 -0.2439  0.9281
    7MOL   C430 3442   5.538   4.378   0.972  0.1615 -0.4475 -1.0290
    7MOL   C431 3443   5.491   4.347   0.832 -0.2311  0.2203 -0.3660
    7MOL   C432 3444   5.406   4.216   0.809  0.0195  0.1389 -0.2376
    7MOL   C433 3445   5.389   4.171   0.671 -0.4084  0.2387 -0.3203
    7MOL   C434 3446   5.510   4.130   0.589  0.1765 -0.2118  0.1206
    7MOL   C435 3447   5.481   4.127   0.434 -0.0962  0.6069 -0.0855
    7MOL   H436 3448   5.768   4.106   1.136  0.1591 -0.3049  1.2454
    7MOL   H437 3449   5.803   4.205   1.282 -2.2612  2.0461  1.2218
    7MOL   H438 3450   5.629   4.373   1.205 -1.8711 -0.9800 -0.0515
    7MOL   H439 3451   5.592   4.472   0.968  0.9575 -0.9659 -2.4854
    7MOL   H440 3452   5.446   4.392   1.029  0.6958 -0.9015 -0.0508
    7MOL   H441 3453   5.584   4.351   0.777  0.5539 -2.0048  0.7450
    7MOL   H442 3454   5.441   4.435   0.791  0.2333 -0.5898 -2.7050
    7MOL   H443 3455   5.443   4.135   0.872  1.8182  1.5976  0.6461
    7MOL   H444 3456   5.311   4.221   0.862 -1.3204 -1.8172 -2.3680
    7MOL   H445 3457   5.322   4.087   0.688  0.3977 -0.2015  0.6879
    7MOL   H446 3458   5.332   4.254   0.628 -0.6911  0.1865 -0.0509
    7MOL   H447 3459   5.596   4.196   0.599  0.3449 -0.7374  2.4227
    7MOL   H448 3460   5.545   4.032   0.620  0.3775  0.0531  0.7389
    7MOL   H449 3461   5.462   4.230   0.405 -0.8954  0.6043  0.4088
    7MOL   H450 3462   5.553   4.080   0.367 -2.5207  1.0329 -3.1040
    7MOL   H451 3463   5.390   4.075   0.404  0.4028 -0.0165 -0.5424
    7MOL   C452 3464   5.524   4.196   1.238 -0.0278 -0.0342  0.4955
    7MOL   C453 3465   5.516   4.235   1.389  0.3564  0.2824 -0.3170
    7MOL   O454 3466   5.619   4.162   1.461  0.7956  0.2070 -0.3548
    7MOL   C455 3467   5.662   4.234   1.574  0.2556  0.1711  1.2708
    7MOL   C456 3468   5.754   4.143   1.651 -0.0252  0.3265 -0.2768
    7MOL   C457 3469   5.806   4.188   1.791 -0.6225 -0.1793 -0.6539
    7MOL   C458 3470   5.698   4.216   1.894  0.6524  0.3284 -0.8466
    7MOL   C459 3471   5.759   4.261   2.029  0.3351  0.3210  0.0470
    7MOL   C460 3472   5.657   4.266   2.137 -0.0487 -0.2254 -0.2242
    7MOL   H461 3473   5.430   4.228   1.194  2.0233  2.7572 -2.0176
    7MOL   H462 3474   5.540   4.090   1.218 -1.1126 -0.2281  0.6210
    7MOL   H463 3475   5.529   4.343   1.399  0.6772  0.2601 -0.4880
    7MOL   H464 3476   5.586   4.281   1.636 -1.4208 -0.5688 -0.1587
    7MOL   H465 3477   5.717   4.319   1.534  0.5166  0.2573  1.8178
    7MOL   H466 3478   5.850   4.125   1.603 -0.0499  0.1495 -0.2634
    7MOL   H467 3479   5.714   4.042   1.661 -1.1833  0.8752  0.8611
    7MOL   H468 3480   5.883   4.114   1.816 -0.0127  0.4824 -0.5716
    7MOL   H469 3481   5.855   4.283   1.771  2.3173 -1.8761 -1.9319
    7MOL   H470 3482   5.622   4.283   1.854 -1.2352 -2.4550 -2.1206
    7MOL   H471 3483   5.651   4.119   1.909 -0.7226  0.9566 -1.0421
    7MOL   H472 3484   5.827   4.179   2.050  1.3184  0.3738 -2.7531
    7MOL   H473 3485   5.819   4.351   2.012 -1.8107  2.3040  2.4454
    7MOL   H474 3486   5.588   4.350   2.129  1.1175  0.5480 -2.5295
    7MOL   H475 3487   5.605   4.172   2.156  0.1252 -0.3327 -0.2912
    7MOL   H476 3488   5.710   4.288   2.230 -0.8628  1.7362 -0.2011
    7MOL   C477 3489   5.371   4.204   1.438  0.1681  0.4077  1.0196
    7MOL   C478 3490   5.256   4.303   1.414  0.7638 -0.7359  0.2316
    7MOL   O479 3491   5.131   4.276   1.481 -0.3595  0.1953 -0.3377
    7MOL   C480 3492   5.034   4.379   1.482 -0.1398  0.1956 -0.9261
    7MOL   C481 3493   4.908   4.324   1.549 -0.0381 -0.5923  0.2811
    7MOL   C482 3494   4.916   4.299   1.700 -0.1392 -0.1088  0.1727
    7MOL   C483 3495   4.789   4.246   1.775  0.1123 -0.0222 -0.3416
    7MOL   C484 3496   4.816   4.196   1.919 -0.4980 -0.6624 -0.6984
    7MOL   C485 3497   4.700   4.140   1.997 -0.2808 -0.8825  0.4244
    7MOL   H486 3498   5.334   4.110   1.398 -1.5761  1.1387  0.8621
    7MOL   H487 3499   5.383   4.206   1.546 -0.0117 -0.6203  1.0642
    7MOL   H488 3500   5.286   4.403   1.447 -0.4047 -0.4494  0.4567
    7MOL   H489 3501   5.020   4.407   1.377  1.6586  4.0736 -0.2404
    7MOL   H490 3502   5.073   4.470   1.528  0.0367 -0.6443  0.6124
    7MOL   H491 3503   4.871   4.235   1.499 -0.4343 -0.4107  0.2535
    7MOL   H492 3504   4.828   4.394   1.526 -0.0271 -0.3989  0.8236
    7MOL   H493 3505   4.989   4.218   1.705  0.4027  0.3338 -0.5439
    7MOL   H494 3506   4.961   4.382   1.753 -0.2687  0.8302 -1.1695
    7MOL   H495 3507   4.723   4.332   1.774  0.7023  0.4348 -2.5908
    7MOL   H496 3508   4.739   4.166   1.721  0.4172 -0.3652 -0.1174
    7MOL   H497 3509   4.896   4.122   1.915 -1.1209 -1.3442 -0.5997
    7MOL   H498 3510   4.857   4.290   1.955 -1.8896  1.3474 -4.1639
    7MOL   H499 3511   4.617   4.211   2.003  1.1204  0.7282  1.5446
    7MOL   H500 3512   4.654   4.048   1.964  1.2619  0.0259 -4.6185
    7MOL   H501 3513   4.732   4.131   2.101  0.5350  0.9016  0.3671
    7MOL   H502 3514   5.246   4.318   1.307  2.0721 -0.9324  0.0752
    8MOL     C1 3515   4.134   0.446   1.310 -0.3847 -0.0549 -0.8107
    8MOL     C2 3516   4.218   0.359   1.391 -0.3035 -0.4398  0.2160
    8MOL     O3 3517   4.182   0.226   1.345 -0.1307 -0.4620 -0.5562
    8MOL     C4 3518   4.298   0.148   1.303 -1.0509 -0.4790 -0.0255
    8MOL     C5 3519   4.264   0.003   1.288  0.0478 -0.5963  0.3621
    8MOL     C6 3520   4.386   7.685   1.278 -0.3687  0.4994  0.2024
    8MOL     C7 3521   4.351   7.533   1.281 -0.1423  0.6834 -0.0562
    8MOL     C8 3522   4.475   7.446   1.275 -0.1410  0.3102 -0.3658
    8MOL     C9 3523   4.465   7.297   1.322 -0.0626 -0.0175  0.9294
    8MOL    H10 3524   4.026   0.432   1.320 -0.2919 -1.8367 -2.0800
    8MOL    H11 3525   4.146   0.551   1.337 -0.0501  0.1847 -1.8868
    8MOL    H12 3526   4.325   0.381   1.384 -0.2481 -0.5926  0.5825
    8MOL    H13 3527   4.366   0.146   1.388 -0.7457 -1.6516 -0.2835
    8MOL    H14 3528   4.350   0.180   1.213  0.8933 -1.2182  0.8042
    8MOL    H15 3529   4.206   7.776   1.195 -1.5401  1.1584  1.2224
    8MOL    H16 3530   4.191   7.751   1.363 -0.4532 -0.6785 -0.1560
    8MOL    H17 3531   4.438   7.701   1.184  2.4914 -0.2783  1.5827
    8MOL    H18 3532   4.459   7.690   1.359  1.8019 -0.9317 -1.6241
    8MOL    H19 3533   4.304   7.509   1.377 -0.7568 -0.9445 -0.7297
    8MOL    H20 3534   4.288   7.501   1.198  0.7145  0.8285 -0.7663
    8MOL    H21 3535   4.555   7.487   1.336  0.6329 -2.5766  0.6277
    8MOL    H22 3536   4.507   7.443   1.171  2.4644  1.7210  0.3636
    8MOL    H23 3537   4.438   7.294   1.427  0.1150  1.7311  1.0410
    8MOL    H24 3538   4.391   7.244   1.262  0.4580  1.1567 -0.8147
    8MOL    H25 3539   4.563   7.252   1.304  0.1464  0.9651 -0.4561
    8MOL    H26 3540   4.158   0.433   1.205  1.1371  0.6336 -0.5664
    8MOL    C27 3541   4.189   0.375   1.544  0.6067  0.4959 -0.2123
    8MOL    C28 3542   4.280   0.302   1.636 -0.8497 -0.2834 -0.5442
    8MOL    O29 3543   4.414   0.364   1.627  0.7114  0.6237 -0.1841
    8MOL    C30 3544   4.524   0.280   1.645  0.6630  0.1311 -0.7825
    8MOL    C31 3545   4.649   0.362   1.620 -0.4055  0.1724  0.4555
    8MOL    C32 3546   4.655   0.485   1.714 -0.8080  0.6583 -0.2993
    8MOL    C33 3547   4.787   0.565   1.714  0.2555  0.6920  0.1261
    8MOL    C34 3548   4.796   0.711   1.774 -0.0130 -0.0153 -0.8406
    8MOL    C35 3549   4.761   0.731   1.923  0.2402  0.3716  0.0064
    8MOL    H36 3550   4.207   0.477   1.578  1.1278 -0.2122  1.7649
    8MOL    H37 3551   4.086   0.351   1.568  0.6145 -0.8360 -1.4566
    8MOL    H38 3552   4.291   0.204   1.590 -0.3243  0.1560 -1.3565
    8MOL    H39 3553   4.521   0.193   1.579 -0.8500 -1.2980  1.1276
    8MOL    H40 3554   4.534   0.253   1.750  1.0815  1.7805 -0.3805
    8MOL    H41 3555   4.648   0.408   1.521 -0.3022 -2.3202 -0.7380
    8MOL    H42 3556   4.736   0.297   1.633 -0.9678 -0.5200  0.8117
    8MOL    H43 3557   4.577   0.550   1.675  0.9309  2.3643 -1.0697
    8MOL    H44 3558   4.634   0.461   1.818 -0.5279  2.0950  0.0954
    8MOL    H45 3559   4.865   0.492   1.737  0.8624  1.4085  0.3397
    8MOL    H46 3560   4.796   0.585   1.607  0.5159 -0.1382 -0.0100
    8MOL    H47 3561   4.895   0.749   1.750 -0.3957  0.4509 -1.6995
    8MOL    H48 3562   4.734   0.770   1.706 -0.8405  0.5365  0.3524
    8MOL    H49 3563   4.739   0.833   1.955 -1.6179  0.4530 -1.4761
    8MOL    H50 3564   4.675   0.666   1.931 -0.0509  0.5893 -1.2281
    8MOL    H51 3565   4.833   0.686   1.991  0.0692  1.5452  0.9740
    8MOL    C52 3566   4.239   0.293   1.788  0.2843 -0.0182 -0.3593
    8MOL    C53 3567   4.177   0.152   1.825 -0.6400  0.3093  0.4536
    8MOL    O54 3568   4.269   0.042   1.819  0.5045  0.0093 -0.2996
    8MOL    C55 3569   4.230   7.740   1.706  0.0245 -0.1253  0.4757
    8MOL    C56 3570   4.338   7.628   1.694 -0.5509 -0.3064 -0.7810
    8MOL    C57 3571   4.487   7.675   1.688 -0.2525 -0.3262 -0.2842
    8MOL    C58 3572   4.575   7.554   1.662 -0.1898 -0.3743  0.0862
    8MOL    C59 3573   4.717   7.606   1.659 -0.4718  0.1760  0.3455
    8MOL    C60 3574   4.827   7.524   1.591  0.3445  0.5439  0.2260
    8MOL    H61 3575   4.160   0.367   1.802 -1.4718 -1.6104 -1.4782
    8MOL    H62 3576   4.323   0.318   1.853 -1.5474 -0.4913  2.2789
    8MOL    H63 3577   4.093   0.123   1.761 -0.1399  0.3039 -0.2137
    8MOL    H64 3578   4.213   0.007   1.609  2.6676  0.3393  0.1791
    8MOL    H65 3579   4.144   7.680   1.735  0.1866  0.0637  1.3977
    8MOL    H66 3580   4.305   7.565   1.611 -0.3836 -0.0166 -1.0670
    8MOL    H67 3581   4.334   7.569   1.786 -1.0591  0.1962 -0.4748
    8MOL    H68 3582   4.493   7.746   1.605  3.0087 -1.0692 -0.7643
    8MOL    H69 3583   4.521   7.720   1.781  0.6639  0.0447 -0.7895
    8MOL    H70 3584   4.562   7.482   1.743 -2.2994 -0.8302 -0.6140
    8MOL    H71 3585   4.538   7.494   1.580 -0.6198 -1.4818  1.0767
    8MOL    H72 3586   4.730   7.712   1.635 -0.1742 -0.1307 -0.8878
    8MOL    H73 3587   4.757   7.604   1.760 -0.0740 -0.2121  0.1817
    8MOL    H74 3588   4.842   7.427   1.638 -1.7110 -0.3103 -0.8369
    8MOL    H75 3589   4.803   7.507   1.486 -3.2238 -0.1518  1.0932
    8MOL    H76 3590   4.921   7.580   1.594 -0.0080  1.1188  0.8721
    8MOL    C77 3591   4.110   0.165   1.962  0.4635  0.8871  0.7798
    8MOL    C78 3592   4.032   0.033   2.001  0.4355  0.1463 -1.0209
    8MOL    O79 3593   3.900   0.058   1.976 -0.1452 -0.4345 -0.0899
    8MOL    C80 3594   3.821   7.724   1.943  0.0476 -0.2518  0.1037
    8MOL    C81 3595   3.824   7.698   1.791 -0.0533  0.0006 -0.3256
    8MOL    C82 3596   3.758   0.035   1.716 -0.3021 -0.1058  0.1095
    8MOL    C83 3597   3.774   0.033   1.568 -0.1817 -0.7976  0.4649
    8MOL    C84 3598   3.681   0.134   1.491 -0.3498  0.6582  0.0209
    8MOL    C85 3599   3.713   0.276   1.538  0.2848 -0.3947  0.0648
    8MOL    H86 3600   4.036   0.244   1.958 -0.3292  0.0719 -1.3611
    8MOL    H87 3601   4.193   0.195   2.025  1.2735 -2.3623  1.3475
    8MOL    H88 3602   4.058   7.736   1.927 -0.0936  1.3376 -2.4592
    8MOL    H89 3603   3.730   7.738   2.000  0.4421 -0.5639  0.8189
    8MOL    H90 3604   3.852   7.628   1.985 -0.2205  0.5596  2.1786
    8MOL    H91 3605   3.771   7.604   1.773 -1.2280  0.5091  0.4063
    8MOL    H92 3606   3.925   7.693   1.752 -0.7032  0.9955 -2.1759
    8MOL    H93 3607   3.651   0.044   1.738 -0.2286 -0.5843  0.6779
    8MOL    H94 3608   3.803   0.125   1.757 -2.3011 -0.2777  2.8259
    8MOL    H95 3609   3.880   0.047   1.545 -0.0647  0.1417  1.5744
    8MOL    H96 3610   3.762   7.709   1.533  0.9835 -0.7992  0.0264
    8MOL    H97 3611   3.696   0.124   1.384 -1.9705 -0.3609 -0.1223
    8MOL    H98 3612   3.574   0.114   1.500 -0.7117  2.6708  0.5158
    8MOL    H99 3613   3.666   0.296   1.634  1.7849  1.7356  0.3696
    8MOL   H100 3614   3.819   0.283   1.560 -0.1951  0.4899  2.1541
    8MOL   H101 3615   3.687   0.345   1.458 -0.1060 -0.6667 -0.0448
    8MOL   C102 3616   4.054   7.772   2.145 -0.5125  0.0754  0.0138
    8MOL   C103 3617   4.189   7.699   2.176 -0.3947 -1.0193  0.4403
    8MOL   O104 3618   4.239   7.730   2.307 -0.1547 -0.0239 -0.1426
    8MOL   C105 3619   4.280   0.088   2.328  0.3115  0.5198  0.2553
    8MOL   C106 3620   4.370   0.094   2.456 -0.5236 -0.2092 -0.1644
    8MOL   C107 3621   4.471   0.214   2.459  0.0259  0.3161 -0.0785
    8MOL   C108 3622   4.539   0.233   2.596  0.0757 -0.6094 -0.2214
    8MOL   C109 3623   4.637   0.353   2.597  0.1708  0.1938  0.3325
    8MOL   C110 3624   4.719   0.361   2.726 -0.0221  0.0080  0.0554
    8MOL   H111 3625   4.060   0.090   2.196 -0.2049  0.2336 -0.3213
    8MOL   H112 3626   3.978   7.708   2.190  0.8284 -1.6919 -0.1677
    8MOL   H113 3627   4.260   7.732   2.100 -3.0490  1.8483 -0.8791
    8MOL   H114 3628   4.197   0.157   2.345 -0.3451 -0.0843 -0.4182
    8MOL   H115 3629   4.330   0.131   2.241  1.5266 -0.3241  0.5288
    8MOL   H116 3630   4.419   7.775   2.455  0.3264  0.2158  0.0494
    8MOL   H117 3631   4.311   0.082   2.547 -1.1523 -2.7478 -0.8586
    8MOL   H118 3632   4.545   0.200   2.380 -1.3630 -2.6451 -0.9352
    8MOL   H119 3633   4.416   0.306   2.439 -1.3496  0.4698  4.0022
    8MOL   H120 3634   4.478   0.238   2.686 -0.7417 -0.6710 -0.7690
    8MOL   H121 3635   4.600   0.144   2.613  2.1663  0.9888  0.8544
    8MOL   H122 3636   4.707   0.334   2.516  2.0341 -0.9183  2.1851
    8MOL   H123 3637   4.581   0.446   2.584  0.5769  0.4327  0.2783
    8MOL   H124 3638   4.658   0.358   2.817  1.0827 -0.9899  0.7808
    8MOL   H125 3639   4.791   0.279   2.732  1.1221  1.0432  0.5591
    8MOL   H126 3640   4.768   0.458   2.732 -0.1066  0.0400  0.2589
    8MOL   C127 3641   4.198   7.550   2.185 -0.5571 -0.2778  0.3849
    8MOL   C128 3642   4.335   7.494   2.141  0.5474  0.0333 -0.1165
    8MOL   O129 3643   4.317   7.359   2.109 -0.5959 -0.3850 -0.0404
    8MOL   C130 3644   4.302   7.315   1.970 -0.1482  0.3286 -0.7124
    8MOL   C131 3645   4.161   7.336   1.907  0.5607  0.5776  0.1725
    8MOL   C132 3646   4.161   7.290   1.758  0.7014 -0.2537  0.2222
    8MOL   C133 3647   4.019   7.316   1.700 -0.3340 -0.2411 -0.1189
    8MOL   C134 3648   3.990   7.263   1.558  0.9681  0.6533  0.6037
    8MOL   C135 3649   4.088   7.324   1.460  0.3288  0.2029  0.6125
    8MOL   H136 3650   4.165   7.525   2.286  0.5338  1.5769  1.2291
    8MOL   H137 3651   4.122   7.500   2.126 -0.3296 -0.1645 -0.0040
    8MOL   H138 3652   4.368   7.544   2.050  0.1918  0.5445  0.0302
    8MOL   H139 3653   4.326   7.210   1.954 -0.6766  0.1980 -0.6465
    8MOL   H140 3654   4.374   7.372   1.910 -0.6424  1.3352 -0.3508
    8MOL   H141 3655   4.133   7.441   1.914  1.9045  1.0592 -1.3106
    8MOL   H142 3656   4.088   7.279   1.964  1.0082 -0.6876 -0.4887
    8MOL   H143 3657   4.237   7.351   1.709  3.7475 -2.6605  1.7458
    8MOL   H144 3658   4.188   7.184   1.749  1.3479 -0.0264 -0.4864
    8MOL   H145 3659   3.946   7.269   1.766  0.8916  0.5666  1.8574
    8MOL   H146 3660   4.001   7.423   1.699 -2.4569 -0.5821 -0.4843
    8MOL   H147 3661   4.015   7.157   1.558 -0.2762  0.3405  0.2139
    8MOL   H148 3662   3.885   7.263   1.527  1.2302 -0.2659 -0.3153
    8MOL   H149 3663   4.102   7.431   1.477 -2.2681  0.3793  2.0026
    8MOL   H150 3664   4.183   7.272   1.463  0.4646  0.4842  1.2207
    8MOL   H151 3665   4.055   7.321   1.356 -0.4549 -0.9194  0.8833
    8MOL   C152 3666   4.439   7.499   2.254  0.0063  0.3707 -0.5014
    8MOL   C153 3667   4.580   7.485   2.216  0.4769 -0.5386  0.6829
    8MOL   O154 3668   4.656   7.513   2.338 -0.0597 -0.5053 -0.2534
    8MOL   C155 3669   4.729   7.635   2.331 -0.6603  0.1220  0.2350
    8MOL   C156 3670   4.797   7.680   2.459 -0.3808 -0.1969  0.0365
    8MOL   C157 3671   4.911   0.002   2.429  0.4521  0.1865  0.3294
    8MOL   C158 3672   4.964   0.085   2.547 -0.2356 -0.3705  0.6992
    8MOL   C159 3673   5.089   0.166   2.512  0.4033  0.2441 -0.5714
    8MOL   C160 3674   5.076   0.284   2.409  0.6324  0.0325 -0.0712
    8MOL   H161 3675   4.441   7.597   2.302  1.9333 -0.0871  0.3918
    8MOL   H162 3676   4.421   7.428   2.335  1.4384 -0.9734 -1.3525
    8MOL   H163 3677   4.607   7.554   2.137  2.2052  1.2169  2.7257
    8MOL   H164 3678   4.667   7.719   2.300  1.4332  2.0133  1.0344
    8MOL   H165 3679   4.801   7.630   2.249 -0.6175  1.1065  0.2066
    8MOL   H166 3680   4.836   7.594   2.513  1.2781  0.4694 -0.0746
    8MOL   H167 3681   4.736   7.735   2.529 -0.1186 -0.5795  0.5675
    8MOL   H168 3682   4.994   7.727   2.382 -1.1089  0.6449 -3.1690
    8MOL   H169 3683   4.872   0.076   2.358 -1.2566  1.1398  2.1953
    8MOL   H170 3684   4.885   0.136   2.603 -0.9829  1.3020 -1.7875
    8MOL   H171 3685   5.010   0.031   2.629  2.6936  2.4435  1.0119
    8MOL   H172 3686   5.139   0.205   2.601  0.0594  1.9210 -1.0947
    8MOL   H173 3687   5.155   0.096   2.460 -1.1801  0.2276 -2.6379
    8MOL   H174 3688   5.008   0.260   2.327  0.3098  1.3759 -0.1991
    8MOL   H175 3689   5.051   0.378   2.456 -0.8227 -1.2545  1.8147
    8MOL   H176 3690   5.166   0.300   2.349 -0.2243  1.5113 -0.9861
    8MOL   C177 3691   4.634   7.348   2.168 -0.1388  0.1113 -0.1331
    8MOL   C178 3692   4.783   7.332   2.140 -0.3463  0.7905 -0.3317
    8MOL   O179 3693   4.793   7.196   2.107  0.6343 -0.1918 -0.1235
    8MOL   C180 3694   4.824   7.110   2.218 -0.3913 -1.0863  0.4511
    8MOL   C181 3695   4.812   6.969   2.158 -0.5020  0.1528 -0.0988
    8MOL   C182 3696   4.676   6.930   2.113 -0.3789 -0.0643 -0.3619
    8MOL   C183 3697   4.662   6.783   2.062 -0.5731  0.0706 -0.2802
    8MOL   C184 3698   4.514   6.738   2.042 -1.1332  0.0984 -0.3096
    8MOL   C185 3699   4.505   6.588   2.063  0.6529 -0.0752 -0.1940
    8MOL   H186 3700   4.615   7.269   2.240  0.5574 -0.8556 -0.9891
    8MOL   H187 3701   4.572   7.314   2.085  0.3942 -0.3771 -0.3381
    8MOL   H188 3702   4.841   7.351   2.231  1.0033 -3.3362 -0.2439
    8MOL   H189 3703   4.756   7.115   2.303 -1.5906 -1.5481 -0.4643
    8MOL   H190 3704   4.921   7.133   2.262 -0.0776 -1.0483 -0.2569
    8MOL   H191 3705   4.838   6.904   2.241 -0.7659  0.4692  0.2308
    8MOL   H192 3706   4.886   6.948   2.080 -0.3527 -0.9831  0.3372
    8MOL   H193 3707   4.611   6.948   2.199 -1.8690  1.0348 -1.6874
    8MOL   H194 3708   4.645   7.004   2.039 -0.0955 -0.1008 -0.5167
    8MOL   H195 3709   4.702   6.776   1.961  0.1385  0.0479  0.0031
    8MOL   H196 3710   4.719   6.727   2.136 -0.3801  0.4386 -0.1505
    8MOL   H197 3711   4.459   6.794   2.117 -1.0732  0.0931 -0.2609
    8MOL   H198 3712   4.468   6.767   1.948 -2.4437 -1.3785 -0.1490
    8MOL   H199 3713   4.531   6.556   2.164  1.4693 -0.1522 -0.4244
    8MOL   H200 3714   4.399   6.563   2.052  0.1536  1.9900 -0.3876
    8MOL   H201 3715   4.546   6.517   1.992  1.9477 -1.7212  2.1143
    8MOL   C202 3716   4.831   7.412   2.020 -0.3589 -0.3292  0.2733
    8MOL   C203 3717   4.982   7.385   1.993  0.1955 -0.4088 -0.7266
    8MOL   O204 3718   5.063   7.454   2.093  0.0006 -0.5427  0.3656
    8MOL   C205 3719   5.135   7.372   2.182  0.1614 -0.1961 -0.0339
    8MOL   C206 3720   5.218   7.470   2.269  0.6251 -0.2267 -0.3384
    8MOL   C207 3721   5.324   7.548   2.189  0.4728 -1.1233  0.0304
    8MOL   C208 3722   5.422   7.636   2.265  0.2442 -1.0178 -0.8049
    8MOL   C209 3723   5.398   0.013   2.256 -0.1622 -0.6701 -0.2113
    8MOL   C210 3724   5.388   0.072   2.111 -0.7783  0.1226  0.2279
    8MOL   H211 3725   4.762   7.376   1.943 -1.6213 -1.6402  1.9852
    8MOL   H212 3726   4.829   7.519   2.044 -0.4072 -0.2374 -0.1354
    8MOL   H213 3727   5.008   7.279   1.994 -0.6676 -0.6176  0.8717
    8MOL   H214 3728   5.192   7.295   2.129  0.5415  0.7383 -0.9901
    8MOL   H215 3729   5.062   7.323   2.246  1.6325 -2.2701  0.1054
    8MOL   H216 3730   5.269   7.416   2.348  1.5627  0.9132 -0.1492
    8MOL   H217 3731   5.148   7.540   2.314  0.3099 -0.2119 -0.8433
    8MOL   H218 3732   5.397   7.479   2.145  1.9454  2.4116 -3.3000
    8MOL   H219 3733   5.283   7.588   2.097  1.4318 -1.4726 -0.5646
    8MOL   H220 3734   5.420   7.611   2.371 -2.2699  1.5047 -0.1969
    8MOL   H221 3735   5.521   7.614   2.224  0.1771  0.2757 -1.7003
    8MOL   H222 3736   5.310   0.034   2.316 -0.0929 -1.2136  0.0882
    8MOL   H223 3737   5.472   0.072   2.310  1.0417 -3.3225  1.1445
    8MOL   H224 3738   5.300   0.040   2.056 -0.6199  2.5020 -1.4637
    8MOL   H225 3739   5.392   0.181   2.117  2.6935 -0.0016  1.5586
    8MOL   H226 3740   5.475   0.048   2.049  0.2068  2.0379  0.8418
    8MOL   C227 3741   5.018   7.445   1.860 -0.2672  0.2275 -0.0706
    8MOL   C228 3742   5.163   7.419   1.817 -0.4437  0.9307  0.0499
    8MOL   O229 3743   5.180   7.285   1.775  0.3730 -0.0871  0.4144
    8MOL   C230 3744   5.290   7.219   1.828 -0.3389 -0.4458 -0.2137
    8MOL   C231 3745   5.283   7.060   1.807  0.6842 -0.1584 -0.2601
    8MOL   C232 3746   5.414   6.991   1.849 -0.0775  0.8079  0.7610
    8MOL   C233 3747   5.419   6.839   1.799  0.0274 -0.2266  0.4464
    8MOL   C234 3748   5.444   6.823   1.651 -0.2771  0.2708 -1.0156
    8MOL   C235 3749   5.446   6.679   1.608  0.4258  0.7237  0.0901
    8MOL   H236 3750   4.961   7.385   1.790 -1.4466 -0.9658  1.8847
    8MOL   H237 3751   4.996   7.552   1.852  1.5444  0.4210 -3.1483
    8MOL   H238 3752   5.230   7.448   1.898 -0.1990  0.4227  0.0290
    8MOL   H239 3753   5.306   7.230   1.936 -0.3991 -0.5916 -0.1890
    8MOL   H240 3754   5.380   7.251   1.775 -2.2428  3.4387 -1.2399
    8MOL   H241 3755   5.271   7.039   1.701  0.4721  0.4092 -0.3494
    8MOL   H242 3756   5.205   7.009   1.863  0.9775 -1.1899 -0.7845
    8MOL   H243 3757   5.512   7.027   1.816  0.6390 -1.7538  0.0023
    8MOL   H244 3758   5.422   6.999   1.958  1.0524 -0.2847  0.7626
    8MOL   H245 3759   5.510   6.802   1.847 -0.7852 -1.4327  1.1015
    8MOL   H246 3760   5.338   6.775   1.836 -0.4163  0.4549  0.6605
    8MOL   H247 3761   5.368   6.874   1.591  0.0347  0.9814 -0.8003
    8MOL   H248 3762   5.535   6.880   1.637  0.7733 -0.9397  0.8019
    8MOL   H249 3763   5.514   6.623   1.673 -2.1241 -0.7183  1.6347
    8MOL   H250 3764   5.348   6.635   1.631  0.0784  1.5852  0.2654
    8MOL   H251 3765   5.466   6.648   1.506 -0.0987 -0.6787  0.3906
    8MOL   C252 3766   5.208   7.498   1.689 -0.1272  0.0247  0.1585
    8MOL   C253 3767   5.236   7.650   1.712 -0.0396  0.0438  0.1779
    8MOL   O254 3768   5.116   7.725   1.698 -0.1153 -0.1366 -0.0226
    8MOL   C255 3769   5.122   0.081   1.747  0.2379  0.2818 -0.8264
    8MOL   C256 3770   4.977   0.136   1.770 -0.4246  0.1314 -0.4020
    8MOL   C257 3771   4.898   0.064   1.882 -0.4918 -0.9078 -0.7047
    8MOL   C258 3772   4.763   0.121   1.881 -0.0496  0.0896  0.3871
    8MOL   C259 3773   4.696   0.068   2.011  0.1030 -0.3463 -0.6856
    8MOL   C260 3774   4.555   0.113   2.041 -0.3335 -0.4579  0.2144
    8MOL   H261 3775   5.293   7.440   1.653  1.3322  0.8252  2.1943
    8MOL   H262 3776   5.130   7.508   1.614  0.1332  1.8256  0.1011
    8MOL   H263 3777   5.272   7.669   1.813 -0.6841 -0.3936  0.4928
    8MOL   H264 3778   5.177   0.145   1.678  1.6186 -1.2958 -1.2175
    8MOL   H265 3779   5.175   0.097   1.841 -1.6828  2.2953 -0.0244
    8MOL   H266 3780   4.916   0.129   1.680 -1.4704  1.1852  0.2234
    8MOL   H267 3781   4.977   0.240   1.802 -0.6552 -0.0548  0.2104
    8MOL   H268 3782   4.895   7.737   1.855  0.9533 -0.5509 -2.3541
    8MOL   H269 3783   4.939   0.073   1.982 -2.3024  1.0670 -0.1079
    8MOL   H270 3784   4.768   0.229   1.872 -1.8641  0.1750  0.1191
    8MOL   H271 3785   4.703   0.077   1.801 -1.2589 -0.4989  1.5832
    8MOL   H272 3786   4.702   7.738   2.023 -1.2631 -0.2362  1.2411
    8MOL   H273 3787   4.759   0.112   2.088 -1.0156  0.5982 -0.2945
    8MOL   H274 3788   4.517   0.072   2.135 -0.4580  0.6364  0.6449
    8MOL   H275 3789   4.553   0.220   2.062  2.4041 -0.6019  1.4720
    8MOL   H276 3790   4.476   0.093   1.968  0.4270  0.1201 -0.7802
    8MOL   C277 3791   5.348   7.710   1.630 -0.8749  0.2828  0.1917
    8MOL   C278 3792   5.492   7.653   1.645  0.6620 -0.0016  0.6657
    8MOL   O279 3793   5.503   7.558   1.541 -0.9148  0.3931  0.0464
    8MOL   C280 3794   5.579   7.442   1.578 -0.5993  0.4575 -0.6798
    8MOL   C281 3795   5.582   7.336   1.463  0.0645  0.0195  0.0628
    8MOL   C282 3796   5.671   7.216   1.476  0.0192  0.0254 -0.7466
    8MOL   C283 3797   5.673   7.122   1.355 -0.1839 -0.8962 -0.4545
    8MOL   C284 3798   5.552   7.031   1.348 -0.0225 -0.0389 -0.7358
    8MOL   C285 3799   5.583   6.918   1.245 -0.2898 -0.4988  0.1008
    8MOL   H286 3800   5.329   7.712   1.523 -0.5948 -0.9940  0.1166
    8MOL   H287 3801   5.353   0.035   1.664 -0.1746  0.4239 -0.3167
    8MOL   H288 3802   5.499   7.615   1.747  2.5509  1.4082  1.0859
    8MOL   H289 3803   5.547   7.403   1.675  2.4806  0.5379  0.4092
    8MOL   H290 3804   5.683   7.473   1.592 -0.4442 -0.5854  0.6004
    8MOL   H291 3805   5.615   7.372   1.366  1.7212 -0.6433  0.3649
    8MOL   H292 3806   5.478   7.306   1.453 -0.9002  2.0852  3.0683
    8MOL   H293 3807   5.774   7.236   1.507  0.3785 -1.0572 -1.2094
    8MOL   H294 3808   5.642   7.161   1.566  0.7605  2.4587  1.0244
    8MOL   H295 3809   5.666   7.187   1.267 -0.8190 -0.1771  0.1193
    8MOL   H296 3810   5.764   7.063   1.352  0.1179 -0.3637 -2.1996
    8MOL   H297 3811   5.536   6.971   1.438  2.3002 -0.3311 -0.4727
    8MOL   H298 3812   5.462   7.088   1.325  0.0333  1.5942  2.7062
    8MOL   H299 3813   5.495   6.857   1.223  1.0983 -1.4617 -3.1340
    8MOL   H300 3814   5.618   6.966   1.153  2.0402 -1.5169  0.4485
    8MOL   H301 3815   5.667   6.854   1.270  0.3126  0.8617  1.6366
    8MOL   C302 3816   5.602   7.768   1.613 -0.3731  0.0766  0.3395
    8MOL   C303 3817   5.635   0.088   1.723  0.0770  0.7887  0.1801
    8MOL   O304 3818   5.574   0.209   1.677 -0.2690  0.1953 -0.1722
    8MOL   C305 3819   5.534   0.301   1.785 -0.2509  0.5541  0.8189
    8MOL   C306 3820   5.454   0.428   1.733 -0.0548 -0.0018 -0.0314
    8MOL   C307 3821   5.322   0.394   1.656 -0.6639 -0.4468  0.1231
    8MOL   C308 3822   5.260   0.528   1.598  0.6450 -0.5452 -0.2823
    8MOL   C309 3823   5.143   0.494   1.511  0.1456 -0.6948  0.2848
    8MOL   C310 3824   5.093   0.610   1.424 -0.8647  0.1509  0.3202
    8MOL   H311 3825   5.688   7.702   1.604 -1.2975 -1.0838 -0.0829
    8MOL   H312 3826   5.591   0.026   1.511 -0.0142  0.2501  0.3624
    8MOL   H313 3827   5.591   0.054   1.816 -0.3349 -0.5780 -0.5108
    8MOL   H314 3828   5.617   0.333   1.848  1.0579  0.3749 -0.7686
    8MOL   H315 3829   5.468   0.252   1.857  0.9951 -0.1271  1.5114
    8MOL   H316 3830   5.519   0.481   1.664  1.6049 -2.4428 -0.3819
    8MOL   H317 3831   5.439   0.496   1.817  0.6385  2.1959 -1.6524
    8MOL   H318 3832   5.334   0.325   1.573 -0.1556 -0.5314  0.2653
    8MOL   H319 3833   5.259   0.349   1.733  0.1977 -1.5773  0.1715
    8MOL   H320 3834   5.239   0.599   1.678 -1.0809 -1.2147 -0.1018
    8MOL   H321 3835   5.345   0.566   1.542  0.8388  0.9193  0.9771
    8MOL   H322 3836   5.162   0.406   1.450 -3.0463 -0.6092 -0.8989
    8MOL   H323 3837   5.051   0.461   1.559 -1.6822 -0.0619 -2.6557
    8MOL   H324 3838   5.025   0.570   1.347  0.2069 -1.4099  0.1502
    8MOL   H325 3839   5.061   0.694   1.484 -1.6143  1.6588 -2.1072
    8MOL   H326 3840   5.177   0.640   1.362 -0.2310 -2.3860 -0.1011
    8MOL   C327 3841   5.785   0.115   1.734  0.1754  0.0613  0.1266
    8MOL   C328 3842   5.870   0.053   1.847  0.1434  0.1875 -0.0449
    8MOL   O329 3843   5.884   7.690   1.854 -0.2932 -0.7822  0.1440
    8MOL   C330 3844   5.783   7.624   1.928 -0.7466  1.1745  0.1803
    8MOL   C331 3845   5.820   7.478   1.922 -0.5090  0.0320  0.2431
    8MOL   C332 3846   5.713   7.381   1.968  1.0297 -0.1279  0.8006
    8MOL   C333 3847   5.764   7.238   2.000  0.1889 -0.1108  0.2725
    8MOL   C334 3848   5.663   7.147   2.062 -0.1840 -0.2201 -0.0211
    8MOL   C335 3849   5.714   6.999   2.063 -0.2543  0.0341 -0.1393
    8MOL   H336 3850   5.799   0.221   1.753  1.1121 -0.2965  1.4809
    8MOL   H337 3851   5.836   0.104   1.639 -0.2554 -1.2785  0.0452
    8MOL   H338 3852   5.826   0.077   1.944 -1.0430  1.1905 -0.8169
    8MOL   H339 3853   5.690   7.655   1.881 -0.7786  3.8756  1.9058
    8MOL   H340 3854   5.775   7.642   2.035 -0.1760  0.3224  0.3666
    8MOL   H341 3855   5.921   7.453   1.956  0.1530  2.5801  0.2510
    8MOL   H342 3856   5.844   7.457   1.818 -0.3157 -0.8877  0.4748
    8MOL   H343 3857   5.651   7.415   2.051 -2.4362 -0.9436 -1.3341
    8MOL   H344 3858   5.640   7.373   1.887  0.7120  4.6404  0.5104
    8MOL   H345 3859   5.811   7.198   1.910  1.0301  0.3466  0.5048
    8MOL   H346 3860   5.849   7.248   2.067 -0.3679  0.3323  0.9227
    8MOL   H347 3861   5.658   7.179   2.166  2.1009  0.1147  0.0215
    8MOL   H348 3862   5.564   7.155   2.017  1.3820 -0.1559 -3.6677
    8MOL   H349 3863   5.746   6.977   1.961 -0.7172  0.2389 -0.3309
    8MOL   H350 3864   5.785   6.992   2.146 -0.9240  0.4173  0.4718
    8MOL   H351 3865   5.632   6.929   2.080 -1.1896  0.9966 -0.6422
    8MOL   C352 3866   6.009   0.107   1.844  0.1386 -0.6476 -0.0635
    8MOL   C353 3867   6.083   0.107   1.980  0.5314  0.4241  0.0713
    8MOL   O354 3868   6.019   0.212   2.046 -0.0863  0.4050 -0.1607
    8MOL   C355 3869   5.962   0.189   2.179 -0.5654  0.2671 -0.2021
    8MOL   C356 3870   5.891   0.315   2.226  0.3490 -0.0854 -0.4299
    8MOL   C357 3871   5.784   0.356   2.126 -0.6234 -0.2146 -0.2380
    8MOL   C358 3872   5.734   0.496   2.163 -0.2680 -0.2601 -0.5026
    8MOL   C359 3873   5.614   0.520   2.073  0.6105 -0.7717  0.1625
    8MOL   C360 3874   5.533   0.641   2.117  0.0590  0.2590  0.0637
    8MOL   H361 3875   6.070   0.059   1.768 -0.7673  0.0282 -1.2291
    8MOL   H362 3876   6.021   0.209   1.808  0.1225 -0.8902 -0.7675
    8MOL   H363 3877   6.076   0.016   2.039  0.8152 -0.6559 -1.5343
    8MOL   H364 3878   6.032   0.161   2.258  2.5076  0.6896 -2.7047
    8MOL   H365 3879   5.881   0.116   2.183 -1.8053  1.6842  2.0559
    8MOL   H366 3880   5.961   0.399   2.234  1.4124 -1.0958  1.2235
    8MOL   H367 3881   5.843   0.290   2.321  0.2629  3.3666  0.4996
    8MOL   H368 3882   5.828   0.358   2.026 -0.3680 -0.8997 -0.1377
    8MOL   H369 3883   5.691   0.299   2.128  0.0616 -1.3162  1.2982
    8MOL   H370 3884   5.715   0.497   2.270  0.4979 -0.5215 -0.3626
    8MOL   H371 3885   5.807   0.577   2.158 -0.0305 -0.5054 -1.0645
    8MOL   H372 3886   5.650   0.531   1.970 -0.3920  0.0348 -0.1127
    8MOL   H373 3887   5.546   0.435   2.073 -0.5572  0.1674  0.8242
    8MOL   H374 3888   5.574   0.742   2.110  0.0585  0.2032 -0.8051
    8MOL   H375 3889   5.448   0.659   2.051 -0.6549  2.3831  1.5020
    8MOL   H376 3890   5.480   0.622   2.210  2.0521 -2.0438  0.7680
    8MOL   C377 3891   6.232   0.146   1.961 -0.3087 -0.3234  0.7862
    8MOL   C378 3892   6.314   0.174   2.091 -0.4889 -0.5182 -0.2975
    8MOL   O379 3893   6.290   0.069   2.190  0.2559 -0.2562 -0.3614
    8MOL   C380 3894   6.400   0.054   2.272  0.7785 -0.1850  0.2772
    8MOL   C381 3895   6.363   7.746   2.394  0.2839 -0.5073  0.3884
    8MOL   C382 3896   6.251   0.017   2.468  0.4944  0.2919 -0.3844
    8MOL   C383 3897   6.231   7.722   2.600  0.2458 -0.0864  0.2852
    8MOL   C384 3898   6.333   7.756   2.715 -0.5588  0.2249 -0.7967
    8MOL   C385 3899   6.297   0.112   2.772  0.8390 -0.7708  0.3102
    8MOL   H386 3900   6.273   0.057   1.913  1.1440  0.0686  1.2724
    8MOL   H387 3901   6.248   0.230   1.894  1.2470 -0.0100  1.5302
    8MOL   H388 3902   6.414   0.170   2.047  0.4590  1.6405  1.5751
    8MOL   H389 3903   6.447   0.150   2.292  1.0645  0.2891 -2.4420
    8MOL   H390 3904   6.478   0.003   2.216  2.5123  2.0822  0.5212
    8MOL   H391 3905   6.447   7.707   2.452 -0.6039 -0.4027  1.7708
    8MOL   H392 3906   6.338   7.647   2.356  2.2583 -0.8736 -0.0250
    8MOL   H393 3907   6.262   0.125   2.483 -1.1565  0.7414 -2.2074
    8MOL   H394 3908   6.160   7.776   2.412  0.5491 -0.0498 -0.3540
    8MOL   H395 3909   6.131   7.745   2.635 -0.8213 -1.7507 -1.6017
    8MOL   H396 3910   6.224   7.614   2.583 -1.9578 -0.1048  1.2264
    8MOL   H397 3911   6.323   7.677   2.789 -3.8203 -0.8786 -2.3240
    8MOL   H398 3912   6.429   7.753   2.663 -1.7666  1.1660 -3.1595
    8MOL   H399 3913   6.202   0.111   2.826  0.5450  1.3687 -0.1364
    8MOL   H400 3914   6.367   0.122   2.855  0.0700  2.0272  0.6661
    8MOL   H401 3915   6.305   0.195   2.702  0.3198 -1.2772 -0.3634
    8MOL   C402 3916   6.292   0.316   2.146  0.0227 -0.3273 -0.2552
    8MOL   C403 3917   6.404   0.417   2.114  0.9506  0.1160 -0.8790
    8MOL   O404 3918   6.525   0.360   2.152 -0.1963 -0.4941  0.6194
    8MOL   C405 3919   6.637   0.408   2.087  0.6199  0.7663  0.4044
    8MOL   C406 3920   6.742   0.314   2.129  0.3578 -0.6173 -0.3876
    8MOL   C407 3921   6.884   0.366   2.113  0.0292 -0.5186  0.3993
    8MOL   C408 3922   6.933   0.472   2.213 -0.2847 -0.0095  0.6259
    8MOL   C409 3923   6.909   0.435   2.359  0.8674  0.0663  0.0736
    8MOL   C410 3924   6.984   0.520   2.470 -0.6880 -0.3267 -0.0331
    8MOL   H411 3925   6.284   0.306   2.254  1.7535 -0.2317 -0.0994
    8MOL   H412 3926   6.194   0.350   2.112  0.5080  2.0988  0.7079
    8MOL   H413 3927   6.407   0.427   2.005 -1.0800 -0.1321 -0.9739
    8MOL   H414 3928   6.662   0.506   2.126  0.9091  1.3469 -1.1732
    8MOL   H415 3929   6.619   0.410   1.979 -0.0273  0.1628  0.4978
    8MOL   H416 3930   6.729   0.221   2.073 -1.5142 -0.6306  0.0494
    8MOL   H417 3931   6.726   0.281   2.232  0.7918 -2.8751 -1.0099
    8MOL   H418 3932   6.957   0.287   2.132 -2.1984 -2.6886  0.1323
    8MOL   H419 3933   6.910   0.392   2.011 -2.5177  0.2654 -0.0605
    8MOL   H420 3934   7.040   0.487   2.204 -0.1789 -1.5271 -0.9996
    8MOL   H421 3935   6.879   0.563   2.188 -0.1979 -0.1622 -0.1367
    8MOL   H422 3936   6.802   0.443   2.380  0.9074 -1.8892  1.0508
    8MOL   H423 3937   6.948   0.333   2.360 -0.5359 -0.4757  0.3278
    8MOL   H424 3938   6.957   0.625   2.457 -1.1632 -0.6017 -1.3597
    8MOL   H425 3939   6.948   0.489   2.568 -2.3871 -0.7511 -0.7688
    8MOL   H426 3940   7.091   0.520   2.452 -0.6363  1.3002  0.2352
    8MOL   C427 3941   6.379   0.565   2.167  0.0539 -0.0386 -0.4563
    8MOL   C428 3942   6.388   0.570   2.317 -0.1215 -0.8541 -0.4740
    8MOL   O429 3943   6.463   0.684   2.364  0.4027 -0.3057  0.5450
    8MOL   C430 3944   6.405   0.811   2.352  0.4398  0.1640  0.0447
    8MOL   C431 3945   6.491   0.935   2.384  0.3196 -0.2720  0.2732
    8MOL   C432 3946   6.583   0.953   2.270  0.3305 -0.3512  0.6816
    8MOL   C433 3947   6.674   1.071   2.281 -0.4936  0.3702  0.0178
    8MOL   C434 3948   6.748   1.093   2.145  0.3255 -0.3753 -0.1728
    8MOL   C435 3949   6.839   1.214   2.155  0.4423  0.2264  0.3802
    8MOL   H436 3950   6.443   0.639   2.120 -0.9468  2.3071  1.7793
    8MOL   H437 3951   6.277   0.596   2.142  0.5616  3.1388  1.2228
    8MOL   H438 3952   6.450   0.486   2.349  2.2661  0.8777 -0.3944
    8MOL   H439 3953   6.324   0.808   2.424  1.2305 -0.9646  0.9094
    8MOL   H440 3954   6.360   0.827   2.254  0.3472 -1.4083 -0.1835
    8MOL   H441 3955   6.543   0.909   2.476  0.9949 -1.0158 -0.3090
    8MOL   H442 3956   6.434   1.024   2.412 -0.7209 -1.1893  1.1434
    8MOL   H443 3957   6.640   0.863   2.247  1.7540  1.3587 -2.6774
    8MOL   H444 3958   6.515   0.969   2.188  0.7962  0.3837  0.4348
    8MOL   H445 3959   6.624   1.164   2.308 -1.1986 -0.7375  2.7260
    8MOL   H446 3960   6.747   1.049   2.359 -0.9015 -2.4065 -0.3471
    8MOL   H447 3961   6.803   1.004   2.114  2.1068  0.5063  0.4083
    8MOL   H448 3962   6.679   1.109   2.062  1.2232 -0.1656 -0.8899
    8MOL   H449 3963   6.925   1.188   2.217 -1.1023 -1.2943  1.9203
    8MOL   H450 3964   6.875   1.245   2.057 -0.3858 -0.3385 -0.1087
    8MOL   H451 3965   6.785   1.297   2.202  1.5684  2.4953 -2.2165
    8MOL   C452 3966   6.253   0.562   2.382 -0.0659 -0.0814  0.6944
    8MOL   C453 3967   6.263   0.503   2.528 -0.8375  0.0340  0.5446
    8MOL   O454 3968   6.130   0.492   2.568 -0.4729 -0.4959 -0.4786
    8MOL   C455 3969   6.090   0.358   2.570  0.5017  0.0829  0.0592
    8MOL   C456 3970   5.938   0.355   2.598  0.2856  0.3683  0.1830
    8MOL   C457 3971   5.892   0.204   2.596  0.1190  0.8704  0.1481
    8MOL   C458 3972   5.744   0.188   2.633  0.4343  0.0037  0.5691
    8MOL   C459 3973   5.645   0.212   2.517  0.1960  0.9833  1.1522
    8MOL   C460 3974   5.501   0.189   2.555  0.6704  0.3113  0.1355
    8MOL   H461 3975   6.183   0.645   2.373  2.0107  1.5784 -0.5001
    8MOL   H462 3976   6.198   0.486   2.326  0.6558 -1.0799  1.2987
    8MOL   H463 3977   6.320   0.410   2.523  1.6255  1.4447  1.6992
    8MOL   H464 3978   6.143   0.299   2.645  0.2314 -1.8968 -1.2661
    8MOL   H465 3979   6.116   0.319   2.472  2.2450  0.2241  0.4440
    8MOL   H466 3980   5.886   0.407   2.517  1.7436  1.0326 -0.3404
    8MOL   H467 3981   5.909   0.399   2.693 -0.0603 -2.5677  1.4869
    8MOL   H468 3982   5.917   0.164   2.498 -0.0991 -0.4481  0.6181
    8MOL   H469 3983   5.953   0.138   2.658  0.6684  2.6045  1.5035
    8MOL   H470 3984   5.730   0.082   2.656  0.5068 -0.5057 -1.5739
    8MOL   H471 3985   5.730   0.249   2.722  3.1465  2.1747 -0.4304
    8MOL   H472 3986   5.663   0.310   2.472 -0.7381  1.3209  1.4949
    8MOL   H473 3987   5.669   0.148   2.432 -5.8672 -0.1742  0.0834
    8MOL   H474 3988   5.496   0.081   2.573  0.3919  0.5485  1.5172
    8MOL   H475 3989   5.452   0.240   2.637  0.0195 -0.3567  0.1771
    8MOL   H476 3990   5.434   0.205   2.470  0.8027 -1.0005 -0.2308
    8MOL   C477 3991   6.333   0.587   2.635  0.2016 -0.5854  0.1226
    8MOL   C478 3992   6.314   0.535   2.775  0.2105 -0.3640  0.0320
    8MOL   O479 3993   6.425   0.585   2.847  0.4000 -0.1515  0.3500
    8MOL   C480 3994   6.401   0.585   2.989  0.6914  0.3212  0.0471
    8MOL   C481 3995   6.529   0.597   3.069  0.7044  0.4915  0.5561
    8MOL   C482 3996   6.621   0.478   3.056 -0.4436  0.3715  1.1176
    8MOL   C483 3997   6.750   0.483   3.145 -0.5112 -1.3175 -0.0009
    8MOL   C484 3998   6.851   0.375   3.105  0.0816  0.0192 -0.6658
    8MOL   C485 3999   6.969   0.366   3.198 -0.6825  0.1657 -0.3761
    8MOL   H486 4000   6.435   0.564   2.602  0.6426  0.5696  0.6314
    8MOL   H487 4001   6.322   0.695   2.643 -0.5012 -0.6628  0.1970
    8MOL   H488 4002   6.222   0.581   2.811  0.3508 -0.5832  0.6791
    8MOL   H489 4003   6.348   0.495   3.021 -0.2451  0.6480 -0.5563
    8MOL   H490 4004   6.329   0.663   3.016  0.0007 -1.0053  2.1346
    8MOL   H491 4005   6.496   0.607   3.173 -1.4839 -1.5117  0.0832
    8MOL   H492 4006   6.584   0.684   3.034 -0.1609  0.6357 -0.4204
    8MOL   H493 4007   6.566   0.386   3.077  0.4701  0.1873  2.7950
    8MOL   H494 4008   6.654   0.472   2.953 -0.4173  0.9569  1.0890
    8MOL   H495 4009   6.798   0.580   3.134  1.7118 -2.3756  0.1041
    8MOL   H496 4010   6.717   0.462   3.247 -0.1920  0.3094  0.4566
    8MOL   H497 4011   6.783   0.290   3.095 -0.4169  0.4875 -1.2772
    8MOL   H498 4012   6.889   0.389   3.004  0.1220  0.0392 -0.6474
    8MOL   H499 4013   7.012   0.266   3.189 -0.3865  0.3048 -0.4929
    8MOL   H500 4014   7.044   0.443   3.181 -0.3570 -0.0261  0.1496
    8MOL   H501 4015   6.931   0.377   3.300 -2.5407 -1.9838 -0.7895
    8MOL   H502 4016   6.314   0.426   2.783 -2.5549 -0.3733  0.4399
    9MOL     C1 4017   4.013   1.135   6.740 -0.9281  1.1253  0.3527
    9MOL     C2 4018   3.863   1.143   6.706 -0.1656  0.4595 -0.2501
    9MOL     O3 4019   3.843   1.080   6.581 -0.8194 -0.2200  0.1168
    9MOL     C4 4020   3.802   0.944   6.588  0.2532  0.0718  0.0860
    9MOL     C5 4021   3.769   0.894   6.451  0.1447  0.5481  0.5194
    9MOL     C6 4022   3.762   0.739   6.445 -0.0679  0.4545 -0.5265
    9MOL     C7 4023   3.898   0.678   6.409 -0.9393  0.3838  0.1810
    9MOL     C8 4024   3.903   0.523   6.391 -0.1010 -1.2372  0.3282
    9MOL     C9 4025   4.038   0.476   6.343 -0.4274  0.2221 -0.5004
    9MOL    H10 4026   4.068   1.174   6.654  0.2990  0.5874  0.8866
    9MOL    H11 4027   4.045   1.186   6.830 -1.3094 -0.8175  1.6241
    9MOL    H12 4028   3.816   1.093   6.791 -0.9659  1.1032 -0.3079
    9MOL    H13 4029   3.721   0.925   6.659  1.4146 -1.3993  1.0408
    9MOL    H14 4030   3.887   0.881   6.615  0.1328 -0.0456  0.1971
    9MOL    H15 4031   3.841   0.929   6.377 -0.6495  0.4488 -0.3077
    9MOL    H16 4032   3.674   0.925   6.408 -0.5027 -1.6485  0.2784
    9MOL    H17 4033   3.705   0.686   6.522  2.5009 -0.2503  0.9309
    9MOL    H18 4034   3.695   0.703   6.367 -2.6665 -0.8249  2.1684
    9MOL    H19 4035   3.935   0.725   6.317 -2.9558  0.0425 -0.8232
    9MOL    H20 4036   3.968   0.707   6.487 -1.3663 -0.0575  0.7285
    9MOL    H21 4037   3.816   0.478   6.342 -0.3168 -1.3002  0.7697
    9MOL    H22 4038   3.892   0.485   6.493  1.1947 -1.9234  0.2301
    9MOL    H23 4039   4.045   0.369   6.323 -3.9865 -0.1149 -0.1301
    9MOL    H24 4040   4.041   0.513   6.240  0.8711 -2.1727 -1.3744
    9MOL    H25 4041   4.112   0.514   6.414 -0.4679  1.8692 -1.3247
    9MOL    H26 4042   4.046   1.032   6.750 -1.0194  0.9548 -0.9671
    9MOL    C27 4043   3.808   1.284   6.696  0.1616 -0.5230  0.6151
    9MOL    C28 4044   3.659   1.271   6.663  0.7523 -0.7085  0.9061
    9MOL    O29 4045   3.592   1.219   6.779  0.1526 -0.0479 -0.2029
    9MOL    C30 4046   3.490   1.126   6.743 -0.1378 -0.7788  0.2927
    9MOL    C31 4047   3.415   1.083   6.874  0.5089  0.6148 -0.3951
    9MOL    C32 4048   3.494   0.993   6.967  0.5867  0.0033  0.0897
    9MOL    C33 4049   3.415   0.944   7.092 -0.4684 -0.4274 -0.1888
    9MOL    C34 4050   3.509   0.839   7.164  0.5610  0.5514  0.1178
    9MOL    C35 4051   3.442   0.801   7.294 -0.0809  0.2915 -0.5328
    9MOL    H36 4052   3.824   1.342   6.787 -1.8452  2.0051 -0.6113
    9MOL    H37 4053   3.869   1.343   6.628 -2.3900  2.3918  0.8010
    9MOL    H38 4054   3.642   1.220   6.568 -0.6273 -1.2565  1.4387
    9MOL    H39 4055   3.526   1.039   6.689  0.8501 -1.4624  2.0052
    9MOL    H40 4056   3.414   1.178   6.685 -1.3179 -0.1945  2.3158
    9MOL    H41 4057   3.326   1.027   6.845 -0.5242  1.8965  0.2217
    9MOL    H42 4058   3.387   1.169   6.936  3.0665  1.5627 -0.5071
    9MOL    H43 4059   3.526   0.903   6.916 -0.0634  0.2404 -0.7428
    9MOL    H44 4060   3.582   1.039   7.012  1.8260 -1.7355 -0.4859
    9MOL    H45 4061   3.382   1.027   7.154 -1.7422  0.7756 -2.4020
    9MOL    H46 4062   3.316   0.898   7.081 -0.8258  0.4314 -0.5821
    9MOL    H47 4063   3.537   0.752   7.106  1.1399  0.0130  1.1742
    9MOL    H48 4064   3.605   0.886   7.186  0.7404 -0.5693  1.8017
    9MOL    H49 4065   3.498   0.720   7.341  0.3986  0.1352 -1.3646
    9MOL    H50 4066   3.439   0.873   7.375  3.1929 -0.1711  0.0916
    9MOL    H51 4067   3.344   0.757   7.275  0.5257 -1.3706  0.0579
    9MOL    C52 4068   3.591   1.410   6.644 -0.0456 -0.4118 -0.1968
    9MOL    C53 4069   3.588   1.458   6.502  0.4369 -0.5512 -0.1584
    9MOL    O54 4070   3.502   1.385   6.411  0.0599 -0.1319 -0.0169
    9MOL    C55 4071   3.527   1.410   6.273  0.3542  0.0316  0.0139
    9MOL    C56 4072   3.482   1.276   6.201  0.0951 -0.7678  0.1434
    9MOL    C57 4073   3.594   1.174   6.196  0.2661 -0.2609 -0.3537
    9MOL    C58 4074   3.546   1.043   6.142 -0.3973  0.4227 -0.0068
    9MOL    C59 4075   3.665   0.951   6.111 -0.5351  0.1017  0.3226
    9MOL    C60 4076   3.611   0.811   6.071  0.0893 -0.3719 -0.2038
    9MOL    H61 4077   3.647   1.469   6.716  2.0362 -3.2764  0.6390
    9MOL    H62 4078   3.485   1.413   6.668  0.2346 -0.2686  1.0546
    9MOL    H63 4079   3.688   1.438   6.462  0.4757 -1.2544  0.2793
    9MOL    H64 4080   3.631   1.438   6.263  0.5107  0.3707  2.3320
    9MOL    H65 4081   3.473   1.489   6.220  0.9490  0.1873 -0.3639
    9MOL    H66 4082   3.451   1.290   6.097 -0.1216 -0.5154  0.2425
    9MOL    H67 4083   3.399   1.232   6.255  1.2917  1.2995  3.7867
    9MOL    H68 4084   3.663   1.224   6.129 -2.9273  0.7544 -2.9925
    9MOL    H69 4085   3.651   1.176   6.289 -1.7325 -1.0512  0.9176
    9MOL    H70 4086   3.473   0.995   6.207 -1.4849  2.7434  0.5544
    9MOL    H71 4087   3.480   1.065   6.058 -2.9551 -0.3623  1.7447
    9MOL    H72 4088   3.717   0.987   6.023 -0.6233 -1.0865 -0.2228
    9MOL    H73 4089   3.738   0.939   6.192 -1.3512  0.6670  1.1571
    9MOL    H74 4090   3.525   0.814   6.004 -1.8035  0.4776  2.1811
    9MOL    H75 4091   3.693   0.757   6.025 -0.0583  0.2691 -1.2527
    9MOL    H76 4092   3.579   0.754   6.158 -0.1360 -2.2893 -1.5126
    9MOL    C77 4093   3.571   1.611   6.489 -0.2111  0.2352 -0.2919
    9MOL    C78 4094   3.683   1.703   6.548 -0.0030  0.3993  0.1051
    9MOL    O79 4095   3.644   1.838   6.541  0.6856 -0.3856 -0.2449
    9MOL    C80 4096   3.579   1.897   6.652 -0.0551  0.8068  0.2865
    9MOL    C81 4097   3.532   2.042   6.627 -0.0042 -1.1781  0.4524
    9MOL    C82 4098   3.646   2.147   6.623 -0.2495  0.1032  0.1837
    9MOL    C83 4099   3.623   2.285   6.559 -0.4055  0.1188 -0.1727
    9MOL    C84 4100   3.760   2.346   6.536  0.0844 -0.2558  0.1341
    9MOL    C85 4101   3.759   2.479   6.466  0.1682  0.9508 -0.1403
    9MOL    H86 4102   3.469   1.637   6.517  0.6229  1.2156  1.8953
    9MOL    H87 4103   3.575   1.633   6.382  1.1293 -1.3990 -0.5911
    9MOL    H88 4104   3.696   1.675   6.652  0.8983 -1.0184 -0.3798
    9MOL    H89 4105   3.640   1.902   6.742 -1.5073 -2.6564  1.5597
    9MOL    H90 4106   3.497   1.826   6.664  1.2537 -0.9848 -1.1476
    9MOL    H91 4107   3.446   2.067   6.690 -0.0983 -0.8118  0.1827
    9MOL    H92 4108   3.496   2.034   6.524  2.3524 -1.2501 -0.3835
    9MOL    H93 4109   3.698   2.150   6.719  0.2114 -1.4005 -0.0041
    9MOL    H94 4110   3.728   2.098   6.570  0.0156  1.5999 -0.8220
    9MOL    H95 4111   3.568   2.273   6.465  1.6365  1.9264 -1.6815
    9MOL    H96 4112   3.567   2.356   6.621  0.7999  1.2778 -0.3850
    9MOL    H97 4113   3.797   2.352   6.638  1.5880  2.8443 -0.5249
    9MOL    H98 4114   3.830   2.274   6.495 -0.0171 -0.3303  0.0915
    9MOL    H99 4115   3.855   2.525   6.444  0.7122 -0.0261  0.2105
    9MOL   H100 4116   3.716   2.457   6.369  1.7423 -1.1949 -0.3640
    9MOL   H101 4117   3.687   2.547   6.514  0.7216  0.0490  2.0166
    9MOL   C102 4118   3.826   1.690   6.489 -0.0003  0.0791  0.1548
    9MOL   C103 4119   3.932   1.772   6.569 -0.0191 -0.4813  1.1181
    9MOL   O104 4120   3.973   1.687   6.673 -0.4568  0.1432 -0.2777
    9MOL   C105 4121   4.012   1.748   6.796 -0.0238  0.3228  0.5349
    9MOL   C106 4122   3.897   1.745   6.898  0.3965 -0.1147  0.5062
    9MOL   C107 4123   3.824   1.615   6.933 -0.7239  0.4136  0.4450
    9MOL   C108 4124   3.692   1.631   7.010 -0.0325 -0.6711 -0.0401
    9MOL   C109 4125   3.618   1.498   7.040 -0.2810  0.0931  0.3787
    9MOL   C110 4126   3.689   1.424   7.155 -0.6474  0.7575  0.9773
    9MOL   H111 4127   3.854   1.585   6.483 -1.6560 -0.3071 -1.2801
    9MOL   H112 4128   3.824   1.717   6.384 -1.2221 -0.8396 -0.0645
    9MOL   H113 4129   3.901   1.867   6.613 -0.1391 -0.0572  0.1418
    9MOL   H114 4130   4.061   1.845   6.782 -0.7208  0.8872  1.8851
    9MOL   H115 4131   4.099   1.687   6.821 -0.6033 -1.2217 -1.1274
    9MOL   H116 4132   3.829   1.820   6.858  0.8189 -0.1282 -0.2587
    9MOL   H117 4133   3.932   1.798   6.986  1.6109  0.5762 -0.3715
    9MOL   H118 4134   3.812   1.559   6.840  1.0560 -1.2617  1.2004
    9MOL   H119 4135   3.892   1.553   6.991 -3.9524 -1.9695  1.8319
    9MOL   H120 4136   3.721   1.695   7.093  1.0356 -2.2321  0.8377
    9MOL   H121 4137   3.627   1.684   6.942  0.4075  1.0233  0.8383
    9MOL   H122 4138   3.518   1.512   7.080  0.1377  0.1649  1.4175
    9MOL   H123 4139   3.591   1.436   6.955  0.2143 -0.6452  0.7559
    9MOL   H124 4140   3.729   1.490   7.232  2.0831 -0.6278  0.8296
    9MOL   H125 4141   3.625   1.346   7.197 -0.3158 -0.0856 -0.0530
    9MOL   H126 4142   3.771   1.366   7.111 -1.3268  1.0029 -0.6418
    9MOL   C127 4143   4.058   1.801   6.491  0.2368 -1.1867  0.4062
    9MOL   C128 4144   4.057   1.932   6.412 -0.4434  0.1140  0.5294
    9MOL   O129 4145   3.972   1.924   6.301 -0.0858  0.1967  0.3080
    9MOL   C130 4146   3.874   2.027   6.299  0.5116 -0.5420  0.1297
    9MOL   C131 4147   3.788   2.024   6.171  0.2853  0.4661 -0.3929
    9MOL   C132 4148   3.703   2.153   6.165 -1.5413  0.1023 -0.2377
    9MOL   C133 4149   3.620   2.159   6.036  0.1950 -0.4408  0.2102
    9MOL   C134 4150   3.503   2.261   6.023  0.3937  0.6905  0.3486
    9MOL   C135 4151   3.530   2.409   6.064  0.8187  0.4444  0.0103
    9MOL   H136 4152   4.140   1.809   6.562 -0.4854  0.4409  1.0991
    9MOL   H137 4153   4.068   1.714   6.426  1.5459  2.0553 -3.9692
    9MOL   H138 4154   4.028   2.008   6.484  0.4243  2.4618 -1.5151
    9MOL   H139 4155   3.920   2.124   6.318  1.1842 -0.5323 -1.4706
    9MOL   H140 4156   3.813   2.008   6.387  0.3097  0.6005  0.2509
    9MOL   H141 4157   3.729   1.933   6.167  0.1011  0.6230 -1.3312
    9MOL   H142 4158   3.855   2.017   6.085 -0.7933  0.6909 -1.2677
    9MOL   H143 4159   3.637   2.153   6.251  0.8217 -1.7256  1.6443
    9MOL   H144 4160   3.764   2.243   6.175 -2.2298  0.7387 -1.5929
    9MOL   H145 4161   3.700   2.184   5.966 -0.4788  0.0222 -0.3987
    9MOL   H146 4162   3.587   2.063   5.998  1.9482 -1.0259  0.1184
    9MOL   H147 4163   3.461   2.254   5.923 -0.4793  0.9618  0.6900
    9MOL   H148 4164   3.424   2.218   6.086 -0.7963  1.6836 -0.4529
    9MOL   H149 4165   3.552   2.413   6.171 -2.3943  0.0098  0.7487
    9MOL   H150 4166   3.601   2.466   6.005 -0.7160  1.2017 -1.1315
    9MOL   H151 4167   3.429   2.450   6.072  1.0514  0.7678  1.4054
    9MOL   C152 4168   4.206   1.969   6.361  0.7782 -0.2402 -0.0161
    9MOL   C153 4169   4.232   2.116   6.366 -0.1610 -0.3629 -0.2991
    9MOL   O154 4170   4.237   2.155   6.501 -0.1724  0.1639  0.3732
    9MOL   C155 4171   4.181   2.283   6.525  0.0453 -0.6789 -0.0855
    9MOL   C156 4172   4.163   2.296   6.677 -0.0506 -0.5943 -0.5824
    9MOL   C157 4173   4.077   2.184   6.741 -1.2207  0.1667 -0.3577
    9MOL   C158 4174   4.066   2.201   6.894 -0.3341 -0.5737  0.6235
    9MOL   C159 4175   3.966   2.110   6.960  0.1069  0.2529 -0.3200
    9MOL   C160 4176   3.963   2.129   7.115  0.4617 -0.3948 -0.0192
    9MOL   H161 4177   4.283   1.924   6.423  1.8459  4.0560  1.9608
    9MOL   H162 4178   4.226   1.931   6.260 -2.8700  1.1065 -1.3353
    9MOL   H163 4179   4.152   2.166   6.311 -0.4825  0.7593  1.1614
    9MOL   H164 4180   4.080   2.302   6.488 -0.5266 -1.4755  1.0564
    9MOL   H165 4181   4.252   2.359   6.493  0.7607 -0.6110  1.6173
    9MOL   H166 4182   4.092   2.377   6.694 -0.4455 -1.2426  0.9044
    9MOL   H167 4183   4.255   2.303   6.735  0.1812 -2.3811 -0.7127
    9MOL   H168 4184   3.982   2.174   6.688 -0.5343 -2.0412 -1.2336
    9MOL   H169 4185   4.137   2.096   6.717 -1.1391  0.3214 -0.7268
    9MOL   H170 4186   4.167   2.180   6.930  0.3092  2.1229  0.4803
    9MOL   H171 4187   4.036   2.302   6.921  0.2853  0.2626 -1.7251
    9MOL   H172 4188   3.866   2.127   6.920 -0.2366  3.3493  1.6029
    9MOL   H173 4189   3.992   2.007   6.937 -0.5027  0.8634 -3.9169
    9MOL   H174 4190   3.936   2.233   7.134  1.4082 -0.3107  0.9212
    9MOL   H175 4191   3.883   2.070   7.160 -0.4207  0.1667 -0.8287
    9MOL   H176 4192   4.058   2.112   7.164  0.2574  0.1369  0.5594
    9MOL   C177 4193   4.365   2.158   6.291 -0.3003  0.3441  0.5194
    9MOL   C178 4194   4.359   2.134   6.134 -0.1286  0.6616  0.1219
    9MOL   O179 4195   4.259   2.226   6.093  0.3301 -0.1969 -0.1166
    9MOL   C180 4196   4.146   2.158   6.025 -0.5089  0.1519 -0.0130
    9MOL   C181 4197   4.040   2.264   5.999 -0.2723  0.2806  0.2660
    9MOL   C182 4198   4.071   2.377   5.896 -0.2219 -0.3272  0.4902
    9MOL   C183 4199   3.949   2.474   5.886  0.1812 -0.3075 -0.1541
    9MOL   C184 4200   3.976   2.577   5.775 -0.0953 -0.8713 -0.3401
    9MOL   C185 4201   3.884   2.699   5.791  0.2181 -0.4542 -0.2445
    9MOL   H186 4202   4.390   2.261   6.317  1.5438 -0.2854  1.3699
    9MOL   H187 4203   4.446   2.097   6.330  0.1720  0.2264 -0.6115
    9MOL   H188 4204   4.341   2.030   6.106 -1.2184  0.7776  0.3869
    9MOL   H189 4205   4.106   2.086   6.096 -1.3828 -0.3791 -1.0158
    9MOL   H190 4206   4.174   2.108   5.932  0.9908 -0.4404  0.7347
    9MOL   H191 4207   3.992   2.293   6.092 -1.2384  1.0957 -0.4786
    9MOL   H192 4208   3.971   2.206   5.938  1.4023 -0.9626 -0.4828
    9MOL   H193 4209   4.156   2.435   5.934  0.2387 -1.0994  0.6445
    9MOL   H194 4210   4.100   2.343   5.796  1.7567  2.0017  0.2183
    9MOL   H195 4211   3.858   2.422   5.855 -0.9413  2.6546 -2.0355
    9MOL   H196 4212   3.926   2.521   5.981 -1.3571 -0.7298 -0.3017
    9MOL   H197 4213   4.080   2.609   5.777 -0.2011 -0.6051  3.1860
    9MOL   H198 4214   3.955   2.525   5.681 -0.3251  0.3900 -1.0100
    9MOL   H199 4215   3.905   2.744   5.888  2.4489 -0.9866 -0.4566
    9MOL   H200 4216   3.900   2.777   5.717 -1.0476  1.3847  1.3760
    9MOL   H201 4217   3.779   2.672   5.778 -0.1142  1.0629 -0.7995
    9MOL   C202 4218   4.498   2.162   6.058 -0.7842  0.2169  0.0090
    9MOL   C203 4219   4.496   2.154   5.901  0.1022  0.1864  0.7781
    9MOL   O204 4220   4.624   2.125   5.845  0.2724 -0.3605  0.6084
    9MOL   C205 4221   4.674   1.986   5.854  0.4623  0.0698  0.0143
    9MOL   C206 4222   4.809   1.987   5.789  0.7296  0.6093  0.6567
    9MOL   C207 4223   4.798   2.034   5.646 -0.4405 -0.2799  0.1843
    9MOL   C208 4224   4.930   2.007   5.576 -0.0219 -0.3925  0.5428
    9MOL   C209 4225   4.913   2.039   5.428 -0.6664  0.0442 -0.0831
    9MOL   C210 4226   5.040   2.022   5.346  0.0597  0.4199  0.5152
    9MOL   H211 4227   4.537   2.256   6.097 -0.1919 -0.3358  0.7416
    9MOL   H212 4228   4.554   2.073   6.087  0.9636  1.2649 -0.0993
    9MOL   H213 4229   4.426   2.075   5.875 -0.1339  1.2738 -2.0315
    9MOL   H214 4230   4.620   1.914   5.794  1.5605 -1.1152  0.4293
    9MOL   H215 4231   4.682   1.951   5.956  3.0799 -1.9992 -0.8351
    9MOL   H216 4232   4.863   1.893   5.795  2.1522  0.9787 -4.0453
    9MOL   H217 4233   4.878   2.055   5.839  1.7254 -0.3797  0.6223
    9MOL   H218 4234   4.723   1.981   5.587  1.3563 -0.7303 -1.7349
    9MOL   H219 4235   4.760   2.136   5.636 -1.1620 -0.6109 -0.5003
    9MOL   H220 4236   5.008   2.071   5.617  0.4431 -1.7991  1.8867
    9MOL   H221 4237   4.965   1.908   5.606  0.3209 -1.0310 -1.8612
    9MOL   H222 4238   4.825   1.990   5.387 -0.8806 -0.7041  1.2292
    9MOL   H223 4239   4.882   2.142   5.414 -1.3614 -0.2010 -0.3705
    9MOL   H224 4240   5.127   2.065   5.395  0.0209  0.7985  0.2534
    9MOL   H225 4241   5.057   1.915   5.344 -1.7347  0.1344 -2.6386
    9MOL   H226 4242   5.033   2.059   5.244  2.7203 -1.2534 -0.3241
    9MOL   C227 4243   4.438   2.274   5.831  0.7698 -1.0871  0.3885
    9MOL   C228 4244   4.371   2.249   5.690  0.3012 -0.0124  0.0490
    9MOL   O229 4245   4.253   2.167   5.715  0.1219  0.1582  0.4388
    9MOL   C230 4246   4.180   2.128   5.595 -0.5755 -0.1644  0.5313
    9MOL   C231 4247   4.076   2.033   5.659 -0.0773 -0.3663 -0.2002
    9MOL   C232 4248   3.978   1.959   5.568 -0.0434  0.0186  0.2090
    9MOL   C233 4249   3.861   1.910   5.650 -0.4981  0.0355 -0.4995
    9MOL   C234 4250   3.744   1.851   5.568  0.3935 -0.5246 -0.2012
    9MOL   C235 4251   3.621   1.810   5.658  0.2349  0.0506  0.2924
    9MOL   H236 4252   4.355   2.309   5.892  0.4976 -1.2022  0.0813
    9MOL   H237 4253   4.528   2.336   5.825  0.9255 -1.3405  0.0953
    9MOL   H238 4254   4.445   2.188   5.638 -0.2187  0.1290 -0.8674
    9MOL   H239 4255   4.249   2.090   5.520 -1.0103  0.1500 -0.0312
    9MOL   H240 4256   4.130   2.214   5.551 -0.6167 -0.4731 -0.0345
    9MOL   H241 4257   4.019   2.094   5.728 -0.8346 -1.3168  0.0142
    9MOL   H242 4258   4.120   1.954   5.720  0.8206 -0.6919 -1.2562
    9MOL   H243 4259   3.941   2.030   5.493 -0.5009  0.5437  0.9262
    9MOL   H244 4260   4.036   1.892   5.506  0.3125  1.7617 -1.3972
    9MOL   H245 4261   3.884   1.841   5.731  1.0436 -0.1219 -1.0535
    9MOL   H246 4262   3.822   1.994   5.708 -2.7285 -0.9960 -0.4769
    9MOL   H247 4263   3.700   1.928   5.504  1.6071  1.8722  1.7723
    9MOL   H248 4264   3.778   1.769   5.505  2.1561 -0.8215  1.1005
    9MOL   H249 4265   3.570   1.897   5.697  1.4065  1.0383 -0.3376
    9MOL   H250 4266   3.541   1.757   5.604  0.4774 -0.5977  0.5675
    9MOL   H251 4267   3.646   1.752   5.746  3.6066  0.5243 -0.2763
    9MOL   C252 4268   4.338   2.377   5.620 -0.8060 -0.0850 -0.0045
    9MOL   C253 4269   4.465   2.446   5.573  0.1679  0.1863  0.1668
    9MOL   O254 4270   4.425   2.569   5.517  0.4998 -0.7514  0.2089
    9MOL   C255 4271   4.445   2.692   5.590  0.1755  0.3403 -0.1374
    9MOL   C256 4272   4.357   2.796   5.525  0.6999 -0.3461 -0.9301
    9MOL   C257 4273   4.374   2.935   5.588 -0.2776  0.1035 -0.4194
    9MOL   C258 4274   4.294   3.043   5.520 -0.2056 -0.1999 -0.1498
    9MOL   C259 4275   4.350   3.193   5.530  0.0872 -0.5021 -0.1429
    9MOL   C260 4276   4.489   3.212   5.462  0.5377 -0.7203 -0.1896
    9MOL   H261 4277   4.273   2.359   5.534  1.5554  0.4504 -1.9336
    9MOL   H262 4278   4.286   2.437   5.695 -0.0141  0.8697 -0.2209
    9MOL   H263 4279   4.540   2.478   5.646  0.6826 -1.6319  0.4687
    9MOL   H264 4280   4.552   2.712   5.600  0.3525 -2.0637  3.3094
    9MOL   H265 4281   4.404   2.677   5.690  1.9746  0.9050  0.7177
    9MOL   H266 4282   4.258   2.758   5.550  1.2298 -1.3272 -0.3089
    9MOL   H267 4283   4.368   2.802   5.416  0.8294 -2.1191 -1.0239
    9MOL   H268 4284   4.364   2.942   5.696  0.7128  0.0436 -0.3169
    9MOL   H269 4285   4.478   2.958   5.564 -0.2497  0.0903 -0.3127
    9MOL   H270 4286   4.293   3.019   5.414 -2.9406  1.8986 -0.6456
    9MOL   H271 4287   4.193   3.032   5.559  0.9280  0.7235  3.3106
    9MOL   H272 4288   4.293   3.273   5.482 -0.1303  0.2490  1.3371
    9MOL   H273 4289   4.355   3.224   5.634 -0.6646  1.5514 -0.6843
    9MOL   H274 4290   4.492   3.167   5.363  3.5225 -1.3475  0.1343
    9MOL   H275 4291   4.516   3.315   5.436 -2.2880 -0.1642 -1.1437
    9MOL   H276 4292   4.569   3.171   5.523 -0.3429 -1.5889  0.3935
    9MOL   C277 4293   4.543   2.378   5.456 -0.1794 -0.8482  0.6537
    9MOL   C278 4294   4.691   2.439   5.441  0.2108 -0.0820  0.7098
    9MOL   O279 4295   4.775   2.388   5.542 -0.3654 -1.0564  0.5437
    9MOL   C280 4296   4.887   2.477   5.578  0.2417 -0.2702 -0.1105
    9MOL   C281 4297   4.999   2.404   5.665  0.4786 -0.4073 -0.0670
    9MOL   C282 4298   5.090   2.507   5.730 -0.3363  0.2105 -0.0540
    9MOL   C283 4299   5.214   2.449   5.798  0.6097 -0.0955 -0.0423
    9MOL   C284 4300   5.179   2.346   5.917  0.3665 -0.0579  0.1785
    9MOL   C285 4301   5.296   2.305   6.006  0.2089 -0.1894 -0.5899
    9MOL   H286 4302   4.552   2.269   5.448 -2.9044 -1.0000 -0.8119
    9MOL   H287 4303   4.487   2.412   5.369 -0.4733 -0.6497  0.9195
    9MOL   H288 4304   4.683   2.548   5.442  1.4736  0.0266  0.1333
    9MOL   H289 4305   4.848   2.564   5.630  0.7694 -0.1362  0.0606
    9MOL   H290 4306   4.936   2.516   5.489  0.3462  1.0952  0.5342
    9MOL   H291 4307   5.053   2.339   5.596  2.3831  1.7265 -0.6384
    9MOL   H292 4308   4.949   2.350   5.745  3.3419 -2.4194  0.4321
    9MOL   H293 4309   5.126   2.583   5.662  0.2520 -0.8889 -0.9804
    9MOL   H294 4310   5.034   2.572   5.797 -0.3077 -0.3338  0.5046
    9MOL   H295 4311   5.281   2.408   5.722  0.3723  0.8145 -0.7462
    9MOL   H296 4312   5.267   2.533   5.842  0.7431 -1.5458  2.6657
    9MOL   H297 4313   5.105   2.394   5.982 -0.1291  0.9664 -1.1118
    9MOL   H298 4314   5.123   2.260   5.879 -0.9051  0.5831  0.5621
    9MOL   H299 4315   5.258   2.262   6.099  0.0903  1.6609  0.2526
    9MOL   H300 4316   5.362   2.238   5.950 -1.7232  0.1010 -3.2986
    9MOL   H301 4317   5.359   2.394   6.017 -1.0729  0.6872 -0.2334
    9MOL   C302 4318   4.755   2.398   5.303  0.3036  0.6159 -0.3360
    9MOL   C303 4319   4.722   2.495   5.192 -0.2752  0.5446  0.0068
    9MOL   O304 4320   4.580   2.478   5.153 -0.0310 -0.6555 -0.3330
    9MOL   C305 4321   4.506   2.596   5.188 -0.1050 -0.5017  0.2795
    9MOL   C306 4322   4.357   2.571   5.141 -0.3533 -0.2860 -0.0795
    9MOL   C307 4323   4.279   2.471   5.222 -0.3247  0.5342  0.2046
    9MOL   C308 4324   4.142   2.458   5.154  0.3227  0.0444  0.1126
    9MOL   C309 4325   4.030   2.377   5.217 -0.2320 -0.4467  0.1691
    9MOL   C310 4326   4.074   2.233   5.258 -0.4576  0.1972  0.2138
    9MOL   H311 4327   4.864   2.397   5.312  0.3657  3.3717 -0.2865
    9MOL   H312 4328   4.717   2.300   5.276  1.9431 -0.5984  1.5799
    9MOL   H313 4329   4.746   2.598   5.218 -1.4541  0.5974  0.9215
    9MOL   H314 4330   4.545   2.683   5.136 -0.2830  0.0734  1.0937
    9MOL   H315 4331   4.515   2.636   5.289  1.8706 -0.4815  0.1161
    9MOL   H316 4332   4.378   2.539   5.039 -1.4100 -2.1048  0.2644
    9MOL   H317 4333   4.310   2.669   5.143  0.5311  0.1150  1.7399
    9MOL   H318 4334   4.324   2.373   5.205  0.8295  1.2013 -0.6169
    9MOL   H319 4335   4.269   2.489   5.329 -0.1109 -0.2068  0.3494
    9MOL   H320 4336   4.110   2.560   5.135 -1.8656 -0.8239 -1.0448
    9MOL   H321 4337   4.147   2.422   5.051  0.9646  3.3849 -1.0750
    9MOL   H322 4338   3.990   2.425   5.306 -0.6536 -0.3141 -0.0924
    9MOL   H323 4339   3.949   2.376   5.144  0.3758  0.8247 -0.5456
    9MOL   H324 4340   4.105   2.172   5.173  0.9261  0.2416  0.6682
    9MOL   H325 4341   4.163   2.242   5.321  1.2488 -0.0659 -2.0861
    9MOL   H326 4342   4.000   2.177   5.315 -0.3348 -0.5227 -0.3203
    9MOL   C327 4343   4.795   2.456   5.065 -0.3030 -0.1862 -0.5825
    9MOL   C328 4344   4.770   2.552   4.948  0.4639  0.8766  0.1252
    9MOL   O329 4345   4.835   2.673   4.975 -0.2485  0.3322  0.0955
    9MOL   C330 4346   4.808   2.785   4.891  0.0289  0.9307 -0.3863
    9MOL   C331 4347   4.847   2.918   4.962 -0.2908  0.5749 -0.0768
    9MOL   C332 4348   4.784   2.946   5.097 -0.0848 -0.1287 -0.7567
    9MOL   C333 4349   4.877   2.904   5.216  0.0034  0.0747  0.7331
    9MOL   C334 4350   4.801   2.908   5.354  0.1758 -0.6188 -0.4127
    9MOL   C335 4351   4.869   2.829   5.464 -0.6695  0.0412 -0.6188
    9MOL   H336 4352   4.763   2.355   5.039  0.0600 -0.4470 -0.0260
    9MOL   H337 4353   4.902   2.448   5.083  0.0419  0.5598 -2.1479
    9MOL   H338 4354   4.662   2.573   4.946  0.7588  2.4253 -2.2620
    9MOL   H339 4355   4.703   2.793   4.864 -0.3564 -0.7063  0.5276
    9MOL   H340 4356   4.847   2.784   4.789  0.0731  0.6571 -0.3683
    9MOL   H341 4357   4.815   2.995   4.893 -2.3721  1.0275  1.3622
    9MOL   H342 4358   4.956   2.926   4.965 -0.1533  0.3538 -2.7657
    9MOL   H343 4359   4.756   3.051   5.098  1.4532  0.2957  2.6580
    9MOL   H344 4360   4.689   2.894   5.108  1.6687 -2.7383  3.2725
    9MOL   H345 4361   4.900   2.798   5.207  1.8305  0.4890  0.1884
    9MOL   H346 4362   4.966   2.967   5.217 -1.7758  2.8319 -3.3158
    9MOL   H347 4363   4.782   3.012   5.381 -0.1916 -1.1186  1.3130
    9MOL   H348 4364   4.698   2.875   5.344 -0.0658 -0.3574  1.1012
    9MOL   H349 4365   4.804   2.833   5.551 -0.6049  0.0744 -0.5721
    9MOL   H350 4366   4.899   2.727   5.440 -1.3988 -0.6105  1.1763
    9MOL   H351 4367   4.956   2.887   5.496  1.1066 -1.7266 -2.0720
    9MOL   C352 4368   4.824   2.492   4.810  0.6846  0.5626  0.2606
    9MOL   C353 4369   4.737   2.378   4.754  0.4639  0.5785  0.4267
    9MOL   O354 4370   4.810   2.327   4.641 -0.5881 -0.5206  0.5430
    9MOL   C355 4371   4.876   2.199   4.671 -0.1085  0.4821 -0.3036
    9MOL   C356 4372   4.940   2.156   4.531  1.2155  0.3392 -0.1871
    9MOL   C357 4373   5.009   2.267   4.455 -1.0563  0.2169 -0.5770
    9MOL   C358 4374   5.058   2.233   4.312  0.3186 -0.2112  0.0348
    9MOL   C359 4375   5.150   2.108   4.290  0.4995 -0.5422 -0.0350
    9MOL   C360 4376   5.274   2.129   4.364 -0.6029  1.0254 -0.0534
    9MOL   H361 4377   4.840   2.564   4.730 -1.2714  1.4675  0.6559
    9MOL   H362 4378   4.925   2.455   4.828  1.0043  1.8414  1.0952
    9MOL   H363 4379   4.720   2.303   4.831  1.5676  0.3427  0.4426
    9MOL   H364 4380   4.798   2.133   4.709  1.6502 -0.4548  1.8011
    9MOL   H365 4381   4.950   2.221   4.748 -0.2569  0.2199 -0.0839
    9MOL   H366 4382   4.856   2.117   4.473 -1.7521 -0.0580  4.1110
    9MOL   H367 4383   5.009   2.074   4.550  1.4801  0.4179 -0.8205
    9MOL   H368 4384   4.943   2.353   4.447  0.7278  1.7138  0.5320
    9MOL   H369 4385   5.080   2.319   4.519  1.9903 -1.0254 -2.8116
    9MOL   H370 4386   4.974   2.222   4.244  1.5557 -3.1418 -1.0948
    9MOL   H371 4387   5.117   2.316   4.272  0.9090 -0.3112  0.6855
    9MOL   H372 4388   5.101   2.023   4.338 -2.0014 -0.1487 -1.7743
    9MOL   H373 4389   5.157   2.079   4.185  1.8047 -5.5483  1.3002
    9MOL   H374 4390   5.342   2.200   4.317  1.2352 -0.6966 -0.0437
    9MOL   H375 4391   5.253   2.168   4.463 -0.1033  1.1091  0.0187
    9MOL   H376 4392   5.338   2.042   4.371 -3.2141 -0.9497  0.1428
    9MOL   C377 4393   4.606   2.439   4.699  0.0645 -0.2971  0.0613
    9MOL   C378 4394   4.514   2.328   4.646 -0.5690  0.3722  0.2254
    9MOL   O379 4395   4.405   2.385   4.582  0.1783  0.0924 -0.0983
    9MOL   C380 4396   4.426   2.411   4.437  0.6079 -0.2368  0.1335
    9MOL   C381 4397   4.289   2.447   4.385 -0.8536 -0.3926 -0.1639
    9MOL   C382 4398   4.179   2.345   4.405 -0.1284  1.1803  0.4776
    9MOL   C383 4399   4.047   2.389   4.332  0.5462  0.2866  0.7719
    9MOL   C384 4400   3.943   2.279   4.310  0.0909  0.1481 -0.0711
    9MOL   C385 4401   3.882   2.231   4.443  0.3150  0.2724  0.1815
    9MOL   H386 4402   4.554   2.490   4.781  0.7208  0.7907 -0.1922
    9MOL   H387 4403   4.631   2.501   4.614  0.9266  0.4472  0.8474
    9MOL   H388 4404   4.559   2.257   4.577 -1.5716 -0.7098  0.6785
    9MOL   H389 4405   4.464   2.314   4.405  1.8592  0.4964 -0.6480
    9MOL   H390 4406   4.505   2.484   4.418 -0.8099  1.5906  1.1220
    9MOL   H391 4407   4.299   2.471   4.280  2.1235  0.5490  0.2663
    9MOL   H392 4408   4.261   2.540   4.433 -0.6544 -0.8836  0.9264
    9MOL   H393 4409   4.210   2.249   4.364 -1.8589 -0.0836  2.0672
    9MOL   H394 4410   4.165   2.328   4.511  0.3453  0.3895  0.4124
    9MOL   H395 4411   4.007   2.469   4.394 -2.0540  0.4013 -0.9612
    9MOL   H396 4412   4.081   2.437   4.240  2.0355 -0.4406  0.9176
    9MOL   H397 4413   3.864   2.313   4.243 -0.9014 -0.7904  0.6083
    9MOL   H398 4414   3.994   2.194   4.265 -1.1531 -0.6612  0.0248
    9MOL   H399 4415   3.950   2.201   4.522  0.6604 -1.0775 -0.6066
    9MOL   H400 4416   3.811   2.305   4.481  0.6042  0.5689  0.1516
    9MOL   H401 4417   3.824   2.143   4.417  0.4216  0.1360  0.4114
    9MOL   C402 4418   4.460   2.239   4.756  0.0356 -0.2790  0.2076
    9MOL   C403 4419   4.382   2.118   4.703  0.0077 -0.5953 -1.1660
    9MOL   O404 4420   4.295   2.072   4.804  0.5120 -0.0902 -0.2988
    9MOL   C405 4421   4.182   2.154   4.811 -0.3768 -0.2652 -0.9700
    9MOL   C406 4422   4.059   2.071   4.833 -0.0255 -0.2266 -0.0699
    9MOL   C407 4423   3.933   2.143   4.882  0.3344 -0.4150  0.2711
    9MOL   C408 4424   3.806   2.056   4.856  0.0931 -0.0145 -0.2822
    9MOL   C409 4425   3.675   2.110   4.914 -0.3340  0.1430  0.1724
    9MOL   C410 4426   3.640   2.248   4.840 -0.2223 -0.1204  0.5499
    9MOL   H411 4427   4.401   2.296   4.828  0.8085  0.9174 -0.0942
    9MOL   H412 4428   4.541   2.204   4.820  0.8390  1.5721  0.2050
    9MOL   H413 4429   4.327   2.146   4.614 -0.9513 -0.3677 -0.5028
    9MOL   H414 4430   4.168   2.207   4.716  0.1826 -0.9143 -1.4222
    9MOL   H415 4431   4.206   2.218   4.895 -1.2531 -1.4031  0.1598
    9MOL   H416 4432   4.075   1.994   4.909 -0.1970  1.0435  1.2797
    9MOL   H417 4433   4.035   2.020   4.740  0.7322 -1.6186  0.4711
    9MOL   H418 4434   3.942   2.180   4.984 -1.7239 -0.8333  0.6162
    9MOL   H419 4435   3.933   2.225   4.810  2.9431 -0.9782 -0.4320
    9MOL   H420 4436   3.794   2.033   4.750 -2.4741  0.4609 -0.1109
    9MOL   H421 4437   3.821   1.957   4.900  3.0475  0.1372 -0.8387
    9MOL   H422 4438   3.598   2.037   4.890 -0.7009  1.0082 -1.3809
    9MOL   H423 4439   3.676   2.136   5.020 -1.8958  1.2775 -0.0721
    9MOL   H424 4440   3.617   2.235   4.734  1.4578 -3.1625  0.5013
    9MOL   H425 4441   3.549   2.290   4.883  1.9661  0.0967  5.2146
    9MOL   H426 4442   3.717   2.322   4.859 -1.1850  0.6958  1.3299
    9MOL   C427 4443   4.467   1.996   4.675  0.8287  0.4940  0.0981
    9MOL   C428 4444   4.390   1.891   4.592 -0.3293 -0.0808 -0.2105
    9MOL   O429 4445   4.342   1.944   4.462 -0.1510 -0.6296  0.1240
    9MOL   C430 4446   4.214   1.905   4.422 -0.4330  0.2794  0.1115
    9MOL   C431 4447   4.211   1.951   4.274 -0.5422  0.7966 -0.3673
    9MOL   C432 4448   4.257   1.840   4.176 -0.1784 -0.2001 -0.1902
    9MOL   C433 4449   4.237   1.878   4.029 -0.1483  0.4553  0.2095
    9MOL   C434 4450   4.288   1.786   3.920  0.4837 -0.1072  0.1288
    9MOL   C435 4451   4.275   1.855   3.789 -0.6153  0.2785  0.1883
    9MOL   H436 4452   4.548   2.025   4.609 -1.7221  2.8153 -2.1116
    9MOL   H437 4453   4.516   1.958   4.765  2.4511 -1.6379 -1.6551
    9MOL   H438 4454   4.301   1.868   4.651  0.6709 -1.0477  0.9432
    9MOL   H439 4455   4.135   1.955   4.478  0.5499 -0.2137  1.9709
    9MOL   H440 4456   4.212   1.797   4.429  0.0743  0.2757  0.2372
    9MOL   H441 4457   4.267   2.044   4.267  0.5620  0.1484 -0.2767
    9MOL   H442 4458   4.114   1.989   4.242 -1.0902 -1.3071 -1.2723
    9MOL   H443 4459   4.358   1.823   4.214 -0.4964 -0.6892  0.4540
    9MOL   H444 4460   4.207   1.745   4.193  2.2311 -1.8093 -1.8021
    9MOL   H445 4461   4.130   1.887   4.014 -0.5033 -2.2402  0.8079
    9MOL   H446 4462   4.275   1.980   4.019 -0.7123  0.6212 -0.2141
    9MOL   H447 4463   4.393   1.763   3.936  0.4961 -1.2193 -1.4487
    9MOL   H448 4464   4.238   1.690   3.913 -2.4632  1.3239  0.8684
    9MOL   H449 4465   4.332   1.948   3.783 -0.4054  0.1059 -0.5828
    9MOL   H450 4466   4.307   1.787   3.711  1.5299  1.2407  0.2040
    9MOL   H451 4467   4.172   1.885   3.769 -0.5476 -1.3611 -2.9274
    9MOL   C452 4468   4.473   1.763   4.557  0.1296  0.6301  0.7872
    9MOL   C453 4469   4.511   1.695   4.685  0.5734  0.8910 -0.3110
    9MOL   O454 4470   4.597   1.594   4.658  0.8052  0.8073 -0.2484
    9MOL   C455 4471   4.732   1.602   4.712  0.3058  0.3679  0.0805
    9MOL   C456 4472   4.806   1.481   4.648 -1.1445 -0.0981  0.1153
    9MOL   C457 4473   4.956   1.470   4.679  0.6382 -0.1635  0.7503
    9MOL   C458 4474   5.003   1.345   4.606 -0.5360 -0.5159  0.1765
    9MOL   C459 4475   5.150   1.322   4.588  0.4842  0.3903 -0.1497
    9MOL   C460 4476   5.163   1.179   4.531 -0.1084 -0.2208 -0.2335
    9MOL   H461 4477   4.406   1.696   4.502  2.1989 -0.4978 -0.4469
    9MOL   H462 4478   4.546   1.780   4.478  0.7195 -0.7502  1.0135
    9MOL   H463 4479   4.554   1.762   4.759  0.8611  0.5607 -0.1778
    9MOL   H464 4480   4.724   1.587   4.820 -0.5531 -0.8095 -0.1424
    9MOL   H465 4481   4.780   1.699   4.699  2.7891 -0.5620  1.8312
    9MOL   H466 4482   4.799   1.486   4.540  1.5056 -0.1919 -0.0844
    9MOL   H467 4483   4.758   1.390   4.685  0.7903  0.1193  3.3697
    9MOL   H468 4484   5.010   1.543   4.619  0.0464 -1.0629 -0.9082
    9MOL   H469 4485   4.993   1.459   4.781 -0.3612  0.5667  1.1907
    9MOL   H470 4486   4.965   1.258   4.660 -1.0281 -0.5697 -0.2528
    9MOL   H471 4487   4.951   1.346   4.510 -0.8353 -1.5098  0.3238
    9MOL   H472 4488   5.190   1.387   4.510  1.2023 -0.1844 -0.2605
    9MOL   H473 4489   5.208   1.334   4.680 -1.1733  1.7636  0.7408
    9MOL   H474 4490   5.268   1.152   4.518 -0.1566  0.1535 -1.4498
    9MOL   H475 4491   5.104   1.103   4.581 -2.1616  1.2058 -0.4439
    9MOL   H476 4492   5.114   1.182   4.434 -0.0233  4.3718 -0.2478
    9MOL   C477 4493   4.392   1.629   4.756 -0.5665 -0.6450  0.5124
    9MOL   C478 4494   4.419   1.565   4.889  0.0580  0.3219  0.7387
    9MOL   O479 4495   4.303   1.503   4.941  0.0435 -0.0636  0.2433
    9MOL   C480 4496   4.318   1.374   4.988 -0.7877  0.1215 -0.0271
    9MOL   C481 4497   4.326   1.274   4.869  0.1762  0.1296 -0.1557
    9MOL   C482 4498   4.197   1.273   4.781 -0.2304 -0.0364 -0.3626
    9MOL   C483 4499   4.183   1.161   4.675 -0.1615  0.7669  0.3780
    9MOL   C484 4500   4.249   1.186   4.538  0.2616  0.2980  0.3526
    9MOL   C485 4501   4.262   1.066   4.447 -0.0711 -0.7529  0.2152
    9MOL   H486 4502   4.312   1.702   4.772  1.3756  1.2561  1.9101
    9MOL   H487 4503   4.353   1.560   4.682  1.9437 -2.5728  0.9085
    9MOL   H488 4504   4.497   1.489   4.881 -0.1335  0.2557 -0.6070
    9MOL   H489 4505   4.232   1.338   5.045 -1.7140  0.9823 -0.8875
    9MOL   H490 4506   4.408   1.374   5.050 -0.0003  0.7750 -1.1644
    9MOL   H491 4507   4.342   1.176   4.916  1.5904  1.6908  2.7942
    9MOL   H492 4508   4.415   1.296   4.811 -0.6377 -0.3513 -1.5945
    9MOL   H493 4509   4.117   1.253   4.852  0.1483  0.8733  0.3370
    9MOL   H494 4510   4.178   1.376   4.752  2.1186  0.2172 -1.0715
    9MOL   H495 4511   4.222   1.070   4.720  0.4389  0.9148  0.1627
    9MOL   H496 4512   4.076   1.146   4.665  0.0986 -0.6496 -0.4542
    9MOL   H497 4513   4.194   1.259   4.479 -1.3061  0.0857  1.5261
    9MOL   H498 4514   4.344   1.230   4.570  0.9341  0.4792 -1.8166
    9MOL   H499 4515   4.307   0.988   4.508 -0.5641 -0.8341  0.4720
    9MOL   H500 4516   4.163   1.025   4.430  0.6664 -2.3669 -0.3122
    9MOL   H501 4517   4.317   1.095   4.356  2.8517  1.1996  2.4962
    9MOL   H502 4518   4.457   1.631   4.967 -0.9965 -0.2163  1.7429
   10MOL     C1 4519   6.965   2.494   4.236  0.6409  0.2772 -0.4712
   10MOL     C2 4520   6.963   2.645   4.199 -0.1611  0.7591 -0.2430
   10MOL     O3 4521   6.834   2.683   4.150 -0.0582 -0.6748 -0.1971
   10MOL     C4 4522   6.738   2.704   4.257  0.1550  0.3801  0.1509
   10MOL     C5 4523   6.604   2.741   4.186  0.5038 -0.1648 -0.1747
   10MOL     C6 4524   6.530   2.634   4.104  0.3129 -0.1571 -0.7094
   10MOL     C7 4525   6.406   2.688   4.027  0.0712 -0.1223  0.0910
   10MOL     C8 4526   6.345   2.603   3.917  0.5201  0.3321  0.8600
   10MOL     C9 4527   6.224   2.678   3.857  0.1072 -0.5073 -0.1034
   10MOL    H10 4528   6.901   2.469   4.321  2.2289  0.2458  0.7412
   10MOL    H11 4529   6.932   2.440   4.148 -0.0989 -2.2037  1.2578
   10MOL    H12 4530   6.991   2.703   4.288 -0.2157 -0.4400  0.5692
   10MOL    H13 4531   6.767   2.786   4.322  0.5660 -0.3008  0.8305
   10MOL    H14 4532   6.717   2.613   4.313 -2.9381  1.0016  0.1180
   10MOL    H15 4533   6.620   2.827   4.121 -0.4950  0.4589  0.3976
   10MOL    H16 4534   6.531   2.769   4.261  1.2841 -1.4015  1.0580
   10MOL    H17 4535   6.599   2.584   4.036  0.0334  0.2718 -1.3057
   10MOL    H18 4536   6.501   2.552   4.170 -0.5712 -1.0297 -2.1399
   10MOL    H19 4537   6.340   2.718   4.108 -1.5645 -1.1930 -0.8190
   10MOL    H20 4538   6.428   2.779   3.971 -1.8936 -0.2851 -1.0158
   10MOL    H21 4539   6.319   2.504   3.956 -1.4470  0.3795 -0.2291
   10MOL    H22 4540   6.415   2.587   3.835 -1.5461 -0.4071 -0.8291
   10MOL    H23 4541   6.245   2.769   3.801  0.0976 -0.7842 -0.5685
   10MOL    H24 4542   6.179   2.609   3.785  0.8949 -0.6799 -0.4334
   10MOL    H25 4543   6.144   2.702   3.927  0.6172 -0.0864  0.3298
   10MOL    H26 4544   7.054   2.441   4.271  1.0661  2.2536  1.5320
   10MOL    C27 4545   7.068   2.674   4.091 -0.2766 -0.5374  0.3070
   10MOL    C28 4546   7.097   2.827   4.068 -0.5636  0.1320  0.5305
   10MOL    O29 4547   7.130   2.880   4.200  0.2438  0.6199  0.2859
   10MOL    C30 4548   7.047   2.992   4.237 -0.4432  0.0346 -0.2010
   10MOL    C31 4549   7.094   3.043   4.372  0.1749 -0.0967  0.2557
   10MOL    C32 4550   7.090   2.941   4.488 -0.4987  0.3681  0.1285
   10MOL    C33 4551   7.101   3.003   4.631  0.5356 -0.5914  0.5686
   10MOL    C34 4552   7.117   2.889   4.738 -0.2984 -0.0134 -1.0953
   10MOL    C35 4553   7.081   2.941   4.882  0.0095 -0.1983 -0.2283
   10MOL    H36 4554   7.163   2.624   4.110  0.1822  0.5067  0.8093
   10MOL    H37 4555   7.033   2.628   3.999  0.1649  0.9106 -0.6017
   10MOL    H38 4556   7.009   2.874   4.024  0.1557  2.2272  1.2705
   10MOL    H39 4557   6.943   2.959   4.227 -0.2160 -1.4696  2.0504
   10MOL    H40 4558   7.058   3.073   4.164 -2.3276 -0.7630 -1.4104
   10MOL    H41 4559   7.025   3.124   4.396  0.4160  0.0263  0.5310
   10MOL    H42 4560   7.194   3.086   4.371  0.7223 -1.3401 -0.8727
   10MOL    H43 4561   6.993   2.894   4.472 -0.6377  1.6950 -3.2791
   10MOL    H44 4562   7.167   2.865   4.478 -0.9173 -0.0713  0.2233
   10MOL    H45 4563   7.181   3.077   4.642 -0.0900  0.1278  0.3061
   10MOL    H46 4564   7.004   3.051   4.638  1.1243  0.8279 -0.8001
   10MOL    H47 4565   7.041   2.813   4.719  0.3015 -0.4747 -1.6880
   10MOL    H48 4566   7.214   2.840   4.729 -0.3157 -0.2849  0.0513
   10MOL    H49 4567   6.983   2.987   4.873  0.5037  0.8711 -0.2515
   10MOL    H50 4568   7.091   2.859   4.953  0.5251 -0.6561 -0.8207
   10MOL    H51 4569   7.165   3.006   4.906 -0.1319  0.7608 -2.2259
   10MOL    C52 4570   7.220   2.830   3.977  0.7564  0.1364  0.5211
   10MOL    C53 4571   7.247   2.979   3.951 -0.5677 -0.2235  0.7371
   10MOL    O54 4572   7.392   2.976   3.909  0.4931  0.6326 -0.1652
   10MOL    C55 4573   7.484   2.994   4.013 -0.7307 -0.2340  0.6321
   10MOL    C56 4574   7.629   2.983   3.947 -0.2186  0.4167  0.0221
   10MOL    C57 4575   7.650   3.101   3.851  0.3341  0.0867  0.0099
   10MOL    C58 4576   0.015   3.115   3.801  0.6229 -0.4313  0.2290
   10MOL    C59 4577   0.120   3.174   3.905 -0.1080  0.4930 -0.2136
   10MOL    C60 4578   0.260   3.189   3.851 -0.5117 -0.5365 -0.3124
   10MOL    H61 4579   7.216   2.778   3.882 -1.7578  2.3586 -0.6749
   10MOL    H62 4580   7.296   2.785   4.041 -0.3354 -2.0272  0.3476
   10MOL    H63 4581   7.249   3.046   4.036  0.7329  2.1278 -1.0783
   10MOL    H64 4582   7.470   2.910   4.081 -0.0565 -1.7107 -0.9986
   10MOL    H65 4583   7.479   3.083   4.075 -0.3925  0.7649 -0.7299
   10MOL    H66 4584   7.621   2.893   3.884  0.1534  1.0737 -0.9860
   10MOL    H67 4585   7.716   2.961   4.009  0.9020  0.1943 -1.5658
   10MOL    H68 4586   7.589   3.091   3.761  0.1597  1.0404  0.0175
   10MOL    H69 4587   7.618   3.191   3.903 -0.5068 -0.1811 -0.0360
   10MOL    H70 4588   0.062   3.019   3.778 -2.5090 -1.7006 -1.2372
   10MOL    H71 4589   0.015   3.169   3.706 -0.7636 -1.3106 -0.2980
   10MOL    H72 4590   0.092   3.277   3.925 -0.2699  0.1862  1.2064
   10MOL    H73 4591   0.114   3.122   4.001  2.1865 -1.3754 -1.0387
   10MOL    H74 4592   0.319   3.219   3.938  1.8088 -3.0455 -0.9520
   10MOL    H75 4593   0.309   3.097   3.820  1.5334  0.3659  0.1405
   10MOL    H76 4594   0.275   3.265   3.775  0.6258  1.1718  1.5594
   10MOL    C77 4595   7.154   3.031   3.840  0.1962  0.2426  0.1085
   10MOL    C78 4596   7.204   3.161   3.783 -0.4443 -0.3577  0.0618
   10MOL    O79 4597   7.206   3.250   3.890  0.1142  0.0250  0.2032
   10MOL    C80 4598   7.280   3.374   3.863 -0.0372  0.7987  0.0001
   10MOL    C81 4599   7.339   3.425   3.991  0.1098 -0.3112  0.5572
   10MOL    C82 4600   7.227   3.452   4.102  0.1253  0.3780  0.0766
   10MOL    C83 4601   7.258   3.537   4.223  0.1843 -0.0344  0.9086
   10MOL    C84 4602   7.334   3.455   4.329 -0.2439  0.0161 -0.4002
   10MOL    C85 4603   7.338   3.527   4.460 -0.7177  0.0453  0.6919
   10MOL    H86 4604   7.055   3.051   3.881  1.9876  3.5967  3.1391
   10MOL    H87 4605   7.140   2.955   3.764 -0.5863  0.8306 -0.3538
   10MOL    H88 4606   7.309   3.153   3.755 -0.0024 -1.4563  1.9400
   10MOL    H89 4607   7.227   3.457   3.818 -1.5668  0.2577  0.7723
   10MOL    H90 4608   7.364   3.356   3.795  0.3637  3.0265 -0.1327
   10MOL    H91 4609   7.400   3.513   3.972  1.0253 -1.4568 -1.9250
   10MOL    H92 4610   7.397   3.345   4.038 -1.9791 -4.3753 -3.3980
   10MOL    H93 4611   7.139   3.495   4.054 -1.7135 -2.4181  0.8397
   10MOL    H94 4612   7.185   3.357   4.135 -1.4776  0.6021 -1.2243
   10MOL    H95 4613   7.323   3.620   4.194  0.8448 -0.5535  0.8908
   10MOL    H96 4614   7.168   3.573   4.273  0.2934  0.4429  0.7640
   10MOL    H97 4615   7.296   3.354   4.343 -1.3933  0.5070  0.0210
   10MOL    H98 4616   7.437   3.444   4.293 -0.3255  1.1393 -0.9960
   10MOL    H99 4617   7.402   3.476   4.532 -1.1845  0.8003  1.6674
   10MOL   H100 4618   7.389   3.622   4.443 -1.9803  0.7157  0.5583
   10MOL   H101 4619   7.239   3.551   4.501 -0.7945  1.6874 -0.3908
   10MOL   C102 4620   7.126   3.225   3.677  0.6107 -0.4025  1.2859
   10MOL   C103 4621   7.097   3.127   3.556 -0.1019 -0.1369  0.3667
   10MOL   O104 4622   7.023   3.184   3.446  0.3922  0.2740 -0.1764
   10MOL   C105 4623   6.894   3.230   3.495  0.7089  0.2049 -0.2059
   10MOL   C106 4624   6.809   3.280   3.377 -0.0450 -0.1192  0.1569
   10MOL   C107 4625   6.734   3.165   3.303 -0.4970 -0.4495  0.3119
   10MOL   C108 4626   6.627   3.215   3.202  0.0520  0.7668 -0.3594
   10MOL   C109 4627   6.588   3.097   3.115  0.0241 -1.0554 -0.5341
   10MOL   C110 4628   6.517   2.982   3.188  0.6276 -0.0900 -0.9133
   10MOL   H111 4629   7.033   3.259   3.723  0.0547  0.3522 -0.3794
   10MOL   H112 4630   7.171   3.317   3.640 -2.0889  0.4728  0.0494
   10MOL   H113 4631   7.035   3.044   3.592 -0.1989 -0.7254 -1.0725
   10MOL   H114 4632   6.906   3.307   3.571 -3.4531  0.1370  0.6380
   10MOL   H115 4633   6.849   3.145   3.546 -2.4692  3.7253  3.1876
   10MOL   H116 4634   6.879   3.326   3.306 -0.8987 -1.4907 -1.6237
   10MOL   H117 4635   6.740   3.357   3.412  0.5358  0.5652 -0.2059
   10MOL   H118 4636   6.812   3.107   3.254 -1.6187  0.2137 -2.3828
   10MOL   H119 4637   6.680   3.103   3.374  1.2299 -1.9087  0.3812
   10MOL   H120 4638   6.540   3.242   3.263  0.3079  0.8976 -0.0477
   10MOL   H121 4639   6.663   3.300   3.144 -0.3561  0.1436 -1.5367
   10MOL   H122 4640   6.497   3.126   3.061 -0.1567  1.6991  1.1502
   10MOL   H123 4641   6.673   3.053   3.064  0.1607  0.4369 -1.6465
   10MOL   H124 4642   6.583   2.925   3.255  2.9052  1.5631 -1.6743
   10MOL   H125 4643   6.431   3.017   3.244  0.8789 -0.0895 -0.5263
   10MOL   H126 4644   6.467   2.921   3.113 -0.3366 -0.2364 -0.1587
   10MOL   C127 4645   7.222   3.068   3.498  0.0233  0.3025 -0.2911
   10MOL   C128 4646   7.193   3.001   3.367  0.4583  0.4015 -0.7550
   10MOL   O129 4647   7.142   2.869   3.405 -0.0733  0.4232  0.0822
   10MOL   C130 4648   7.008   2.844   3.373  0.0503 -0.5851  0.3202
   10MOL   C131 4649   6.967   2.713   3.442 -0.3896 -0.2060 -0.0986
   10MOL   C132 4650   6.951   2.728   3.592 -0.4373  0.3889  0.4420
   10MOL   C133 4651   6.912   2.603   3.667  0.3158 -0.0946  0.1138
   10MOL   C134 4652   6.764   2.562   3.643 -0.1853  0.4319  0.1054
   10MOL   C135 4653   6.726   2.421   3.700  0.3859 -0.5527  0.0949
   10MOL   H136 4654   7.303   3.141   3.488  1.9177 -1.5293  1.0582
   10MOL   H137 4655   7.259   2.997   3.572 -3.0462 -0.1736  0.8483
   10MOL   H138 4656   7.135   3.060   3.295 -2.3495 -0.5319  0.6410
   10MOL   H139 4657   6.996   2.827   3.266  1.9662 -1.9551  0.3143
   10MOL   H140 4658   6.943   2.923   3.411 -0.6420 -1.3909  0.8324
   10MOL   H141 4659   7.048   2.644   3.419 -0.4442 -0.4247  0.3596
   10MOL   H142 4660   6.879   2.677   3.388  0.1802  0.1134 -1.2499
   10MOL   H143 4661   7.036   2.769   3.648 -0.9562  0.3414  1.2775
   10MOL   H144 4662   6.872   2.801   3.607 -1.0785 -0.3981  0.9020
   10MOL   H145 4663   6.975   2.519   3.638 -0.4791 -0.1689 -1.4926
   10MOL   H146 4664   6.919   2.622   3.774  1.7691  0.2442 -0.0392
   10MOL   H147 4665   6.698   2.631   3.695 -2.0390 -0.0036 -1.6134
   10MOL   H148 4666   6.740   2.555   3.537 -0.3199 -1.4390  0.2479
   10MOL   H149 4667   6.638   2.385   3.646  0.8042 -1.2069 -0.1559
   10MOL   H150 4668   6.802   2.343   3.688  1.0129  0.1448 -0.4983
   10MOL   H151 4669   6.697   2.423   3.805 -1.0646  1.9311 -0.3099
   10MOL   C152 4670   7.323   2.953   3.301  0.0085 -0.1079  0.5725
   10MOL   C153 4671   7.298   2.887   3.156  0.9963  0.2241 -0.1331
   10MOL   O154 4672   7.248   2.993   3.071  0.2286 -0.1464  0.4747
   10MOL   C155 4673   7.138   2.949   2.985 -0.7870  1.1011 -0.0610
   10MOL   C156 4674   7.093   3.054   2.877 -0.1250 -0.0491 -0.6904
   10MOL   C157 4675   6.962   3.010   2.812  0.0869 -0.4206  0.3207
   10MOL   C158 4676   6.912   3.119   2.714 -0.1800 -0.1527 -0.4808
   10MOL   C159 4677   6.938   3.070   2.572  0.9001  0.0443  0.1400
   10MOL   C160 4678   6.886   3.165   2.466 -0.0150  0.2079 -0.0853
   10MOL   H161 4679   7.394   3.034   3.288 -0.7481  0.6246  0.9324
   10MOL   H162 4680   7.380   2.884   3.362  3.1386  1.4251 -0.5320
   10MOL   H163 4681   7.219   2.817   3.183 -0.7986  2.1104 -0.4684
   10MOL   H164 4682   7.054   2.916   3.046 -1.7690  1.0042 -1.4225
   10MOL   H165 4683   7.169   2.857   2.935 -1.3797 -1.2548  3.6814
   10MOL   H166 4684   7.169   3.075   2.802  1.8721  0.6684  1.5131
   10MOL   H167 4685   7.073   3.144   2.935 -0.7737  0.0722 -1.0933
   10MOL   H168 4686   6.970   2.916   2.758 -0.2773 -0.0716 -0.3368
   10MOL   H169 4687   6.881   2.996   2.884 -2.5728  1.1352 -2.2986
   10MOL   H170 4688   6.804   3.130   2.725 -0.1108  1.2194 -1.0832
   10MOL   H171 4689   6.946   3.221   2.733  0.4568 -0.7200  1.5410
   10MOL   H172 4690   7.046   3.065   2.577  1.0927  2.1408 -1.4067
   10MOL   H173 4691   6.910   2.966   2.552  0.8271  0.3212 -1.2593
   10MOL   H174 4692   6.914   3.137   2.365 -2.0492  3.9292 -1.7942
   10MOL   H175 4693   6.777   3.171   2.471 -0.0627  2.0880 -2.4105
   10MOL   H176 4694   6.924   3.266   2.479  0.6915  0.4631 -3.6494
   10MOL   C177 4695   7.424   2.823   3.105  0.5202 -0.3150  0.2750
   10MOL   C178 4696   7.445   2.671   3.109  0.4789  0.3697 -0.5898
   10MOL   O179 4697   7.575   2.636   3.060 -0.4075  0.2538 -0.5075
   10MOL   C180 4698   7.574   2.641   2.915  0.5913  0.2549  0.3276
   10MOL   C181 4699   7.715   2.593   2.880 -0.5684 -0.5087  0.6538
   10MOL   C182 4700   7.759   2.596   2.731  0.4745  0.2969  0.2682
   10MOL   C183 4701   0.130   2.562   2.711  0.1684 -0.0119  0.4675
   10MOL   C184 4702   0.174   2.532   2.571 -0.2016 -0.5042 -0.7397
   10MOL   C185 4703   0.322   2.487   2.564 -0.2384  1.4002  0.8128
   10MOL   H186 4704   7.434   2.863   3.004 -1.2183  1.0389  0.6209
   10MOL   H187 4705   7.511   2.868   3.153  2.0093 -2.1975 -0.5794
   10MOL   H188 4706   7.379   2.614   3.043  1.8709 -0.5858 -1.2014
   10MOL   H189 4707   7.545   2.737   2.874  0.4332 -0.0425 -0.2586
   10MOL   H190 4708   7.508   2.571   2.865  2.1114  0.6964 -2.3867
   10MOL   H191 4709   7.728   2.494   2.922 -1.2753 -1.5364 -1.4490
   10MOL   H192 4710   0.009   2.654   2.934  1.4946 -2.1438 -0.2076
   10MOL   H193 4711   7.705   2.531   2.662  0.7863  0.9616 -0.6205
   10MOL   H194 4712   7.745   2.698   2.694 -1.2623  0.7762  2.2034
   10MOL   H195 4713   0.189   2.647   2.745  0.4792 -0.6613  1.5874
   10MOL   H196 4714   0.165   2.482   2.777 -2.9188 -0.8232  1.1875
   10MOL   H197 4715   0.099   2.460   2.539 -1.2460  0.5574 -0.6986
   10MOL   H198 4716   0.164   2.624   2.514 -1.4799 -0.5141 -0.5382
   10MOL   H199 4717   0.330   2.410   2.640 -0.6145 -0.0260 -0.5610
   10MOL   H200 4718   0.357   2.460   2.464 -1.3786 -0.5207  0.9032
   10MOL   H201 4719   0.386   2.568   2.598 -1.1076  1.0360  3.4325
   10MOL   C202 4720   7.444   2.614   3.249 -0.8229  0.2560  0.0669
   10MOL   C203 4721   7.315   2.555   3.308  0.8485  0.6049  0.0855
   10MOL   O204 4722   7.350   2.532   3.445  0.0515  0.7842 -0.5101
   10MOL   C205 4723   7.328   2.638   3.542 -0.2131 -0.1054 -0.6928
   10MOL   C206 4724   7.366   2.584   3.683 -0.1221 -0.4504 -0.1129
   10MOL   C207 4725   7.276   2.474   3.741  0.0827 -0.0523  0.1673
   10MOL   C208 4726   7.318   2.419   3.879  0.0205  0.4415 -0.1117
   10MOL   C209 4727   7.223   2.304   3.930  0.0235  0.0725 -0.8093
   10MOL   C210 4728   7.229   2.277   4.082  0.5119  0.7011  0.4574
   10MOL   H211 4729   7.519   2.535   3.254  1.0556  2.0678  1.5209
   10MOL   H212 4730   7.486   2.687   3.319 -0.5504  0.5195 -0.3668
   10MOL   H213 4731   7.234   2.628   3.312  0.7554  0.5181 -0.2013
   10MOL   H214 4732   7.222   2.657   3.562 -0.7518 -1.8870 -1.7799
   10MOL   H215 4733   7.370   2.738   3.530  1.4210 -0.4451  1.8057
   10MOL   H216 4734   7.330   2.663   3.750 -1.0605  0.3719 -1.5622
   10MOL   H217 4735   7.473   2.568   3.694 -0.2663 -0.6413  1.1722
   10MOL   H218 4736   7.175   2.513   3.738  0.0339 -0.1041  1.0018
   10MOL   H219 4737   7.266   2.393   3.668  0.3510 -0.7937  0.9343
   10MOL   H220 4738   7.420   2.383   3.865 -0.9283 -2.4839  0.2225
   10MOL   H221 4739   7.318   2.503   3.948 -0.3867  0.4618 -0.1361
   10MOL   H222 4740   7.122   2.308   3.890  0.1419  0.7046 -1.0549
   10MOL   H223 4741   7.252   2.211   3.880 -0.1588  0.0565 -0.8840
   10MOL   H224 4742   7.138   2.231   4.122  1.9364 -0.2843  2.6459
   10MOL   H225 4743   7.321   2.224   4.108  0.0918 -0.6058 -0.6086
   10MOL   H226 4744   7.235   2.368   4.141 -1.8149  0.0347  1.8023
   10MOL   C227 4745   7.271   2.433   3.232 -0.6822 -0.2391 -0.1319
   10MOL   C228 4746   7.148   2.353   3.291  0.9945 -0.9056 -0.4772
   10MOL   O229 4747   7.047   2.353   3.190 -0.7157 -0.4259  0.1550
   10MOL   C230 4748   6.965   2.465   3.181  0.0619  0.4175 -0.1447
   10MOL   C231 4749   6.934   2.472   3.032  0.0211 -0.2748  0.3859
   10MOL   C232 4750   6.825   2.384   2.975 -0.5557 -0.4698  0.2304
   10MOL   C233 4751   6.809   2.398   2.823 -0.7454 -0.0473 -0.3816
   10MOL   C234 4752   6.660   2.377   2.786 -0.5974  0.4472 -0.3393
   10MOL   C235 4753   6.636   2.388   2.638 -0.0839 -0.0647  0.7390
   10MOL   H236 4754   7.252   2.459   3.128 -0.9911 -2.5831 -0.6783
   10MOL   H237 4755   7.357   2.367   3.234 -1.2658 -1.0487 -1.3626
   10MOL   H238 4756   7.109   2.413   3.373  2.4644 -0.6164  0.0108
   10MOL   H239 4757   7.024   2.549   3.219  0.4032 -1.2063  3.1636
   10MOL   H240 4758   6.871   2.458   3.236 -0.4001  3.1482 -0.4879
   10MOL   H241 4759   7.026   2.442   2.982 -1.2535 -0.8511 -1.6569
   10MOL   H242 4760   6.927   2.575   2.998  0.5719 -0.4772 -0.3434
   10MOL   H243 4761   6.845   2.283   3.012  0.8329  0.2604  1.5396
   10MOL   H244 4762   6.737   2.424   3.025 -1.2529 -2.6184  0.7905
   10MOL   H245 4763   6.833   2.499   2.791  0.1869 -0.6984 -1.8143
   10MOL   H246 4764   6.880   2.338   2.766 -0.1742  1.7874 -1.6686
   10MOL   H247 4765   6.618   2.280   2.812  2.1133 -0.9757 -1.0108
   10MOL   H248 4766   6.606   2.450   2.846 -0.7254 -0.7042  0.9774
   10MOL   H249 4767   6.529   2.397   2.617 -0.0424  0.3622  0.7002
   10MOL   H250 4768   6.687   2.474   2.594  1.5687 -1.1598  0.4629
   10MOL   H251 4769   6.664   2.297   2.585  1.5273  0.6218  0.3984
   10MOL   C252 4770   7.183   2.205   3.332  0.4050 -0.7058 -0.3142
   10MOL   C253 4771   7.072   2.134   3.415 -0.3304  0.2183  0.3845
   10MOL   O254 4772   7.138   2.033   3.485 -0.1269  0.1157  1.1169
   10MOL   C255 4773   7.193   2.054   3.606 -0.6833 -0.4187 -0.1001
   10MOL   C256 4774   7.254   1.922   3.653  0.4081 -0.7166  0.4139
   10MOL   C257 4775   7.147   1.809   3.684 -0.2776  0.4326  0.3815
   10MOL   C258 4776   7.047   1.832   3.802  0.1675  0.5720 -0.8144
   10MOL   C259 4777   7.111   1.837   3.941  0.1339  0.1737  1.0613
   10MOL   C260 4778   7.002   1.835   4.049  0.3931  0.1193 -0.2719
   10MOL   H261 4779   7.202   2.132   3.254 -1.1985 -0.2314 -1.1572
   10MOL   H262 4780   7.275   2.219   3.389  1.1122  0.0182 -1.6108
   10MOL   H263 4781   7.026   2.200   3.489 -0.8422  1.2120 -0.7953
   10MOL   H264 4782   7.120   2.095   3.675 -0.7225 -0.7674  0.0664
   10MOL   H265 4783   7.270   2.129   3.586 -0.7857 -1.0811 -3.2859
   10MOL   H266 4784   7.327   1.920   3.735 -0.7962  1.1281  1.5627
   10MOL   H267 4785   7.324   1.894   3.574  0.4986  0.8095 -0.0608
   10MOL   H268 4786   7.103   1.796   3.585 -0.9859 -0.6336  0.8273
   10MOL   H269 4787   7.199   1.714   3.685 -0.2835  0.3893 -1.3650
   10MOL   H270 4788   6.989   1.923   3.789 -0.9960  0.2285  1.7028
   10MOL   H271 4789   6.968   1.757   3.805 -1.3449  2.0653 -1.9846
   10MOL   H272 4790   7.190   1.762   3.941 -0.1310 -0.1102  0.4108
   10MOL   H273 4791   7.162   1.932   3.952  2.3548 -0.7500 -0.8403
   10MOL   H274 4792   7.050   1.829   4.147 -2.8026  1.5561  1.4677
   10MOL   H275 4793   6.941   1.926   4.042 -0.1889 -0.0261  2.2239
   10MOL   H276 4794   6.927   1.757   4.034 -0.0523  1.1255 -3.6565
   10MOL   C277 4795   6.962   2.067   3.330  0.0961  0.5931 -0.6280
   10MOL   C278 4796   6.871   1.969   3.408  0.1850 -1.6358  0.0832
   10MOL   O279 4797   6.798   2.037   3.498 -0.3292 -0.1281  0.4898
   10MOL   C280 4798   6.742   1.969   3.608  0.4324 -1.2824 -0.3730
   10MOL   C281 4799   6.716   2.066   3.724 -0.8782  0.3184 -0.6016
   10MOL   C282 4800   6.615   2.011   3.826 -0.3551 -0.5094  0.1876
   10MOL   C283 4801   6.579   2.121   3.938 -0.8329 -1.0870  1.1970
   10MOL   C284 4802   6.693   2.134   4.039 -0.2166 -0.2386 -0.0668
   10MOL   C285 4803   6.657   2.236   4.146 -0.0974 -0.3817 -0.1057
   10MOL   H286 4804   6.908   2.137   3.267 -1.9947  0.3194  0.8002
   10MOL   H287 4805   7.023   2.019   3.253 -1.4996 -0.3999 -1.2939
   10MOL   H288 4806   6.925   1.886   3.454 -0.2312 -0.6318  2.4380
   10MOL   H289 4807   6.805   1.889   3.648 -0.6444 -1.5030  0.9320
   10MOL   H290 4808   6.647   1.925   3.579  0.0302 -1.2090  0.8026
   10MOL   H291 4809   6.672   2.153   3.675  1.1556  1.5962 -0.2186
   10MOL   H292 4810   6.807   2.093   3.777 -1.9495 -1.7181  2.3550
   10MOL   H293 4811   6.526   1.982   3.770 -1.0185  0.4597  0.7176
   10MOL   H294 4812   6.644   1.922   3.882  0.6167 -0.5320 -0.3463
   10MOL   H295 4813   6.570   2.213   3.881 -1.0749 -1.8415 -0.0117
   10MOL   H296 4814   6.480   2.097   3.976 -1.2355 -1.3136  0.0266
   10MOL   H297 4815   6.706   2.037   4.088  0.0468 -0.8844 -1.4102
   10MOL   H298 4816   6.790   2.173   4.007  1.0908 -1.4997  2.1863
   10MOL   H299 4817   6.602   2.326   4.118  0.2380  0.4531  1.8159
   10MOL   H300 4818   6.614   2.184   4.232  0.5830  1.1756  1.1979
   10MOL   H301 4819   6.748   2.269   4.195 -0.0455  0.9017 -1.0523
   10MOL   C302 4820   6.778   1.882   3.319  1.3001 -0.2524 -0.4270
   10MOL   C303 4821   6.659   1.943   3.244 -0.3649 -0.1951 -0.8756
   10MOL   O304 4822   6.563   1.981   3.341  0.4247  0.0886  0.4209
   10MOL   C305 4823   6.519   2.115   3.322  0.3161 -0.0313  0.6340
   10MOL   C306 4824   6.429   2.137   3.448  0.2229 -0.5954  0.3797
   10MOL   C307 4825   6.293   2.067   3.447  0.8483 -0.1949 -0.3539
   10MOL   C308 4826   6.221   2.060   3.583 -0.4550  0.1858  0.2074
   10MOL   C309 4827   6.194   2.197   3.652  0.4059 -1.0979 -0.2175
   10MOL   C310 4828   6.309   2.236   3.749  0.5023  0.4675  0.5106
   10MOL   H311 4829   6.842   1.831   3.246  1.0667  0.8469 -1.4352
   10MOL   H312 4830   6.749   1.800   3.384  3.3846  0.4868  1.4983
   10MOL   H313 4831   6.701   2.028   3.191  2.3558 -0.1529  1.2207
   10MOL   H314 4832   6.465   2.125   3.229  0.5939  2.7376  0.7403
   10MOL   H315 4833   6.603   2.185   3.320  1.6964 -1.6344  1.0840
   10MOL   H316 4834   6.405   2.243   3.443  0.0420 -0.6420  0.2646
   10MOL   H317 4835   6.495   2.128   3.535  3.3353  2.0786 -1.5613
   10MOL   H318 4836   6.224   2.101   3.370 -1.2877  0.1911  1.6796
   10MOL   H319 4837   6.322   1.962   3.433 -0.2283 -0.6616  0.8038
   10MOL   H320 4838   6.129   2.004   3.571  1.3584 -2.6802 -0.7605
   10MOL   H321 4839   6.275   1.995   3.652  0.8264 -0.0987 -1.0270
   10MOL   H322 4840   6.164   2.274   3.581 -2.7294 -1.6003  0.4906
   10MOL   H323 4841   6.097   2.189   3.700  0.1398  3.3233  0.2423
   10MOL   H324 4842   6.392   2.272   3.687 -0.7294  1.9170 -0.3426
   10MOL   H325 4843   6.283   2.314   3.820 -1.5450  1.6372 -1.4499
   10MOL   H326 4844   6.335   2.142   3.796 -3.3973 -1.4204 -0.8631
   10MOL   C327 4845   6.583   1.848   3.151  0.7515  0.4816 -0.3703
   10MOL   C328 4846   6.645   1.824   3.006  0.2502 -0.4410  0.6515
   10MOL   O329 4847   6.589   1.697   2.967 -0.2460  0.3877  0.0285
   10MOL   C330 4848   6.682   1.592   2.921  0.0329 -0.4853  0.2977
   10MOL   C331 4849   6.595   1.478   2.863  0.2989 -0.1001  0.0314
   10MOL   C332 4850   6.682   1.358   2.823 -0.5885 -0.8917 -0.6613
   10MOL   C333 4851   6.781   1.377   2.710  0.8283  0.2956 -0.2473
   10MOL   C334 4852   6.868   1.255   2.691 -0.0505 -0.1151  0.2498
   10MOL   C335 4853   6.933   1.257   2.557 -0.6574 -0.5510 -0.7506
   10MOL   H336 4854   6.479   1.879   3.141  0.9638  1.3081 -0.1119
   10MOL   H337 4855   6.570   1.758   3.211  0.5042 -0.9883 -2.5563
   10MOL   H338 4856   6.754   1.826   3.004  0.2410 -0.6141 -0.1353
   10MOL   H339 4857   6.739   1.568   3.011 -0.0078 -2.1891 -0.1252
   10MOL   H340 4858   6.760   1.625   2.853 -0.4635  0.5735  0.2366
   10MOL   H341 4859   6.533   1.508   2.779  0.7360  0.9589  0.0800
   10MOL   H342 4860   6.533   1.452   2.949 -0.4202 -1.8941 -0.9965
   10MOL   H343 4861   6.728   1.328   2.917 -1.4893  0.3648  0.1998
   10MOL   H344 4862   6.615   1.275   2.800 -0.6318 -1.1167  0.2265
   10MOL   H345 4863   6.744   1.412   2.614 -1.2656 -1.3427 -0.0893
   10MOL   H346 4864   6.848   1.460   2.731  1.1505 -0.0819  0.2396
   10MOL   H347 4865   6.945   1.246   2.767 -0.3755  2.0481  0.8680
   10MOL   H348 4866   6.806   1.165   2.695  1.2867 -1.2534 -2.7748
   10MOL   H349 4867   7.003   1.338   2.537 -0.0556 -0.8433  0.1561
   10MOL   H350 4868   6.982   1.164   2.527 -0.4168 -0.7525  0.2497
   10MOL   H351 4869   6.861   1.275   2.478 -0.1335 -0.3642 -1.1910
   10MOL   C352 4870   6.591   1.925   2.906  0.3576 -0.3634  0.3642
   10MOL   C353 4871   6.657   1.911   2.766 -0.6533 -0.3634  0.0225
   10MOL   O354 4872   6.785   1.961   2.773 -0.1726  0.1853 -1.0459
   10MOL   C355 4873   6.881   1.903   2.675  0.2212 -0.3002 -0.1042
   10MOL   C356 4874   7.016   1.918   2.731  0.6803 -0.5367  0.0306
   10MOL   C357 4875   7.035   2.042   2.811 -0.3556  0.3300  0.6325
   10MOL   C358 4876   7.181   2.078   2.854  0.3661 -0.1632 -0.0129
   10MOL   C359 4877   7.194   2.214   2.924  0.1797 -0.2279 -0.4513
   10MOL   C360 4878   7.340   2.251   2.953 -0.2942 -0.0711  0.1985
   10MOL   H361 4879   6.485   1.899   2.899  0.3631 -0.4272  0.5137
   10MOL   H362 4880   6.606   2.025   2.946  3.8384 -0.7803  0.2788
   10MOL   H363 4881   6.649   1.804   2.748 -0.1475 -0.6040  1.1711
   10MOL   H364 4882   6.877   1.965   2.585  1.6212  0.2250  0.1837
   10MOL   H365 4883   6.864   1.798   2.651  1.4558 -0.1584 -1.7404
   10MOL   H366 4884   7.094   1.910   2.655 -1.4678  1.2576 -2.4877
   10MOL   H367 4885   7.029   1.831   2.794 -0.8506 -1.4663 -0.8987
   10MOL   H368 4886   6.988   2.124   2.757  2.8985  0.4386 -2.2460
   10MOL   H369 4887   6.976   2.020   2.899 -0.0584 -1.7628  0.3367
   10MOL   H370 4888   7.228   1.997   2.909 -0.9973 -0.9454  0.0313
   10MOL   H371 4889   7.241   2.075   2.763 -0.9021 -0.7735 -0.8450
   10MOL   H372 4890   7.141   2.294   2.871 -1.2884 -0.7999  0.1093
   10MOL   H373 4891   7.147   2.202   3.022  2.6984  1.6538  1.0464
   10MOL   H374 4892   7.367   2.193   3.041  1.0052  0.2649  0.0316
   10MOL   H375 4893   7.398   2.230   2.863  0.7230 -0.3860  0.9126
   10MOL   H376 4894   7.348   2.358   2.971 -2.5738  0.2516 -0.5765
   10MOL   C377 4895   6.584   1.989   2.648 -0.3640 -0.0672 -0.6709
   10MOL   C378 4896   6.454   1.933   2.600  0.4864  0.2294 -0.1389
   10MOL   O379 4897   6.479   1.802   2.550  0.5142 -0.0335  0.0617
   10MOL   C380 4898   6.410   1.703   2.620 -0.6244 -0.1629 -0.0456
   10MOL   C381 4899   6.261   1.701   2.607  0.5394 -0.1700  0.4625
   10MOL   C382 4900   6.216   1.640   2.471 -0.2609 -0.8628  0.4311
   10MOL   C383 4901   6.063   1.670   2.451  0.0627  0.0763  0.2355
   10MOL   C384 4902   6.019   1.590   2.331  0.0427 -0.2783  0.4486
   10MOL   C385 4903   5.866   1.575   2.331  0.1061 -0.4543 -0.9700
   10MOL   H386 4904   6.571   2.094   2.671 -1.1192 -0.7551  2.1950
   10MOL   H387 4905   6.653   1.991   2.563 -0.5665  0.1652 -0.8311
   10MOL   H388 4906   6.384   1.935   2.683 -0.9046 -2.8122 -1.1544
   10MOL   H389 4907   6.428   1.708   2.727 -3.0331  2.3817  0.2918
   10MOL   H390 4908   6.451   1.607   2.588  1.1058  0.3644  0.4953
   10MOL   H391 4909   6.227   1.803   2.622  0.8879 -0.0202  0.2359
   10MOL   H392 4910   6.206   1.650   2.686  0.1013 -0.6357 -0.1363
   10MOL   H393 4911   6.263   1.694   2.389 -2.8836 -0.6491 -1.0174
   10MOL   H394 4912   6.246   1.536   2.465 -1.1840 -1.0406 -1.5172
   10MOL   H395 4913   6.019   1.632   2.543  1.5312 -2.6263 -0.1210
   10MOL   H396 4914   6.054   1.779   2.454 -2.8060 -0.1198 -0.0723
   10MOL   H397 4915   6.058   1.635   2.239 -1.3953 -0.8236 -0.4314
   10MOL   H398 4916   6.058   1.489   2.328  0.9497  0.0484 -4.7425
   10MOL   H399 4917   5.822   1.528   2.243 -3.0508 -0.0993  0.3371
   10MOL   H400 4918   5.849   1.511   2.418 -0.2463  0.2930 -0.4787
   10MOL   H401 4919   5.798   1.660   2.341 -1.1692 -1.4443 -1.0355
   10MOL   C402 4920   6.392   2.006   2.476  0.4051 -0.4346 -0.1426
   10MOL   C403 4921   6.328   2.151   2.478 -0.6279 -0.1440 -0.3481
   10MOL   O404 4922   6.223   2.152   2.578 -0.2098 -0.0948 -0.9418
   10MOL   C405 4923   6.254   2.244   2.683 -0.5891  0.2412 -1.1514
   10MOL   C406 4924   6.168   2.219   2.806  0.9940 -0.2116  0.6636
   10MOL   C407 4925   6.198   2.071   2.856 -0.3987 -0.2619 -0.6985
   10MOL   C408 4926   6.153   2.035   3.000  0.3982  0.6326 -0.5870
   10MOL   C409 4927   6.156   1.881   3.032  0.5997 -0.1468  0.5086
   10MOL   C410 4928   6.113   1.848   3.175 -0.3062 -0.0056 -0.1636
   10MOL   H411 4929   6.310   1.942   2.441  0.5717 -1.1281  0.7329
   10MOL   H412 4930   6.465   2.014   2.396  1.2033  0.1448  0.6489
   10MOL   H413 4931   6.397   2.235   2.486 -0.7236 -0.0959 -0.0131
   10MOL   H414 4932   6.238   2.346   2.647 -2.2690  1.3963  2.5911
   10MOL   H415 4933   6.356   2.235   2.718 -1.4963  0.2026  1.5923
   10MOL   H416 4934   6.063   2.232   2.780  1.6774  3.3866 -0.5603
   10MOL   H417 4935   6.177   2.297   2.881  0.4776  1.7274 -1.2436
   10MOL   H418 4936   6.143   2.012   2.782 -0.3768 -1.0227 -0.1076
   10MOL   H419 4937   6.304   2.049   2.848 -0.1803  1.3579 -2.7850
   10MOL   H420 4938   6.200   2.096   3.077 -1.1027  2.0558 -0.7638
   10MOL   H421 4939   6.045   2.049   3.005  0.1563 -1.4722  0.6636
   10MOL   H422 4940   6.093   1.824   2.965 -1.0392  0.2130  1.7006
   10MOL   H423 4941   6.260   1.858   3.008  0.1453 -0.8996 -0.7088
   10MOL   H424 4942   6.087   1.744   3.197  2.3652 -0.6780  0.0251
   10MOL   H425 4943   6.197   1.870   3.241  1.3724 -3.0353 -1.1902
   10MOL   H426 4944   6.023   1.903   3.203 -0.9067  0.0482 -2.1406
   10MOL   C427 4945   6.254   2.170   2.336  0.0224 -0.0724  0.9688
   10MOL   C428 4946   6.183   2.306   2.317  0.2607 -1.1185  0.1002
   10MOL   O429 4947   6.275   2.412   2.332 -0.4579 -0.2919  0.2389
   10MOL   C430 4948   6.207   2.527   2.365  0.3777  0.4201 -0.8059
   10MOL   C431 4949   6.311   2.645   2.364  0.0306  0.5983  0.7866
   10MOL   C432 4950   6.246   2.789   2.382 -0.0514  0.9245 -0.3184
   10MOL   C433 4951   6.354   2.906   2.408  0.4120  0.1177 -0.3507
   10MOL   C434 4952   6.461   2.919   2.293 -0.0692  0.1785  0.3925
   10MOL   C435 4953   6.544   3.049   2.301 -0.0032  0.3408  0.0299
   10MOL   H436 4954   6.326   2.154   2.255 -0.3227  0.2499  0.6016
   10MOL   H437 4955   6.175   2.096   2.328  0.6712 -0.7235  0.5241
   10MOL   H438 4956   6.111   2.304   2.398 -0.9165 -0.3301 -0.9137
   10MOL   H439 4957   6.175   2.507   2.467  1.5614 -0.3923 -0.5978
   10MOL   H440 4958   6.119   2.539   2.300 -0.9616 -0.1718  0.8526
   10MOL   H441 4959   6.371   2.646   2.274 -0.3376 -1.1482  0.5036
   10MOL   H442 4960   6.388   2.621   2.438  0.1144  0.1432  0.5519
   10MOL   H443 4961   6.189   2.814   2.292  0.5879  0.1647 -0.9414
   10MOL   H444 4962   6.175   2.787   2.465  0.2475  1.1953 -0.0584
   10MOL   H445 4963   6.290   2.991   2.431  1.0703 -0.2782  3.2639
   10MOL   H446 4964   6.400   2.886   2.505 -1.4258 -1.9032  0.1286
   10MOL   H447 4965   6.529   2.834   2.296  1.1291  1.1040  0.0504
   10MOL   H448 4966   6.402   2.912   2.201  2.1393 -2.1322 -0.9182
   10MOL   H449 4967   6.621   3.040   2.378  0.2454 -2.7894 -0.5244
   10MOL   H450 4968   6.601   3.072   2.211  3.2085 -1.6147  1.4836
   10MOL   H451 4969   6.478   3.132   2.326  0.6638 -0.1835  3.9183
   10MOL   C452 4970   6.099   2.322   2.179 -0.3067  0.5085  0.3234
   10MOL   C453 4971   6.187   2.347   2.053  0.3311  0.3333 -0.2985
   10MOL   O454 4972   6.189   2.484   2.024 -0.3298  0.2198  0.1694
   10MOL   C455 4973   6.309   2.524   1.944  0.1801  0.6665  0.4116
   10MOL   C456 4974   6.324   2.667   1.964  0.0842  0.7430  0.0660
   10MOL   C457 4975   6.225   2.751   1.875  0.0805  0.5769 -0.3219
   10MOL   C458 4976   6.257   2.898   1.879  0.4400  0.2782 -0.1078
   10MOL   C459 4977   6.172   2.977   1.780  0.1255 -0.7856  0.2041
   10MOL   C460 4978   6.189   3.131   1.802  0.2504 -0.0893  0.0150
   10MOL   H461 4979   6.046   2.228   2.163  0.8336 -0.3051  1.3129
   10MOL   H462 4980   6.026   2.403   2.185 -0.8347  0.0142  0.6285
   10MOL   H463 4981   6.287   2.319   2.089  0.5365 -0.3316 -1.3567
   10MOL   H464 4982   6.305   2.492   1.840  0.1456 -1.5464  1.0689
   10MOL   H465 4983   6.403   2.479   1.974  1.8443  3.8657  0.2660
   10MOL   H466 4984   6.424   2.708   1.952  0.2778  0.7094  1.4571
   10MOL   H467 4985   6.302   2.700   2.066 -1.8299 -2.1114  0.6339
   10MOL   H468 4986   6.237   2.721   1.771 -0.3079  0.1049 -0.2340
   10MOL   H469 4987   6.120   2.733   1.901  0.9031 -0.8548  2.1924
   10MOL   H470 4988   6.238   2.925   1.982  2.0874 -0.8987  0.5201
   10MOL   H471 4989   6.364   2.905   1.859  0.3675  0.7272 -0.3506
   10MOL   H472 4990   6.209   2.943   1.683  2.3872 -0.6336  0.9753
   10MOL   H473 4991   6.068   2.947   1.789 -0.0040 -0.4839 -0.2669
   10MOL   H474 4992   6.124   3.183   1.731  1.6857  2.3381  0.4399
   10MOL   H475 4993   6.161   3.144   1.907  1.0994 -0.6282  0.3160
   10MOL   H476 4994   6.293   3.159   1.791 -0.2618  2.3218  0.9482
   10MOL   C477 4995   6.153   2.269   1.926  0.2886  0.6319 -0.5205
   10MOL   C478 4996   6.144   2.117   1.950 -0.5885 -0.9163 -0.9308
   10MOL   O479 4997   6.264   2.046   1.994 -0.0522  0.4398  0.0409
   10MOL   C480 4998   6.233   1.921   2.052  0.0141 -0.0486 -0.1196
   10MOL   C481 4999   6.357   1.844   2.096 -0.1483 -0.4181  0.0680
   10MOL   C482 5000   6.422   1.772   1.979  0.0061  0.0159 -0.3524
   10MOL   C483 5001   6.547   1.687   2.023  0.3330  0.3800  0.7393
   10MOL   C484 5002   6.602   1.626   1.899 -0.1820 -0.3887 -0.0033
   10MOL   C485 5003   6.747   1.586   1.929  0.9827  0.4118  0.5049
   10MOL   H486 5004   6.064   2.312   1.880  1.0305  3.1456  0.3058
   10MOL   H487 5005   6.238   2.280   1.859  1.2612  1.6338  0.8266
   10MOL   H488 5006   6.052   2.096   2.005 -1.2999  0.9410 -1.3497
   10MOL   H489 5007   6.173   1.860   1.985 -0.3836 -0.4354  0.5833
   10MOL   H490 5008   6.171   1.943   2.139 -0.4619  0.8631 -0.6851
   10MOL   H491 5009   6.333   1.760   2.161  0.4231 -0.6141  0.0330
   10MOL   H492 5010   6.426   1.906   2.152 -1.9085  1.4792  0.1812
   10MOL   H493 5011   6.359   1.708   1.917 -2.6318  2.9950 -0.8776
   10MOL   H494 5012   6.454   1.859   1.922  0.2636  1.0364  1.3215
   10MOL   H495 5013   6.618   1.754   2.071  1.6251 -0.9341  0.7044
   10MOL   H496 5014   6.521   1.611   2.097 -1.1136  0.2242  0.0779
   10MOL   H497 5015   6.544   1.535   1.880 -1.6655 -0.1440  3.0006
   10MOL   H498 5016   6.592   1.680   1.805 -1.2939 -2.8615 -1.3484
   10MOL   H499 5017   6.789   1.562   1.831  0.1597 -0.6356  0.3976
   10MOL   H500 5018   6.789   1.679   1.966 -1.9161  2.1737 -0.5160
   10MOL   H501 5019   6.742   1.498   1.993  2.6436 -0.7245 -0.8833
   10MOL   H502 5020   6.118   2.077   1.852 -3.6049  1.7166 -1.3028
   11MOL     C1 5021   1.897   3.892   6.006  0.5345 -0.2665 -0.5622
   11MOL     C2 5022   1.890   3.950   5.866  0.4078  0.3087 -0.9198
   11MOL     O3 5023   1.954   3.859   5.774  0.6967 -0.5093 -0.0780
   11MOL     C4 5024   1.866   3.813   5.680 -0.1882  0.2732 -0.5267
   11MOL     C5 5025   1.932   3.700   5.608 -0.3619 -0.7102  0.2550
   11MOL     C6 5026   1.973   3.578   5.700  0.0602 -0.2170  0.8201
   11MOL     C7 5027   2.028   3.454   5.624  0.8335 -0.4359  0.4680
   11MOL     C8 5028   1.932   3.359   5.559 -0.3998  0.4785 -0.2292
   11MOL     C9 5029   2.000   3.235   5.488  0.2923 -0.1303 -0.6751
   11MOL    H10 5030   1.875   3.958   6.090 -2.2954 -1.3331 -0.4101
   11MOL    H11 5031   1.824   3.811   6.002 -1.0779  0.9951  1.9891
   11MOL    H12 5032   1.786   3.965   5.838 -0.4282 -1.8242  0.8988
   11MOL    H13 5033   1.839   3.893   5.611 -2.1010 -1.8425 -2.3191
   11MOL    H14 5034   1.772   3.770   5.713  0.8804 -0.2854  1.9040
   11MOL    H15 5035   2.022   3.739   5.561 -0.2312 -0.0220  1.0692
   11MOL    H16 5036   1.859   3.665   5.535  0.5320 -1.5872 -0.2381
   11MOL    H17 5037   2.046   3.614   5.772  0.1646  0.8127  0.2037
   11MOL    H18 5038   1.894   3.563   5.773 -0.0590  1.2963  1.0053
   11MOL    H19 5039   2.104   3.488   5.553  0.8971  1.3676  1.3764
   11MOL    H20 5040   2.079   3.395   5.700  2.3305  0.9025  0.5325
   11MOL    H21 5041   1.866   3.416   5.494 -1.4760 -1.3104 -0.7309
   11MOL    H22 5042   1.862   3.332   5.637 -1.1560  1.8186 -0.4268
   11MOL    H23 5043   2.042   3.275   5.396 -0.3194 -2.2180 -1.8963
   11MOL    H24 5044   2.064   3.172   5.550 -0.7364 -0.7030 -0.1810
   11MOL    H25 5045   1.924   3.161   5.461 -1.6100  0.7758  1.8950
   11MOL    H26 5046   1.997   3.850   6.023  0.5529  0.8016  2.1735
   11MOL    C27 5047   1.968   4.075   5.842  0.3937 -0.0434  0.0796
   11MOL    C28 5048   1.928   4.152   5.720 -0.2476  0.3763  0.0287
   11MOL    O29 5049   1.790   4.199   5.741  0.2143  0.1628 -0.4456
   11MOL    C30 5050   1.713   4.252   5.631  0.3733 -0.1409  0.4650
   11MOL    C31 5051   1.701   4.146   5.517 -0.0755 -0.2361  0.7174
   11MOL    C32 5052   1.596   4.180   5.407  0.3371 -0.8689 -0.5752
   11MOL    C33 5053   1.629   4.302   5.316  0.2071  0.2676 -0.0439
   11MOL    C34 5054   1.753   4.274   5.216 -0.1311  0.2161  0.3361
   11MOL    C35 5055   1.788   4.397   5.125  0.1496 -0.2322  0.2666
   11MOL    H36 5056   1.940   4.142   5.924  0.2620 -1.8492  1.5453
   11MOL    H37 5057   2.075   4.057   5.851  0.7854  1.8915 -0.4097
   11MOL    H38 5058   1.935   4.089   5.632  2.1569 -1.4060  1.4321
   11MOL    H39 5059   1.762   4.340   5.589 -0.2633  0.2758  0.5861
   11MOL    H40 5060   1.618   4.295   5.663  0.4928  0.6983 -0.2680
   11MOL    H41 5061   1.670   4.047   5.552  0.0899 -0.6359 -0.2628
   11MOL    H42 5062   1.802   4.137   5.478 -0.6370  0.1850 -0.8817
   11MOL    H43 5063   1.576   4.094   5.343 -1.8626 -1.9129  1.4057
   11MOL    H44 5064   1.505   4.207   5.461  1.1086  0.8871 -0.1110
   11MOL    H45 5065   1.545   4.322   5.250  0.2060 -1.3365 -0.5496
   11MOL    H46 5066   1.645   4.395   5.370  0.2066  1.1405 -1.5381
   11MOL    H47 5067   1.843   4.247   5.271  0.0111 -2.2200 -1.0213
   11MOL    H48 5068   1.739   4.187   5.151 -0.9730 -1.4900  2.7208
   11MOL    H49 5069   1.698   4.395   5.064  0.5157 -1.8674 -0.2748
   11MOL    H50 5070   1.790   4.483   5.191  0.6763  1.0577 -1.4171
   11MOL    H51 5071   1.878   4.393   5.063  0.3561  2.0642  0.3870
   11MOL    C52 5072   2.014   4.267   5.696  0.6053 -0.3472  0.6893
   11MOL    C53 5073   2.164   4.233   5.661  0.4413 -0.0291 -0.2819
   11MOL    O54 5074   2.165   4.172   5.532 -0.2835  0.4123 -0.2139
   11MOL    C55 5075   2.201   4.030   5.529  0.0511  0.0364 -0.1790
   11MOL    C56 5076   2.210   3.983   5.381 -0.2874 -0.0544  0.9136
   11MOL    C57 5077   2.076   3.960   5.321  0.3411  0.2774 -0.5539
   11MOL    C58 5078   2.074   3.887   5.182  0.0766 -0.4457 -0.0124
   11MOL    C59 5079   2.118   3.990   5.083 -0.8209  0.4573  0.0473
   11MOL    C60 5080   2.141   3.927   4.944  0.6882 -0.0943 -0.2890
   11MOL    H61 5081   1.999   4.329   5.785  1.2741  1.0362 -0.1486
   11MOL    H62 5082   1.977   4.332   5.616  0.3979 -0.6812  0.5131
   11MOL    H63 5083   2.212   4.162   5.728  1.8334 -0.2934 -1.5402
   11MOL    H64 5084   2.121   3.980   5.582 -1.0158  2.8073  0.8759
   11MOL    H65 5085   2.292   4.005   5.585 -0.0860  1.2680  0.5975
   11MOL    H66 5086   2.271   3.896   5.360  2.0005  1.9329 -0.9695
   11MOL    H67 5087   2.265   4.058   5.324  0.7607 -1.2302  0.3594
   11MOL    H68 5088   2.019   3.895   5.388  3.1567 -1.6956 -0.0116
   11MOL    H69 5089   2.017   4.052   5.320  0.4241  0.3532  0.6672
   11MOL    H70 5090   2.145   3.804   5.173  0.8688  0.2726 -0.4684
   11MOL    H71 5091   1.977   3.850   5.151  0.9566 -2.3297 -0.5753
   11MOL    H72 5092   2.052   4.076   5.077 -0.7848  0.4003 -1.2561
   11MOL    H73 5093   2.211   4.039   5.110  0.4566 -0.5374 -2.4095
   11MOL    H74 5094   2.205   3.840   4.957  2.1758  0.9655 -0.2763
   11MOL    H75 5095   2.041   3.915   4.903  0.9844 -2.1145 -0.4648
   11MOL    H76 5096   2.200   3.980   4.869 -1.0678  1.7923 -0.4018
   11MOL    C77 5097   2.260   4.356   5.655  0.0246 -0.8069 -0.0790
   11MOL    C78 5098   2.413   4.323   5.657 -0.1458  0.4623 -0.3767
   11MOL    O79 5099   2.429   4.275   5.785 -0.2969 -0.1577 -0.4231
   11MOL    C80 5100   2.543   4.200   5.814 -0.2791  0.2894 -0.1962
   11MOL    C81 5101   2.528   4.122   5.944 -0.7403 -0.2613 -0.1939
   11MOL    C82 5102   2.408   4.031   5.957  0.1431 -0.1652  0.2759
   11MOL    C83 5103   2.411   3.899   5.875  0.5510 -0.3468 -0.2459
   11MOL    C84 5104   2.285   3.809   5.886 -0.0514  0.2985  0.6065
   11MOL    C85 5105   2.279   3.733   6.016 -0.5121 -0.3103  0.5667
   11MOL    H86 5106   2.238   4.411   5.747  1.4353 -0.5274  0.1026
   11MOL    H87 5107   2.238   4.426   5.575 -0.7987  0.7286  1.4522
   11MOL    H88 5108   2.414   4.246   5.580 -4.5892  0.9414 -1.0415
   11MOL    H89 5109   2.641   4.246   5.803 -0.5190  1.0596  0.7885
   11MOL    H90 5110   2.553   4.121   5.739 -2.4427  0.9481 -1.2227
   11MOL    H91 5111   2.505   4.202   6.014 -1.0491 -0.4793 -0.0466
   11MOL    H92 5112   2.625   4.080   5.972 -0.4376  0.3343 -0.3399
   11MOL    H93 5113   2.396   4.007   6.063  0.6507  0.7420  0.5400
   11MOL    H94 5114   2.314   4.081   5.934  0.6056 -0.3392 -2.1869
   11MOL    H95 5115   2.439   3.926   5.773 -0.6868  0.6647 -0.3334
   11MOL    H96 5116   2.497   3.845   5.915  1.2137  0.2351 -0.8686
   11MOL    H97 5117   2.190   3.860   5.872  0.4021  0.9929  0.0112
   11MOL    H98 5118   2.281   3.735   5.806  0.4581  1.6139 -0.6503
   11MOL    H99 5119   2.361   3.666   6.043 -1.1925 -1.4735 -0.2315
   11MOL   H100 5120   2.251   3.790   6.105 -1.5783 -0.1743  0.1390
   11MOL   H101 5121   2.182   3.682   6.016 -0.0880 -1.1348 -0.8412
   11MOL   C102 5122   2.520   4.428   5.626 -0.2870 -0.0029  0.6304
   11MOL   C103 5123   2.549   4.445   5.474 -0.6676 -0.8800 -1.0744
   11MOL   O104 5124   2.634   4.558   5.446  0.4574 -0.4090  0.0763
   11MOL   C105 5125   2.581   4.689   5.473  0.2607 -0.2207 -0.0277
   11MOL   C106 5126   2.599   4.774   5.352 -0.8612  0.4270 -0.5930
   11MOL   C107 5127   2.747   4.824   5.347  0.1016  0.2909 -0.0365
   11MOL   C108 5128   2.776   4.920   5.232 -0.4878  0.2820  0.4652
   11MOL   C109 5129   2.912   4.984   5.213 -0.0770 -0.3310 -0.4950
   11MOL   C110 5130   2.938   5.021   5.063  0.2899 -0.4140  0.2944
   11MOL   H111 5131   2.489   4.521   5.673 -0.8496 -0.6764  1.6114
   11MOL   H112 5132   2.619   4.405   5.668  0.6176  1.2744 -0.7600
   11MOL   H113 5133   2.455   4.467   5.425 -1.4747  1.2663  1.3366
   11MOL   H114 5134   2.624   4.726   5.566  0.5126 -2.1228  0.6418
   11MOL   H115 5135   2.474   4.673   5.484  0.3554 -0.1127  1.1200
   11MOL   H116 5136   2.544   4.867   5.362  0.6982  1.1628  1.4604
   11MOL   H117 5137   2.572   4.717   5.263 -1.1622 -1.6423  0.7758
   11MOL   H118 5138   2.774   4.873   5.441 -0.8135  0.8957 -0.0869
   11MOL   H119 5139   2.814   4.738   5.345  0.6018  0.5925  2.3460
   11MOL   H120 5140   2.748   4.860   5.145 -0.7789 -0.0086  0.7593
   11MOL   H121 5141   2.701   4.999   5.233  0.9314  1.6764 -0.7368
   11MOL   H122 5142   2.919   5.075   5.273  1.0309 -1.4098  1.0589
   11MOL   H123 5143   2.992   4.914   5.238  0.0458 -0.4021 -1.0698
   11MOL   H124 5144   3.032   5.072   5.046 -0.9076  1.4811 -0.8316
   11MOL   H125 5145   2.949   4.929   5.005 -0.0368 -1.2012  1.4699
   11MOL   H126 5146   2.855   5.070   5.011  0.5474  0.3703  0.6248
   11MOL   C127 5147   2.615   4.322   5.399  0.1693 -0.2056 -0.7655
   11MOL   C128 5148   2.622   4.319   5.251 -0.6488 -0.2656  0.2423
   11MOL   O129 5149   2.634   4.184   5.204  0.1741 -0.4542 -0.7292
   11MOL   C130 5150   2.514   4.124   5.161  0.0011  0.4097 -0.4266
   11MOL   C131 5151   2.524   3.976   5.170 -0.6202  0.5205 -0.6705
   11MOL   C132 5152   2.628   3.923   5.068 -0.3595  0.0170  0.1155
   11MOL   C133 5153   2.624   3.767   5.066  0.1432 -0.0076 -0.0194
   11MOL   C134 5154   2.500   3.707   5.001  0.8777  0.0628 -0.1593
   11MOL   C135 5155   2.489   3.555   4.991 -0.2847  0.2498 -0.1445
   11MOL   H136 5156   2.713   4.307   5.444  0.0367  2.2178  0.4056
   11MOL   H137 5157   2.567   4.229   5.431 -0.1358 -0.2007 -1.2098
   11MOL   H138 5158   2.529   4.365   5.219 -0.5050 -0.3841 -0.3477
   11MOL   H139 5159   2.486   4.152   5.060  0.9599  2.2075 -0.2359
   11MOL   H140 5160   2.441   4.159   5.235 -1.0424 -2.2604 -0.1595
   11MOL   H141 5161   2.425   3.935   5.146 -0.7577  1.6655 -2.1432
   11MOL   H142 5162   2.545   3.951   5.274  0.0436  2.6726 -0.2621
   11MOL   H143 5163   2.602   3.948   4.965 -1.2885 -2.2633 -0.2391
   11MOL   H144 5164   2.731   3.950   5.092 -0.4681  0.9986 -0.5111
   11MOL   H145 5165   2.709   3.716   5.020 -0.7193 -0.2489 -1.3882
   11MOL   H146 5166   2.624   3.742   5.172 -1.0740  0.5114  0.1120
   11MOL   H147 5167   2.405   3.735   5.046  0.9443  2.1539 -1.2602
   11MOL   H148 5168   2.481   3.753   4.904 -1.6527  1.0913  0.7686
   11MOL   H149 5169   2.471   3.505   5.086  0.0438 -0.7387 -0.5937
   11MOL   H150 5170   2.412   3.526   4.919 -1.2428 -0.2929  1.0881
   11MOL   H151 5171   2.574   3.508   4.942  0.9349 -0.5594  2.6669
   11MOL   C152 5172   2.722   4.415   5.180 -1.1521 -0.9925  0.3801
   11MOL   C153 5173   2.683   4.458   5.035 -0.0350  0.7454  0.3154
   11MOL   O154 5174   2.594   4.562   5.056 -0.1177 -0.0595 -0.1442
   11MOL   C155 5175   2.489   4.566   4.960  0.1945  0.4617  0.3607
   11MOL   C156 5176   2.377   4.637   5.032 -0.2567  0.2575  0.3622
   11MOL   C157 5177   2.323   4.580   5.164  0.5739 -0.0182  0.5514
   11MOL   C158 5178   2.228   4.458   5.139  0.0282  0.0762  0.1306
   11MOL   C159 5179   2.156   4.413   5.268 -0.3425 -0.0445  0.2042
   11MOL   C160 5180   2.068   4.521   5.337 -0.3806  0.3503 -0.4318
   11MOL   H161 5181   2.735   4.511   5.231  0.5900 -1.7798  1.4588
   11MOL   H162 5182   2.817   4.365   5.195  0.2495  1.3897 -0.2552
   11MOL   H163 5183   2.646   4.368   4.985  3.3451  0.7636 -2.4675
   11MOL   H164 5184   2.453   4.464   4.946  0.1520  0.5094  0.1253
   11MOL   H165 5185   2.518   4.598   4.860  0.6433 -1.6902 -0.2317
   11MOL   H166 5186   2.287   4.639   4.970 -0.7157  1.0903  1.0469
   11MOL   H167 5187   2.417   4.738   5.035  0.0418  0.1742 -0.5815
   11MOL   H168 5188   2.391   4.566   5.248 -0.2020 -0.5946  1.0943
   11MOL   H169 5189   2.254   4.654   5.203 -1.2865 -1.3268 -0.1735
   11MOL   H170 5190   2.147   4.489   5.072 -0.8767 -2.9386 -0.2770
   11MOL   H171 5191   2.279   4.380   5.083  1.0436  0.9064 -0.1102
   11MOL   H172 5192   2.096   4.329   5.234  0.9072 -0.8563 -0.0211
   11MOL   H173 5193   2.228   4.373   5.340  0.7767  1.1893 -0.2209
   11MOL   H174 5194   2.119   4.591   5.404 -1.7039  0.2143  0.7386
   11MOL   H175 5195   2.013   4.585   5.268 -1.3069  0.8706  0.7757
   11MOL   H176 5196   1.994   4.477   5.403  0.0486  1.7458  1.0207
   11MOL   C177 5197   2.804   4.510   4.954  0.5752  0.1846 -0.3733
   11MOL   C178 5198   2.903   4.403   4.910 -0.0679  0.4451  0.8514
   11MOL   O179 5199   2.859   4.332   4.794 -0.2545 -0.3760 -0.5170
   11MOL   C180 5200   2.811   4.195   4.820 -0.1667  0.4208 -0.0410
   11MOL   C181 5201   2.762   4.122   4.696  0.7125 -0.3016 -0.0789
   11MOL   C182 5202   2.645   4.182   4.611 -0.1148  0.3267  1.0436
   11MOL   C183 5203   2.511   4.158   4.681  0.1620  0.0381  0.1030
   11MOL   C184 5204   2.402   4.220   4.604 -0.6839 -0.2838 -0.0881
   11MOL   C185 5205   2.261   4.200   4.662  0.0300 -0.7604  0.5264
   11MOL   H186 5206   2.769   4.544   4.857  1.6730  0.6536 -0.6114
   11MOL   H187 5207   2.844   4.597   5.007  1.0393  0.5524 -1.3310
   11MOL   H188 5208   2.918   4.328   4.988  1.2063  2.4328  2.5897
   11MOL   H189 5209   2.728   4.198   4.891 -0.4408 -0.8839 -0.3004
   11MOL   H190 5210   2.887   4.132   4.866 -0.8001  0.8617  1.6389
   11MOL   H191 5211   2.743   4.024   4.741  0.3256  0.1186  0.6672
   11MOL   H192 5212   2.843   4.101   4.626 -0.5159  0.0659 -1.6719
   11MOL   H193 5213   2.662   4.286   4.584  0.7771  0.0104  0.3749
   11MOL   H194 5214   2.642   4.129   4.516 -0.7199  0.1132  1.1838
   11MOL   H195 5215   2.498   4.053   4.707  0.4847 -0.9339 -3.3649
   11MOL   H196 5216   2.507   4.204   4.780  1.3530  0.8419 -0.2112
   11MOL   H197 5217   2.423   4.326   4.608  0.8796 -0.5027 -1.6583
   11MOL   H198 5218   2.407   4.175   4.504 -1.2586 -0.6078  0.0209
   11MOL   H199 5219   2.183   4.254   4.608  0.2191 -0.3107  0.7023
   11MOL   H200 5220   2.236   4.094   4.673 -0.6146 -0.5729  0.8851
   11MOL   H201 5221   2.239   4.233   4.763 -1.4018 -0.1251  0.0317
   11MOL   C202 5222   3.037   4.471   4.865  0.2321 -0.3939 -0.0632
   11MOL   C203 5223   3.146   4.371   4.819 -0.4863  0.0183  0.1539
   11MOL   O204 5224   3.174   4.271   4.915  1.3582  0.6205 -0.1888
   11MOL   C205 5225   3.212   4.305   5.046 -0.2903  0.3286 -0.0364
   11MOL   C206 5226   3.239   4.180   5.133 -0.2798  0.0557  0.3211
   11MOL   C207 5227   3.125   4.094   5.149  0.3216  0.3348 -0.0516
   11MOL   C208 5228   3.151   3.948   5.202  0.4898  0.3163  0.2304
   11MOL   C209 5229   3.017   3.869   5.189 -0.3805  0.0976  0.2635
   11MOL   C210 5230   3.041   3.722   5.224 -0.1617 -0.1260 -0.1752
   11MOL   H211 5231   3.020   4.534   4.777 -0.7762 -0.5426  0.0212
   11MOL   H212 5232   3.078   4.530   4.947 -2.5349 -0.3836  1.3456
   11MOL   H213 5233   3.113   4.321   4.728 -3.1103 -0.4466  1.3118
   11MOL   H214 5234   3.138   4.373   5.089  0.2955  1.4846 -0.8423
   11MOL   H215 5235   3.307   4.359   5.038  1.1424 -2.1764 -0.3634
   11MOL   H216 5236   3.286   4.200   5.229  0.1504  2.7436 -0.4069
   11MOL   H217 5237   3.320   4.127   5.082  0.5692 -2.2457  3.8483
   11MOL   H218 5238   3.055   4.145   5.215  1.7581  2.2728 -0.0086
   11MOL   H219 5239   3.066   4.098   5.057 -0.9347  0.7955  0.7506
   11MOL   H220 5240   3.221   3.896   5.136 -0.5460 -0.6043 -0.1605
   11MOL   H221 5241   3.190   3.948   5.304  1.0442 -0.3083  0.0239
   11MOL   H222 5242   2.945   3.905   5.263 -0.1330 -1.7338  1.4569
   11MOL   H223 5243   2.972   3.872   5.090 -1.9037 -2.1812  0.8294
   11MOL   H224 5244   2.955   3.666   5.189  0.1501 -0.3846 -0.5321
   11MOL   H225 5245   3.132   3.692   5.171  0.2466  2.1545 -0.8354
   11MOL   H226 5246   3.057   3.706   5.330 -1.4505  1.0368  0.2066
   11MOL   C227 5247   3.282   4.436   4.779 -0.0233 -0.3694  0.3605
   11MOL   C228 5248   3.392   4.346   4.728 -0.2782 -0.3792 -0.3446
   11MOL   O229 5249   3.350   4.265   4.624  0.1209 -0.5242 -0.3184
   11MOL   C230 5250   3.318   4.130   4.663  0.5965  1.4218  0.0472
   11MOL   C231 5251   3.316   4.055   4.524  1.0856  0.1774 -0.2197
   11MOL   C232 5252   3.441   4.070   4.442 -0.6044 -1.1412 -0.8053
   11MOL   C233 5253   3.448   3.988   4.320 -0.1847  0.4832 -0.2588
   11MOL   C234 5254   3.574   4.025   4.239 -0.1122  0.4584 -0.4083
   11MOL   C235 5255   3.579   3.959   4.096 -0.3887 -0.3512  0.5055
   11MOL   H236 5256   3.272   4.513   4.702 -0.3331 -0.8558 -0.0880
   11MOL   H237 5257   3.324   4.495   4.860  3.4053  1.9411 -2.9355
   11MOL   H238 5258   3.425   4.289   4.815  0.9670  0.0736 -0.5176
   11MOL   H239 5259   3.219   4.116   4.706  1.5856 -1.6919  1.5003
   11MOL   H240 5260   3.403   4.087   4.717 -0.7254 -2.5867 -0.8730
   11MOL   H241 5261   3.240   4.099   4.460  1.9473  0.0149 -1.3517
   11MOL   H242 5262   3.294   3.949   4.539  1.5795 -0.1533 -1.7927
   11MOL   H243 5263   3.468   4.175   4.430 -0.3279 -0.9675  1.1387
   11MOL   H244 5264   3.524   4.043   4.507  0.0006 -0.3869 -1.2564
   11MOL   H245 5265   3.456   3.885   4.357 -1.0071  1.1403  1.8153
   11MOL   H246 5266   3.356   4.005   4.266 -0.1239  0.8688 -0.2438
   11MOL   H247 5267   3.574   4.133   4.235  0.4051  0.5881  2.0811
   11MOL   H248 5268   3.666   4.014   4.297  0.7511  1.5269 -1.5583
   11MOL   H249 5269   3.583   3.850   4.101  1.5102 -0.2929  0.7670
   11MOL   H250 5270   3.509   3.990   4.018  1.4736  0.0052 -1.0697
   11MOL   H251 5271   3.675   3.993   4.057 -0.8131 -0.4167 -0.5942
   11MOL   C252 5272   3.506   4.436   4.669  0.3284  0.8184 -0.7885
   11MOL   C253 5273   3.617   4.470   4.770  0.3269  0.2809  0.0374
   11MOL   O254 5274   3.569   4.574   4.856  0.0359  0.0988 -0.0193
   11MOL   C255 5275   3.591   4.557   4.991  0.1562  0.1937 -0.3581
   11MOL   C256 5276   3.504   4.649   5.074  0.8055 -0.8167  0.3643
   11MOL   C257 5277   3.503   4.594   5.223 -0.0628  0.1577  1.0059
   11MOL   C258 5278   3.385   4.641   5.317 -0.1556 -0.1136 -0.5062
   11MOL   C259 5279   3.248   4.570   5.291 -0.0642  0.2443 -0.3297
   11MOL   C260 5280   3.155   4.581   5.410  0.0308 -0.4747 -0.5315
   11MOL   H261 5281   3.542   4.385   4.580 -1.0387 -2.3870  0.4156
   11MOL   H262 5282   3.474   4.534   4.632 -2.1354 -0.1109 -1.2440
   11MOL   H263 5283   3.644   4.378   4.822 -0.9192  1.8579  3.6564
   11MOL   H264 5284   3.697   4.558   5.016 -0.0281 -1.5432  0.5686
   11MOL   H265 5285   3.567   4.452   5.008  0.3655  0.2112  0.0685
   11MOL   H266 5286   3.399   4.664   5.051  0.8356  1.8301  1.7549
   11MOL   H267 5287   3.540   4.751   5.073 -1.8969  0.1883  0.6954
   11MOL   H268 5288   3.507   4.485   5.232  0.1365  0.1465  0.7791
   11MOL   H269 5289   3.596   4.635   5.263  1.0457 -0.6755 -0.6622
   11MOL   H270 5290   3.417   4.622   5.419 -0.8081  1.1386 -0.0516
   11MOL   H271 5291   3.371   4.749   5.308 -1.6542 -0.2948 -0.5178
   11MOL   H272 5292   3.202   4.601   5.197 -0.0989 -0.6390 -0.5999
   11MOL   H273 5293   3.270   4.465   5.271  0.6580  0.4127 -0.4306
   11MOL   H274 5294   3.204   4.541   5.499  1.0436  0.2647 -0.7371
   11MOL   H275 5295   3.119   4.678   5.443  2.4227 -0.0066  0.8273
   11MOL   H276 5296   3.072   4.514   5.388 -0.9755  1.7045 -3.7347
   11MOL   C277 5297   3.746   4.529   4.707 -0.0955  0.5705  0.3185
   11MOL   C278 5298   3.833   4.430   4.625 -1.4859  0.8059 -0.4209
   11MOL   O279 5299   3.907   4.484   4.517 -0.0641 -0.0019 -0.1283
   11MOL   C280 5300   3.828   4.533   4.408 -0.6788 -0.2257 -0.2454
   11MOL   C281 5301   3.917   4.550   4.280 -0.4271  0.4844  0.0676
   11MOL   C282 5302   3.997   4.424   4.228  0.2472 -0.4317 -0.1140
   11MOL   C283 5303   3.900   4.302   4.196 -0.2758  0.3044 -0.3965
   11MOL   C284 5304   3.967   4.196   4.099  0.5353  0.3015 -0.1883
   11MOL   C285 5305   3.982   4.251   3.958  0.9302  0.6735 -0.2775
   11MOL   H286 5306   3.716   4.615   4.646 -1.5358 -1.1560 -1.4631
   11MOL   H287 5307   3.810   4.568   4.786 -0.6755  1.0638  0.5440
   11MOL   H288 5308   3.771   4.353   4.581 -1.0731 -1.4681  2.7977
   11MOL   H289 5309   3.782   4.630   4.427 -0.3395 -0.2330  0.6333
   11MOL   H290 5310   3.757   4.454   4.384 -0.8274 -0.3709  0.6453
   11MOL   H291 5311   3.993   4.625   4.299 -0.3623  0.2175  0.8688
   11MOL   H292 5312   3.845   4.586   4.206 -0.8990 -2.3471 -0.9223
   11MOL   H293 5313   4.059   4.457   4.145 -0.8419 -2.6132 -1.8482
   11MOL   H294 5314   4.073   4.398   4.303 -0.8534  2.1151  1.9647
   11MOL   H295 5315   3.859   4.258   4.287 -1.9540 -0.0615 -1.3065
   11MOL   H296 5316   3.809   4.339   4.149 -0.2565  0.8319 -0.0271
   11MOL   H297 5317   4.064   4.168   4.141 -0.2260 -0.9435  0.7831
   11MOL   H298 5318   3.905   4.106   4.093 -0.3374  0.9538 -1.1590
   11MOL   H299 5319   4.052   4.334   3.959  1.1018  0.5272  0.0192
   11MOL   H300 5320   4.037   4.194   3.884  1.6658  1.3262 -0.2405
   11MOL   H301 5321   3.892   4.297   3.916  0.9972  1.0143 -0.0446
   11MOL   C302 5322   3.938   4.356   4.710 -0.4507 -0.1521  0.5484
   11MOL   C303 5323   3.976   4.222   4.636 -0.7359  1.0072 -0.1908
   11MOL   O304 5324   3.895   4.126   4.701 -0.0314 -0.4322  0.8194
   11MOL   C305 5325   3.802   4.054   4.627  0.3305 -0.0604 -0.5753
   11MOL   C306 5326   3.723   3.959   4.717 -0.2943 -0.0643  0.1311
   11MOL   C307 5327   3.678   4.013   4.847 -0.2916  0.3460  0.0146
   11MOL   C308 5328   3.623   3.895   4.937 -0.3705 -0.0953 -0.2137
   11MOL   C309 5329   3.578   3.934   5.078  0.2721  0.5570  0.1520
   11MOL   C310 5330   3.571   3.809   5.170  0.2388  0.0291 -0.5123
   11MOL   H311 5331   4.014   4.432   4.724  1.3586 -1.7280 -0.5009
   11MOL   H312 5332   3.909   4.340   4.814  2.4844  0.8635  1.5809
   11MOL   H313 5333   3.954   4.221   4.529 -0.8808  1.6705 -0.1671
   11MOL   H314 5334   3.847   4.000   4.544  0.7837  0.3930 -0.6255
   11MOL   H315 5335   3.736   4.126   4.579 -0.0059 -0.0624 -0.1180
   11MOL   H316 5336   3.794   3.877   4.725 -0.5648 -0.7251 -3.3159
   11MOL   H317 5337   3.636   3.916   4.667 -0.4442  0.4939 -0.0970
   11MOL   H318 5338   3.758   4.062   4.904 -0.8830  1.1490  0.1751
   11MOL   H319 5339   3.608   4.096   4.834 -1.2781 -0.2507  1.3542
   11MOL   H320 5340   3.542   3.833   4.898 -0.2015 -0.7699  0.5136
   11MOL   H321 5341   3.704   3.824   4.948  0.2835  0.6365 -0.2233
   11MOL   H322 5342   3.643   4.015   5.108 -2.0017  1.8028  1.8599
   11MOL   H323 5343   3.472   3.957   5.076  0.6959  3.0197  2.8346
   11MOL   H324 5344   3.665   3.752   5.176  1.6489  2.1938 -1.3757
   11MOL   H325 5345   3.534   3.819   5.272 -0.1822 -0.9716 -0.5630
   11MOL   H326 5346   3.499   3.737   5.131 -0.9815 -0.5167  2.6732
   11MOL   C327 5347   4.123   4.178   4.641  0.1696 -0.5760 -0.3229
   11MOL   C328 5348   4.146   4.044   4.567 -0.7070 -0.2994 -0.5308
   11MOL   O329 5349   4.269   4.056   4.499 -0.8685 -0.1798  0.3666
   11MOL   C330 5350   4.255   4.107   4.370  0.1301  0.5821  0.0419
   11MOL   C331 5351   4.284   4.008   4.254  1.1625 -0.3659 -0.4273
   11MOL   C332 5352   4.428   3.940   4.261  0.0353  0.1808  0.2701
   11MOL   C333 5353   4.431   3.807   4.191  0.5836  0.4153 -1.0408
   11MOL   C334 5354   4.457   3.815   4.050 -0.1706 -0.5585  0.8676
   11MOL   C335 5355   4.460   3.672   3.984 -0.5562  0.5606 -0.2727
   11MOL   H336 5356   4.143   4.163   4.747  0.4744  1.5762 -0.0546
   11MOL   H337 5357   4.194   4.253   4.606  1.2048  0.7970  4.3190
   11MOL   H338 5358   4.060   4.020   4.506  0.1662 -1.1482 -1.4446
   11MOL   H339 5359   4.340   4.175   4.375  1.5840 -1.2251  0.3646
   11MOL   H340 5360   4.160   4.156   4.351 -1.9656 -2.7527  1.5121
   11MOL   H341 5361   4.273   4.073   4.168  1.4768  1.7265  1.0609
   11MOL   H342 5362   4.204   3.934   4.259  2.6295 -1.8787  1.7870
   11MOL   H343 5363   4.512   3.998   4.223  1.5495 -0.6516  2.2277
   11MOL   H344 5364   4.453   3.912   4.363  1.6692  0.0318 -0.1558
   11MOL   H345 5365   4.515   3.753   4.237 -0.0507 -0.8331 -1.3245
   11MOL   H346 5366   4.340   3.750   4.211 -0.4517  1.4483 -2.6972
   11MOL   H347 5367   4.377   3.864   3.994  0.0260  0.7907  1.7509
   11MOL   H348 5368   4.551   3.866   4.030  1.0318 -1.8673  2.9682
   11MOL   H349 5369   4.514   3.601   4.047  0.2080  0.7829 -0.6746
   11MOL   H350 5370   4.356   3.642   3.967 -0.4270 -0.5060  0.7183
   11MOL   H351 5371   4.506   3.674   3.885  0.8672  2.1560  0.3940
   11MOL   C352 5372   4.164   3.927   4.663 -0.1395  0.2510 -0.1976
   11MOL   C353 5373   4.164   3.784   4.616 -0.4172  0.1449 -0.9735
   11MOL   O354 5374   4.042   3.739   4.562 -0.1217  0.2532  0.5011
   11MOL   C355 5375   4.035   3.740   4.416  0.2970 -0.8104 -0.7738
   11MOL   C356 5376   3.917   3.645   4.382 -0.1305  0.0808 -0.6295
   11MOL   C357 5377   3.784   3.720   4.401 -0.2652 -0.2984  0.7650
   11MOL   C358 5378   3.664   3.621   4.385  0.2490 -0.0021  0.7485
   11MOL   C359 5379   3.572   3.594   4.504  0.0824  0.2557  0.3073
   11MOL   C360 5380   3.651   3.515   4.608  0.3150 -0.6720 -0.7247
   11MOL   H361 5381   4.259   3.947   4.713 -0.5712  2.2959 -0.1515
   11MOL   H362 5382   4.092   3.933   4.744 -0.2678  0.8507 -0.3494
   11MOL   H363 5383   4.250   3.775   4.549  1.5307  2.1860  1.1473
   11MOL   H364 5384   4.122   3.697   4.366  0.7345  1.7456 -2.3194
   11MOL   H365 5385   4.034   3.836   4.364  1.8691 -0.9247 -1.0353
   11MOL   H366 5386   3.925   3.555   4.443 -1.0896 -1.9745 -3.4215
   11MOL   H367 5387   3.918   3.609   4.279 -0.2041 -0.9754 -0.2646
   11MOL   H368 5388   3.779   3.764   4.501  1.3612  0.2002  0.6417
   11MOL   H369 5389   3.782   3.793   4.320  3.3089 -0.5769  0.3537
   11MOL   H370 5390   3.608   3.674   4.307 -2.3182 -0.9010  1.9347
   11MOL   H371 5391   3.699   3.532   4.334  0.5370  1.6641 -2.0921
   11MOL   H372 5392   3.530   3.683   4.551 -0.1697 -1.0688  2.6462
   11MOL   H373 5393   3.487   3.533   4.471  0.3876 -1.1282  2.0425
   11MOL   H374 5394   3.708   3.425   4.583  1.7430  0.0072  0.0272
   11MOL   H375 5395   3.725   3.578   4.656 -0.4350  1.0482 -1.7925
   11MOL   H376 5396   3.586   3.470   4.684 -0.5013 -2.3300 -2.3712
   11MOL   C377 5397   4.199   3.692   4.735 -0.4095 -0.0616 -0.8996
   11MOL   C378 5398   4.244   3.550   4.701  0.8471  0.4769  0.9484
   11MOL   O379 5399   4.349   3.553   4.606  0.5665  0.4640 -0.1794
   11MOL   C380 5400   4.485   3.594   4.651 -0.4682  0.2688 -1.0272
   11MOL   C381 5401   4.573   3.593   4.530  0.2170  0.1426  0.0004
   11MOL   C382 5402   4.569   3.466   4.446  0.2443  0.6887 -0.4003
   11MOL   C383 5403   4.650   3.483   4.319  0.5412 -0.5837 -0.3097
   11MOL   C384 5404   4.644   3.353   4.237 -0.5986  0.1297  0.1512
   11MOL   C385 5405   4.725   3.371   4.107 -0.0233 -1.2914  0.0423
   11MOL   H386 5406   4.284   3.721   4.798 -1.1651 -2.0354  1.1076
   11MOL   H387 5407   4.112   3.685   4.800  1.3738  1.0030  1.6662
   11MOL   H388 5408   4.277   3.498   4.790  0.1186 -0.3093  0.7627
   11MOL   H389 5409   4.510   3.511   4.717 -0.0818  0.7356 -0.5858
   11MOL   H390 5410   4.481   3.681   4.717  0.4492  0.5493 -1.3188
   11MOL   H391 5411   4.676   3.612   4.561 -0.3326  0.8785  1.4474
   11MOL   H392 5412   4.546   3.681   4.471  1.8522 -0.1836 -1.2612
   11MOL   H393 5413   4.609   3.386   4.508 -0.7891 -1.7675 -2.7801
   11MOL   H394 5414   4.467   3.438   4.418  0.3030  0.6775 -0.6043
   11MOL   H395 5415   4.624   3.576   4.268 -0.3074  0.8699  2.6851
   11MOL   H396 5416   4.754   3.491   4.348  0.7963 -0.9009 -1.1056
   11MOL   H397 5417   4.691   3.278   4.300  1.0961 -0.5510 -1.8527
   11MOL   H398 5418   4.541   3.331   4.209 -0.2123 -2.9380  0.9329
   11MOL   H399 5419   4.706   3.285   4.043  0.3175 -0.3167 -1.4063
   11MOL   H400 5420   4.696   3.458   4.048  0.8512 -0.3889  0.9302
   11MOL   H401 5421   4.831   3.365   4.131  0.1561  1.6449  0.2426
   11MOL   C402 5422   4.134   3.463   4.633  0.2033  0.0951 -0.1685
   11MOL   C403 5423   4.158   3.309   4.655 -0.0038  0.6358 -0.6807
   11MOL   O404 5424   4.140   3.275   4.794  0.0231 -0.1356 -0.0535
   11MOL   C405 5425   4.005   3.267   4.848  0.4410 -0.4723  0.5228
   11MOL   C406 5426   3.987   3.157   4.951  0.0794 -0.2407  0.1985
   11MOL   C407 5427   4.060   3.024   4.926 -1.1118  0.2815  0.9279
   11MOL   C408 5428   4.020   2.919   5.028 -0.2779 -0.2117  0.4539
   11MOL   C409 5429   4.055   2.940   5.175  0.1102 -0.0002  0.9164
   11MOL   C410 5430   4.017   2.815   5.264 -0.0763  0.6362  0.0916
   11MOL   H411 5431   4.137   3.488   4.527  0.0015  1.4543  0.1353
   11MOL   H412 5432   4.037   3.488   4.676  0.0547 -0.1553 -0.3540
   11MOL   H413 5433   4.091   3.247   4.595 -0.0735  1.3114 -1.3102
   11MOL   H414 5434   3.928   3.245   4.774  1.3975 -0.4730 -0.4943
   11MOL   H415 5435   3.975   3.368   4.879 -1.1559 -0.0383 -2.2212
   11MOL   H416 5436   3.883   3.128   4.964 -0.7652  1.8802 -1.5010
   11MOL   H417 5437   4.040   3.185   5.042  0.7597 -0.3224 -0.1714
   11MOL   H418 5438   4.030   2.991   4.827 -0.4465 -0.6690  1.0350
   11MOL   H419 5439   4.168   3.040   4.926 -1.0436 -0.1488  0.2031
   11MOL   H420 5440   3.911   2.916   5.029 -0.4375  0.9832 -3.4248
   11MOL   H421 5441   4.063   2.821   5.005 -0.9176 -1.1036  2.9651
   11MOL   H422 5442   4.161   2.951   5.194  0.3668 -0.7845 -0.0419
   11MOL   H423 5443   4.003   3.030   5.210  0.1993  0.8975 -1.1966
   11MOL   H424 5444   3.997   2.827   5.370  1.2392 -2.2722  0.7017
   11MOL   H425 5445   3.928   2.761   5.233 -0.0417 -0.3287  1.6382
   11MOL   H426 5446   4.091   2.735   5.258 -0.2483  0.3123  1.9608
   11MOL   C427 5447   4.302   3.260   4.619 -0.2690  0.3268  0.7664
   11MOL   C428 5448   4.319   3.104   4.600  0.0321 -0.0111  0.0088
   11MOL   O429 5449   4.266   3.048   4.481  0.1398 -0.4376  0.0154
   11MOL   C430 5450   4.135   2.991   4.487  0.0636  0.0067  0.1007
   11MOL   C431 5451   4.117   2.921   4.352 -1.0432  0.0067 -0.3215
   11MOL   C432 5452   4.000   2.826   4.348  0.0200 -0.6938  0.3974
   11MOL   C433 5453   3.895   2.825   4.232 -0.3344 -0.4248 -0.0261
   11MOL   C434 5454   3.805   2.701   4.236 -0.4785 -0.2497  0.2043
   11MOL   C435 5455   3.690   2.702   4.136 -0.1132  0.3528 -0.0300
   11MOL   H436 5456   4.314   3.300   4.518 -0.6059 -2.1742 -0.3270
   11MOL   H437 5457   4.378   3.309   4.679 -0.8583  0.0235  1.7724
   11MOL   H438 5458   4.285   3.049   4.687  0.7495 -0.5461 -0.0485
   11MOL   H439 5459   4.055   3.066   4.495  0.7766  0.5794  2.0711
   11MOL   H440 5460   4.133   2.916   4.565  1.4075  0.7649  0.8763
   11MOL   H441 5461   4.210   2.867   4.335 -1.2260  0.4385 -3.0247
   11MOL   H442 5462   4.092   2.984   4.266 -1.8486 -1.5283 -1.2582
   11MOL   H443 5463   4.044   2.728   4.364  1.4244  0.3250  3.1552
   11MOL   H444 5464   3.947   2.845   4.442 -0.0717 -0.2733  0.2613
   11MOL   H445 5465   3.839   2.917   4.251  2.7939  1.6781 -0.7305
   11MOL   H446 5466   3.951   2.841   4.140  1.4377  0.1543  1.1344
   11MOL   H447 5467   3.869   2.619   4.204  0.1601 -0.0793  1.0160
   11MOL   H448 5468   3.777   2.668   4.336 -0.0261  2.9190  1.4277
   11MOL   H449 5469   3.615   2.774   4.170 -0.2431 -0.1131  0.6799
   11MOL   H450 5470   3.732   2.749   4.047 -0.3563 -3.0770 -2.0107
   11MOL   H451 5471   3.661   2.600   4.112  1.2566 -0.6884  2.5207
   11MOL   C452 5472   4.473   3.078   4.581  0.0452 -0.3531 -0.2398
   11MOL   C453 5473   4.526   2.936   4.559 -0.1268 -0.1219 -0.5494
   11MOL   O454 5474   4.498   2.866   4.672  0.4389  0.2376 -0.3606
   11MOL   C455 5475   4.399   2.769   4.653  0.3441 -0.0978  0.2725
   11MOL   C456 5476   4.349   2.734   4.791 -0.6607  0.4606  0.6241
   11MOL   C457 5477   4.249   2.611   4.798  0.5744 -0.0607  0.1064
   11MOL   C458 5478   4.115   2.633   4.723 -0.0594  0.6022 -0.1114
   11MOL   C459 5479   4.005   2.529   4.754 -0.2809 -1.1571 -0.1267
   11MOL   C460 5480   3.864   2.555   4.692  0.0964  0.7814  0.2039
   11MOL   H461 5481   4.515   3.137   4.500 -0.7015  0.9238  0.3018
   11MOL   H462 5482   4.521   3.126   4.666 -0.2546  0.0143 -0.2778
   11MOL   H463 5483   4.480   2.898   4.468 -2.9857 -0.9113  1.1588
   11MOL   H464 5484   4.442   2.679   4.609  0.1596  0.0631 -0.2354
   11MOL   H465 5485   4.312   2.796   4.593  0.4158  0.7310  0.5315
   11MOL   H466 5486   4.306   2.823   4.837  1.1610  2.0621 -0.6947
   11MOL   H467 5487   4.436   2.717   4.855  0.7964  2.0113 -0.9196
   11MOL   H468 5488   4.293   2.520   4.758 -1.9895 -1.0210 -0.6315
   11MOL   H469 5489   4.226   2.589   4.902  1.5867 -1.8838 -0.0339
   11MOL   H470 5490   4.075   2.734   4.734 -1.2776  0.1727 -0.5549
   11MOL   H471 5491   4.121   2.628   4.614 -1.8130 -0.9449 -0.1721
   11MOL   H472 5492   4.045   2.429   4.736 -0.9368 -1.1386 -1.8124
   11MOL   H473 5493   3.989   2.528   4.861  0.6016  1.0333  0.0477
   11MOL   H474 5494   3.812   2.460   4.703 -0.5271  1.3209  2.0699
   11MOL   H475 5495   3.816   2.640   4.741  2.1035  0.3167  3.0789
   11MOL   H476 5496   3.872   2.579   4.586 -0.1609 -1.5361 -0.3562
   11MOL   C477 5497   4.678   2.925   4.539 -0.1285 -0.2089  0.9858
   11MOL   C478 5498   4.715   2.781   4.502  0.6873 -1.6011  0.5035
   11MOL   O479 5499   4.852   2.763   4.529  0.3498  0.2425 -0.0021
   11MOL   C480 5500   4.904   2.671   4.445 -1.0727  0.8832 -0.4757
   11MOL   C481 5501   5.060   2.670   4.449  0.0318  0.4180 -0.0715
   11MOL   C482 5502   5.120   2.675   4.592 -0.0705  0.3413  0.1574
   11MOL   C483 5503   5.140   2.536   4.661 -0.5161 -0.3055 -0.4310
   11MOL   C484 5504   5.211   2.557   4.797  0.2117  0.1635  0.3859
   11MOL   C485 5505   5.235   2.426   4.877  0.5661 -0.0246 -0.0876
   11MOL   H486 5506   4.725   2.977   4.456 -1.6379  1.8745  1.4038
   11MOL   H487 5507   4.725   2.945   4.636  0.0431 -1.5406  1.1904
   11MOL   H488 5508   4.657   2.717   4.568 -0.0002 -0.4998  0.9894
   11MOL   H489 5509   4.874   2.676   4.340  0.4162  3.3074 -0.8258
   11MOL   H490 5510   4.869   2.576   4.485  0.3029  0.9185  0.8615
   11MOL   H491 5511   5.106   2.750   4.391  1.7637  0.5355  1.4119
   11MOL   H492 5512   5.092   2.578   4.400  0.5787 -0.1907  1.4066
   11MOL   H493 5513   5.220   2.719   4.583  0.8083 -1.9395 -1.6861
   11MOL   H494 5514   5.064   2.738   4.662  1.9352 -0.6111  2.7082
   11MOL   H495 5515   5.045   2.484   4.667 -1.2233  1.0639  0.7796
   11MOL   H496 5516   5.215   2.474   4.612 -1.0207 -1.1283 -0.1614
   11MOL   H497 5517   5.307   2.608   4.787  0.1050  0.1538 -0.6968
   11MOL   H498 5518   5.140   2.615   4.856 -1.3929 -2.0926  0.7481
   11MOL   H499 5519   5.302   2.441   4.962 -1.4830 -3.1589  2.1792
   11MOL   H500 5520   5.138   2.388   4.908  1.7350 -1.5103  1.8260
   11MOL   H501 5521   5.279   2.354   4.809  0.9050 -0.8461  0.9851
   11MOL   H502 5522   4.686   2.773   4.397  2.1401  1.0633 -0.1378
   12MOL     C1 5523   0.700   7.167   1.536 -0.0960  0.4592  0.2614
   12MOL     C2 5524   0.572   7.102   1.471  0.1446 -0.3111  0.6086
   12MOL     O3 5525   0.552   6.967   1.491 -0.4887  0.6703  0.7433
   12MOL     C4 5526   0.525   6.926   1.621 -0.1473  0.0024 -0.1797
   12MOL     C5 5527   0.492   6.782   1.620  0.0631 -0.1227  0.3552
   12MOL     C6 5528   0.422   6.734   1.746 -0.4324 -0.2286 -0.3821
   12MOL     C7 5529   0.403   6.584   1.738 -0.9611 -0.2246 -0.6338
   12MOL     C8 5530   0.511   6.502   1.802 -0.3695  0.3222 -0.0718
   12MOL     C9 5531   0.519   6.510   1.958  0.1349  0.2795  0.0976
   12MOL    H10 5532   0.719   7.269   1.502  0.4522  0.7064  1.2890
   12MOL    H11 5533   0.706   7.170   1.645  1.7123 -1.9272  0.2658
   12MOL    H12 5534   0.490   7.151   1.524  0.4646 -1.4641  2.2297
   12MOL    H13 5535   0.447   6.985   1.668 -2.0846 -1.1845 -1.7887
   12MOL    H14 5536   0.615   6.949   1.677 -0.0207  1.3764 -0.9165
   12MOL    H15 5537   0.578   6.718   1.604 -0.1473 -1.3137  3.5652
   12MOL    H16 5538   0.439   6.760   1.528 -0.0213  0.3425  0.2929
   12MOL    H17 5539   0.490   6.758   1.828  2.5641 -2.2812 -2.1550
   12MOL    H18 5540   0.327   6.783   1.768  0.9673  1.5426  2.0157
   12MOL    H19 5541   0.313   6.561   1.795 -0.7087  0.8681  0.2311
   12MOL    H20 5542   0.383   6.550   1.637  2.1630 -2.1842 -0.6332
   12MOL    H21 5543   0.603   6.542   1.759  0.7798 -1.0685  1.0038
   12MOL    H22 5544   0.506   6.401   1.763  1.1002 -0.0817  0.7259
   12MOL    H23 5545   0.462   6.428   2.002  0.1324  0.6487  0.7907
   12MOL    H24 5546   0.624   6.493   1.986  0.1349  0.6041  0.2962
   12MOL    H25 5547   0.490   6.605   2.003 -1.1853 -0.1443  0.1395
   12MOL    H26 5548   0.792   7.114   1.512 -0.3425  0.5827 -0.9788
   12MOL    C27 5549   0.561   7.149   1.322  0.7378 -0.8493 -0.2716
   12MOL    C28 5550   0.413   7.146   1.278  0.4998  0.0586 -0.4015
   12MOL    O29 5551   0.350   7.239   1.361  0.4319  0.0714 -0.2403
   12MOL    C30 5552   0.220   7.204   1.397 -0.2916 -0.3326 -0.5716
   12MOL    C31 5553   0.221   7.216   1.549  0.1370  0.2076 -0.1189
   12MOL    C32 5554   0.080   7.215   1.621  0.4700 -0.5215  0.0611
   12MOL    C33 5555   0.079   7.218   1.773 -0.3060 -0.1671 -0.2845
   12MOL    C34 5556   7.724   7.260   1.836 -0.1207 -0.7343  0.6261
   12MOL    C35 5557   7.709   7.248   1.988  0.5204 -0.2096  0.1712
   12MOL    H36 5558   0.590   7.254   1.320  2.5877 -1.3336 -0.3808
   12MOL    H37 5559   0.632   7.091   1.262  2.8657  1.2353  0.1714
   12MOL    H38 5560   0.378   7.044   1.292 -1.8034  1.0145  1.2288
   12MOL    H39 5561   0.195   7.100   1.375  0.6870 -0.5738 -0.5899
   12MOL    H40 5562   0.156   7.267   1.336 -0.7643 -1.3648 -1.1554
   12MOL    H41 5563   0.266   7.313   1.572 -1.7429  1.2182 -0.5955
   12MOL    H42 5564   0.275   7.135   1.598 -3.6455 -2.5979 -0.3636
   12MOL    H43 5565   0.020   7.299   1.586  3.0058  1.0489 -0.6820
   12MOL    H44 5566   0.030   7.121   1.600 -0.3366  0.4592 -2.6933
   12MOL    H45 5567   0.125   7.128   1.813 -0.8799 -1.1976 -1.9129
   12MOL    H46 5568   0.150   7.294   1.808 -0.7796  0.9775 -1.7634
   12MOL    H47 5569   7.704   7.367   1.824 -0.6110 -0.9798 -0.8046
   12MOL    H48 5570   7.641   7.209   1.787  0.3263  1.3856 -2.5480
   12MOL    H49 5571   7.778   7.311   2.045  0.8949 -0.4011 -0.0744
   12MOL    H50 5572   7.608   7.268   2.025  0.0167 -2.2775 -0.0425
   12MOL    H51 5573   7.736   7.147   2.018  0.4839  0.2030  1.6728
   12MOL    C52 5574   0.389   7.177   1.127  0.2969 -0.3932 -1.1429
   12MOL    C53 5575   0.434   7.064   1.033 -0.2806  0.1014 -0.0813
   12MOL    O54 5576   0.384   6.935   1.062 -0.2284 -0.7357 -0.5894
   12MOL    C55 5577   0.477   6.849   1.120 -0.6488  0.0496  0.1312
   12MOL    C56 5578   0.397   6.727   1.174 -0.5050 -0.3454 -0.4574
   12MOL    C57 5579   0.491   6.618   1.223  0.1427  0.2559  0.2783
   12MOL    C58 5580   0.422   6.517   1.316 -0.0257 -0.4319 -0.1900
   12MOL    C59 5581   0.516   6.398   1.354  0.0777 -0.1917 -0.1671
   12MOL    C60 5582   0.460   6.299   1.456 -0.0029  0.3375 -0.1306
   12MOL    H61 5583   0.440   7.269   1.099 -1.6507  0.3248 -2.4438
   12MOL    H62 5584   0.281   7.187   1.120  0.1681 -1.5609 -0.9490
   12MOL    H63 5585   0.542   7.073   1.036 -0.4050  1.6553 -0.0528
   12MOL    H64 5586   0.522   6.894   1.209  0.8968 -0.8903 -0.1426
   12MOL    H65 5587   0.550   6.802   1.054  0.3081  0.3121  0.9792
   12MOL    H66 5588   0.331   6.692   1.094  0.7156  1.1055 -2.1631
   12MOL    H67 5589   0.333   6.767   1.252  0.6956  0.9710 -0.1261
   12MOL    H68 5590   0.531   6.564   1.138 -1.1972  1.9291 -1.4631
   12MOL    H69 5591   0.570   6.670   1.275  1.1900 -0.1356 -0.9074
   12MOL    H70 5592   0.383   6.569   1.404  0.7738  1.0192 -0.6720
   12MOL    H71 5593   0.333   6.481   1.264 -1.3033  0.7035  1.1715
   12MOL    H72 5594   0.537   6.338   1.266 -2.5592  0.0995 -1.0335
   12MOL    H73 5595   0.609   6.443   1.390  0.1342 -0.0396 -0.5032
   12MOL    H74 5596   0.370   6.247   1.425 -0.5682  0.2659  1.5835
   12MOL    H75 5597   0.532   6.218   1.463  1.1817  1.2094 -1.8451
   12MOL    H76 5598   0.441   6.347   1.552  0.9700  1.3957 -0.4545
   12MOL    C77 5599   0.391   7.090   0.884 -0.3425  0.8135  0.7621
   12MOL    C78 5600   0.468   7.005   0.787 -0.0955  0.8725  0.1503
   12MOL    O79 5601   0.605   7.046   0.793 -0.0894 -0.3039 -0.0163
   12MOL    C80 5602   0.699   6.947   0.740 -0.2635 -0.1351  0.0134
   12MOL    C81 5603   0.840   7.013   0.746  0.3486 -0.1303 -0.1134
   12MOL    C82 5604   0.961   6.920   0.763  0.4648  0.4613 -0.4532
   12MOL    C83 5605   1.089   7.004   0.789 -0.1570 -0.3948 -0.0266
   12MOL    C84 5606   1.171   7.015   0.660 -0.2392 -0.0990  0.0951
   12MOL    C85 5607   1.092   7.096   0.540  0.2017  0.6482 -0.0422
   12MOL    H86 5608   0.402   7.193   0.851 -0.8339  1.3629  2.2774
   12MOL    H87 5609   0.284   7.070   0.884 -0.1711 -0.2454 -0.3166
   12MOL    H88 5610   0.450   6.900   0.814 -1.5273  0.6802 -1.4662
   12MOL    H89 5611   0.675   6.908   0.641 -2.7105 -0.8884  0.8642
   12MOL    H90 5612   0.708   6.865   0.811  1.8989  2.0658  2.3908
   12MOL    H91 5613   0.840   7.081   0.831  0.0878 -0.6269  0.2906
   12MOL    H92 5614   0.851   7.085   0.666 -0.4095  1.8230  1.4974
   12MOL    H93 5615   0.943   6.865   0.855  2.2223 -0.5127 -0.6735
   12MOL    H94 5616   0.967   6.855   0.676 -1.0793  0.9584 -0.9350
   12MOL    H95 5617   1.063   7.101   0.832  0.5108 -0.0914 -0.3045
   12MOL    H96 5618   1.147   6.946   0.860  0.6182  0.4512  0.0367
   12MOL    H97 5619   1.262   7.074   0.675 -0.5407 -0.3049  2.9252
   12MOL    H98 5620   1.200   6.916   0.625  1.2026 -0.3397  1.8906
   12MOL    H99 5621   1.015   7.030   0.500  0.4244  0.6388 -0.4527
   12MOL   H100 5622   1.056   7.189   0.585 -1.9125 -0.4145  0.5398
   12MOL   H101 5623   1.163   7.133   0.467  1.4387  0.7584  1.2034
   12MOL   C102 5624   0.419   7.012   0.644  0.8625 -0.9067 -0.4105
   12MOL   C103 5625   0.267   7.019   0.608  0.2626  0.4955 -0.0959
   12MOL   O104 5626   0.201   6.907   0.673 -0.0594  0.0796 -0.2170
   12MOL   C105 5627   0.163   6.793   0.596  0.5607  1.0378  0.0344
   12MOL   C106 5628   0.114   6.678   0.686  0.3299 -0.1588 -0.3776
   12MOL   C107 5629   0.214   6.628   0.787  0.3856 -0.5880 -0.6222
   12MOL   C108 5630   0.159   6.508   0.877 -0.7963 -0.3261 -0.5593
   12MOL   C109 5631   0.278   6.434   0.944 -0.2843  0.6382 -0.7612
   12MOL   C110 5632   0.217   6.299   1.013 -0.0697  0.2933  0.3794
   12MOL   H111 5633   0.461   7.105   0.606  0.6273 -0.8006 -0.4109
   12MOL   H112 5634   0.460   6.930   0.585  1.1530 -1.2417  0.2500
   12MOL   H113 5635   0.251   6.999   0.502 -0.7986 -1.9736  0.4993
   12MOL   H114 5636   0.254   6.764   0.542 -1.0594 -3.0064 -0.7200
   12MOL   H115 5637   0.094   6.826   0.518 -1.3466  1.7664  1.9910
   12MOL   H116 5638   0.059   6.601   0.631 -0.9297  0.9145 -0.6606
   12MOL   H117 5639   0.031   6.713   0.747 -0.6257 -1.5357 -0.8615
   12MOL   H118 5640   0.302   6.605   0.726  0.9842  1.1521 -0.4376
   12MOL   H119 5641   0.235   6.710   0.855  0.9867 -1.1620 -0.1123
   12MOL   H120 5642   0.095   6.540   0.959 -0.0832 -2.7877  1.0073
   12MOL   H121 5643   0.114   6.423   0.825 -0.0318 -0.7588 -0.5111
   12MOL   H122 5644   0.357   6.414   0.871 -0.9411 -0.1287 -1.2760
   12MOL   H123 5645   0.329   6.484   1.026  0.2202 -1.8413  0.4829
   12MOL   H124 5646   0.151   6.322   1.097 -0.1973  0.3453  0.2658
   12MOL   H125 5647   0.167   6.242   0.935  1.7651 -0.4019 -0.2998
   12MOL   H126 5648   0.299   6.235   1.047  0.9385 -0.1122 -2.7289
   12MOL   C127 5649   0.184   7.148   0.639 -0.2499 -0.2841 -0.4888
   12MOL   C128 5650   0.102   7.210   0.521 -0.2517 -0.9105  0.0226
   12MOL   O129 5651   0.153   7.328   0.469 -0.3084  0.0017 -1.1705
   12MOL   C130 5652   0.290   7.314   0.425  0.1125 -0.2519 -0.2063
   12MOL   C131 5653   0.329   7.400   0.302  0.1997 -0.6357  0.2110
   12MOL   C132 5654   0.258   7.373   0.168  0.7579  1.2736 -0.2906
   12MOL   C133 5655   0.292   7.467   0.053 -0.1455  1.0889 -0.0904
   12MOL   C134 5656   0.255   7.411   7.695 -0.1246  1.1837 -0.2029
   12MOL   C135 5657   0.097   7.414   7.676 -0.2928 -0.4368  0.1121
   12MOL   H136 5658   0.124   7.121   0.726  2.0234 -1.8793  0.6491
   12MOL   H137 5659   0.254   7.224   0.674 -0.2508 -0.9609  1.0168
   12MOL   H138 5660   0.110   7.139   0.439  1.0055  0.0537 -0.7161
   12MOL   H139 5661   0.315   7.211   0.400  1.3845 -0.7062  2.7974
   12MOL   H140 5662   0.348   7.359   0.505 -2.4689  2.7179  0.1162
   12MOL   H141 5663   0.436   7.397   0.281 -0.0751 -0.8286 -1.2140
   12MOL   H142 5664   0.301   7.503   0.321 -0.8134 -0.7790 -0.4912
   12MOL   H143 5665   0.278   7.271   0.137  0.0303  0.6533  1.1847
   12MOL   H144 5666   0.149   7.375   0.180  0.5944 -0.4870 -1.3693
   12MOL   H145 5667   0.241   7.560   0.076 -0.5035  0.7399  0.5303
   12MOL   H146 5668   0.399   7.489   0.057  0.0963  0.7092 -3.3001
   12MOL   H147 5669   0.294   7.475   7.616 -0.7170  3.4080  1.2661
   12MOL   H148 5670   0.301   7.313   7.685  2.4051  2.2656  0.2487
   12MOL   H149 5671   0.038   7.374   7.759 -1.0483  0.8940  0.2254
   12MOL   H150 5672   0.063   7.517   7.665 -1.0012 -0.6311  0.4433
   12MOL   H151 5673   0.072   7.359   7.585 -0.3959 -1.2970  0.6496
   12MOL   C152 5674   7.730   7.217   0.554  0.2067 -0.2221 -0.1914
   12MOL   C153 5675   7.645   7.088   0.541 -0.7210 -0.4784 -0.2035
   12MOL   O154 5676   7.514   7.127   0.583  0.1761 -0.2346 -0.8389
   12MOL   C155 5677   7.491   7.107   0.730 -0.3336  0.1231  0.0605
   12MOL   C156 5678   7.366   7.176   0.771 -0.2853 -0.1430  0.5945
   12MOL   C157 5679   7.333   7.169   0.915  0.9561 -0.3186  0.0361
   12MOL   C158 5680   7.252   7.040   0.948 -0.3181  0.5020  0.4957
   12MOL   C159 5681   7.254   6.998   1.092 -0.4921 -0.3782  0.0754
   12MOL   C160 5682   7.163   6.875   1.129  0.5515  0.0377  0.1657
   12MOL   H161 5683   7.720   7.267   0.651  2.0812 -0.2250  0.0098
   12MOL   H162 5684   7.679   7.287   0.488  0.1829  0.0993  0.1617
   12MOL   H163 5685   7.693   7.003   0.589 -1.2714  0.4694  2.0869
   12MOL   H164 5686   7.578   7.146   0.782 -1.4728  1.6622  0.8448
   12MOL   H165 5687   7.489   6.999   0.745 -2.3521  0.0750 -0.3786
   12MOL   H166 5688   7.284   7.134   0.712  0.8589  0.5229 -1.5101
   12MOL   H167 5689   7.377   7.282   0.749 -2.5906  0.5165  2.4122
   12MOL   H168 5690   7.429   7.178   0.966  1.8161  0.2555 -1.6600
   12MOL   H169 5691   7.276   7.260   0.937  1.0831  0.5208 -2.9297
   12MOL   H170 5692   7.157   7.043   0.895  1.1650 -1.4818 -2.4995
   12MOL   H171 5693   7.306   6.958   0.898  1.0813  3.2999 -2.8280
   12MOL   H172 5694   7.358   6.994   1.125  0.4247  1.5558 -2.3796
   12MOL   H173 5695   7.206   7.082   1.142  2.5951  0.3206  2.0271
   12MOL   H174 5696   7.060   6.907   1.112  0.2802 -2.1169 -2.5428
   12MOL   H175 5697   7.175   6.800   1.051  2.3038  0.4789 -0.0271
   12MOL   H176 5698   7.168   6.838   1.232  0.7168 -1.4078 -0.3519
   12MOL   C177 5699   7.630   7.041   0.390 -0.6726  0.3483  0.5360
   12MOL   C178 5700   7.539   6.927   0.353  0.0246 -0.4128 -0.4426
   12MOL   O179 5701   7.547   6.892   0.220  0.2383  0.7256  1.0275
   12MOL   C180 5702   7.488   6.978   0.127  0.3644 -0.3037  1.0520
   12MOL   C181 5703   7.524   6.933   7.764 -0.4701  0.4477 -0.6701
   12MOL   C182 5704   7.456   6.795   7.721 -0.7036 -0.1196 -0.7740
   12MOL   C183 5705   7.511   6.739   7.593 -0.4106  0.6703  0.1311
   12MOL   C184 5706   7.488   6.590   7.558 -0.1879  0.6462 -0.4053
   12MOL   C185 5707   7.344   6.560   7.546 -0.1976  0.2767 -0.0163
   12MOL   H186 5708   7.594   7.133   0.344 -0.7073  1.0378  1.9020
   12MOL   H187 5709   7.729   7.025   0.347 -0.7386  0.2678  0.4130
   12MOL   H188 5710   7.439   6.968   0.367  1.8595  3.7647  1.1929
   12MOL   H189 5711   7.512   7.081   0.152 -0.2980  0.2632 -0.5679
   12MOL   H190 5712   7.379   6.977   0.135  0.1251  0.6732 -1.5921
   12MOL   H191 5713   7.630   6.907   7.763 -0.9125 -1.7003  1.9264
   12MOL   H192 5714   7.517   7.015   7.693  3.7260  0.8697 -0.7179
   12MOL   H193 5715   7.469   6.719   0.019  0.6366  0.4422 -0.4099
   12MOL   H194 5716   7.349   6.815   7.721 -1.1241 -2.2429 -2.0860
   12MOL   H195 5717   7.474   6.808   7.517 -1.0432  0.0925 -0.0983
   12MOL   H196 5718   7.619   6.755   7.594 -0.4081  0.6428  0.2751
   12MOL   H197 5719   7.525   6.569   7.458  1.1031  0.1747  0.1571
   12MOL   H198 5720   7.543   6.522   7.625  1.2378  0.6779 -1.5241
   12MOL   H199 5721   7.272   6.627   7.498 -0.1435  0.1019 -0.3410
   12MOL   H200 5722   7.338   6.458   7.510  0.7263 -0.8049  2.7590
   12MOL   H201 5723   7.289   6.556   7.640  0.8481  0.2134  0.6058
   12MOL   C202 5724   7.570   6.792   0.437  0.2721  0.4511  0.0663
   12MOL   C203 5725   7.471   6.677   0.431 -0.2339 -0.2196  1.0479
   12MOL   O204 5726   7.514   6.571   0.517  0.3011  0.5123  0.1182
   12MOL   C205 5727   7.458   6.571   0.644 -0.2951 -0.2518 -0.3545
   12MOL   C206 5728   7.332   6.498   0.660 -0.6586 -0.1474 -0.4043
   12MOL   C207 5729   7.295   6.518   0.809 -0.3834 -0.2364  0.0955
   12MOL   C208 5730   7.149   6.475   0.841 -0.5993 -0.3641  0.4975
   12MOL   C209 5731   7.029   6.553   0.780 -0.3429 -0.3320 -0.4626
   12MOL   C210 5732   6.894   6.515   0.851 -0.4043 -0.6060 -0.4962
   12MOL   H211 5733   7.668   6.762   0.400 -0.1683 -1.3583  0.3192
   12MOL   H212 5734   7.590   6.824   0.539 -0.3818  1.8349 -0.2264
   12MOL   H213 5735   7.368   6.711   0.440 -0.9015 -1.7172 -0.7073
   12MOL   H214 5736   7.447   6.675   0.673  3.3365  0.2328 -0.4432
   12MOL   H215 5737   7.528   6.531   0.717 -1.8564 -0.4355  1.0818
   12MOL   H216 5738   7.343   6.391   0.645 -2.7268 -0.5556  0.7916
   12MOL   H217 5739   7.255   6.530   0.590  0.6635  1.9806 -0.9362
   12MOL   H218 5740   7.363   6.456   0.868  0.2977  0.3939 -0.0310
   12MOL   H219 5741   7.289   6.624   0.831 -1.1398  0.0748 -1.5615
   12MOL   H220 5742   7.135   6.368   0.825  0.7272 -0.6015  0.9267
   12MOL   H221 5743   7.140   6.497   0.947 -0.3299  1.1852  0.2199
   12MOL   H222 5744   7.044   6.658   0.806 -1.7876  0.1451 -1.4587
   12MOL   H223 5745   7.018   6.541   0.672 -0.3591 -3.1864 -0.1742
   12MOL   H224 5746   6.888   6.411   0.884 -0.5758 -0.4901 -0.1585
   12MOL   H225 5747   6.877   6.570   0.944  0.2179 -0.1735 -0.6312
   12MOL   H226 5748   6.813   6.547   0.785 -0.5861  0.5692  0.2744
   12MOL   C227 5749   7.467   6.614   0.295  0.5365  0.8728 -0.6954
   12MOL   C228 5750   7.370   6.496   0.275  0.3463 -0.2178  0.1882
   12MOL   O229 5751   7.243   6.550   0.296  0.1529  0.5307  0.1054
   12MOL   C230 5752   7.143   6.450   0.308  0.4850 -0.6150 -0.0189
   12MOL   C231 5753   7.022   6.524   0.372  0.4014  0.3759  0.2905
   12MOL   C232 5754   6.896   6.443   0.410 -0.5304  0.2221 -0.2842
   12MOL   C233 5755   6.759   6.508   0.411 -0.4615 -0.3799  0.0137
   12MOL   C234 5756   6.653   6.398   0.388 -0.1003 -0.0044 -0.3110
   12MOL   C235 5757   6.515   6.453   0.423  0.3829 -0.0243  0.0415
   12MOL   H236 5758   7.435   6.689   0.222 -0.7897 -0.5528 -1.6175
   12MOL   H237 5759   7.567   6.587   0.262  0.4553  0.3635 -0.5223
   12MOL   H238 5760   7.387   6.416   0.346 -0.3548 -1.3196 -0.8601
   12MOL   H239 5761   7.173   6.366   0.370 -1.4668 -1.0363  0.3591
   12MOL   H240 5762   7.112   6.412   0.211  0.3109  0.1054 -0.2489
   12MOL   H241 5763   6.981   6.594   0.300  0.4404 -2.9847 -3.1289
   12MOL   H242 5764   7.067   6.575   0.458  1.6926 -1.1203  0.5255
   12MOL   H243 5765   6.905   6.362   0.339 -0.0830 -0.2662  0.3236
   12MOL   H244 5766   6.912   6.388   0.503  1.3091  0.9922 -0.1260
   12MOL   H245 5767   6.747   6.550   0.511  0.6454 -0.7596  0.3203
   12MOL   H246 5768   6.756   6.591   0.339 -0.1226  1.5375  2.1464
   12MOL   H247 5769   6.641   6.365   0.284 -0.1647  4.1233 -1.6909
   12MOL   H248 5770   6.679   6.311   0.447  0.3116 -2.0492 -3.3836
   12MOL   H249 5771   6.504   6.553   0.380  0.6202  0.9435  2.1548
   12MOL   H250 5772   6.436   6.382   0.400  1.7117 -1.1272 -1.2552
   12MOL   H251 5773   6.511   6.470   0.531  2.9844 -1.3598  0.3992
   12MOL   C252 5774   7.392   6.437   0.130 -0.3290 -0.0615  0.1834
   12MOL   C253 5775   7.408   6.287   0.128  0.0276 -0.4320 -0.2111
   12MOL   O254 5776   7.297   6.224   0.192 -0.5154 -0.3107 -0.0888
   12MOL   C255 5777   7.213   6.153   0.106 -0.4144  0.2486  0.2961
   12MOL   C256 5778   7.085   6.097   0.178 -0.6896  0.4714 -0.2170
   12MOL   C257 5779   7.021   5.974   0.106 -0.6719 -0.2897 -0.6026
   12MOL   C258 5780   6.889   5.920   0.172 -0.1286 -0.2822  0.2678
   12MOL   C259 5781   6.807   5.849   0.065 -0.0570 -0.6631 -0.3169
   12MOL   C260 5782   6.868   5.718   0.012 -0.5280 -0.8055 -0.0882
   12MOL   H261 5783   7.300   6.468   0.080  1.5264  2.7346 -1.5997
   12MOL   H262 5784   7.471   6.482   0.070 -0.5061  0.2273  0.1648
   12MOL   H263 5785   7.419   6.248   0.027 -1.2933 -3.5548  0.8035
   12MOL   H264 5786   7.268   6.066   0.068 -2.3036 -1.2534  0.9495
   12MOL   H265 5787   7.172   6.213   0.025  1.0775 -1.0281 -1.4541
   12MOL   H266 5788   7.004   6.169   0.188  0.3215  1.6312 -0.3706
   12MOL   H267 5789   7.126   6.067   0.275  1.9624  2.4702 -0.6710
   12MOL   H268 5790   7.008   6.016   0.006  0.5226  0.1117 -0.6045
   12MOL   H269 5791   7.090   5.890   0.105 -2.5210 -1.8608  1.0221
   12MOL   H270 5792   6.912   5.859   0.259 -2.9579 -0.6166  0.8332
   12MOL   H271 5793   6.823   6.002   0.200  1.9708  1.7222 -0.5074
   12MOL   H272 5794   6.714   5.817   0.111  0.5468  0.3218  1.6581
   12MOL   H273 5795   6.779   5.920   7.765  3.1091  0.1522 -0.7700
   12MOL   H274 5796   6.803   5.687   7.709 -0.6379  1.6119 -0.9415
   12MOL   H275 5797   6.970   5.732   7.754 -0.8876  3.2146  0.1878
   12MOL   H276 5798   6.871   5.642   0.090  1.1565 -1.0558 -0.3685
   12MOL   C277 5799   7.535   6.238   0.193 -0.1301  0.3750  0.7710
   12MOL   C278 5800   7.669   6.265   0.109  0.2630 -0.7907 -0.9065
   12MOL   O279 5801   7.699   6.405   0.139 -0.4328  0.2449  0.2453
   12MOL   C280 5802   0.005   6.478   0.048  0.6357  0.2550  0.6086
   12MOL   C281 5803   7.776   6.619   0.108 -0.2441  0.0100  0.8642
   12MOL   C282 5804   0.114   6.708   0.071  0.3055 -0.4324  0.2891
   12MOL   C283 5805   0.111   6.845   0.136 -0.1149  0.2156  0.2233
   12MOL   C284 5806   0.226   6.943   0.111  0.0026 -0.4318 -0.5719
   12MOL   C285 5807   0.209   7.026   7.761 -0.5247  0.3070 -0.5222
   12MOL   H286 5808   7.539   6.279   0.293 -2.9652 -0.5459  1.2981
   12MOL   H287 5809   7.519   6.130   0.198 -0.1279  0.3797  0.8604
   12MOL   H288 5810   7.663   6.259   0.000  1.7988 -0.2330 -1.0413
   12MOL   H289 5811   7.740   6.462   7.727 -1.3814 -2.4130  1.8303
   12MOL   H290 5812   0.108   6.441   0.042  0.7777  0.8947 -1.1648
   12MOL   H291 5813   7.767   6.608   0.216  1.7509  0.6832  1.1126
   12MOL   H292 5814   7.686   6.670   0.072  1.0438 -0.3207 -3.0279
   12MOL   H293 5815   0.207   6.664   0.105  2.2184  4.0357  1.1777
   12MOL   H294 5816   0.116   6.719   7.741 -0.7815  0.8373  0.3774
   12MOL   H295 5817   0.011   6.887   0.128 -0.1780 -0.0665 -0.5033
   12MOL   H296 5818   0.116   6.819   0.242 -1.3307 -1.0475 -0.0199
   12MOL   H297 5819   0.228   7.013   0.194  1.1524 -1.6982  0.4658
   12MOL   H298 5820   0.318   6.885   0.114 -0.3248 -0.9490 -0.5002
   12MOL   H299 5821   0.215   6.962   7.673  2.5857  0.3451 -0.3938
   12MOL   H300 5822   0.116   7.082   7.754  0.2698  1.7844  0.2594
   12MOL   H301 5823   0.296   7.091   7.746 -1.3346  0.8262 -3.3062
   12MOL   C302 5824   7.778   6.172   0.152 -0.0915  0.0999 -0.5430
   12MOL   C303 5825   0.037   6.070   0.036  0.2054  0.1557 -0.8704
   12MOL   O304 5826   0.131   5.980   0.093 -0.1672  0.8171  0.0247
   12MOL   C305 5827   0.065   5.875   0.160  0.6916 -0.8305 -0.3905
   12MOL   C306 5828   0.170   5.782   0.225  0.1038  0.5896  0.5999
   12MOL   C307 5829   0.107   5.659   0.301  0.4798  0.1144 -0.6199
   12MOL   C308 5830   0.216   5.544   0.333  0.5205 -0.6691  0.2970
   12MOL   C309 5831   0.137   5.424   0.374  0.3088  0.5295 -0.3559
   12MOL   C310 5832   0.230   5.312   0.428  0.8246 -0.1000 -0.3342
   12MOL   H311 5833   0.093   6.226   0.165  1.3050 -2.1061 -1.1170
   12MOL   H312 5834   7.756   6.137   0.253 -1.4168 -1.3502 -1.3098
   12MOL   H313 5835   7.727   6.019   7.775  2.4954 -1.0957 -4.6340
   12MOL   H314 5836   7.770   5.819   0.102 -1.2762  3.6790 -2.5381
   12MOL   H315 5837   0.013   5.928   0.240  3.0038  2.4226 -0.9484
   12MOL   H316 5838   0.238   5.834   0.292 -0.0744 -0.7346  1.8459
   12MOL   H317 5839   0.226   5.737   0.143  0.7579 -0.6158  1.6815
   12MOL   H318 5840   0.072   5.688   0.400  2.1574 -1.0843  0.3660
   12MOL   H319 5841   0.017   5.618   0.255  0.0448  0.7365 -0.3194
   12MOL   H320 5842   0.257   5.508   0.239  0.8293 -2.2300  1.0042
   12MOL   H321 5843   0.290   5.574   0.407  0.8055  0.8620 -0.6047
   12MOL   H322 5844   0.064   5.449   0.451  0.3061 -0.8504  0.1148
   12MOL   H323 5845   0.072   5.385   0.296  1.8053 -0.0395 -1.3454
   12MOL   H324 5846   0.307   5.300   0.353  0.2846 -2.4378 -0.5725
   12MOL   H325 5847   0.283   5.350   0.516 -1.9824  2.8194  0.1966
   12MOL   H326 5848   0.176   5.218   0.443 -2.5359  1.0305 -4.2212
   12MOL   C327 5849   0.129   6.125   7.710  0.1311  0.0926 -0.5097
   12MOL   C328 5850   0.170   6.031   7.586  0.2041 -0.0677  0.3882
   12MOL   O329 5851   0.056   6.027   7.496  0.1576 -0.2470  0.2110
   12MOL   C330 5852   7.773   5.902   7.480 -0.1796 -0.0334 -0.8427
   12MOL   C331 5853   7.636   5.902   7.410 -0.1750 -0.1263  0.8700
   12MOL   C332 5854   7.531   5.948   7.507  0.9791  0.0225 -0.3043
   12MOL   C333 5855   7.389   5.947   7.443 -0.0127  0.1337 -0.1457
   12MOL   C334 5856   7.279   5.952   7.549  0.1489  0.2299 -0.3048
   12MOL   C335 5857   7.139   5.978   7.488  0.0480  0.4173 -0.6738
   12MOL   H336 5858   0.215   6.168   7.762 -0.8591  0.3576  0.9223
   12MOL   H337 5859   0.077   6.212   7.668  1.1659  0.4933 -0.9837
   12MOL   H338 5860   0.205   5.933   7.619 -2.4013 -1.0122  0.4519
   12MOL   H339 5861   7.767   5.853   7.577 -0.9251 -0.5371 -1.1425
   12MOL   H340 5862   0.055   5.824   7.433  0.2433 -1.7697  2.4212
   12MOL   H341 5863   7.615   5.798   7.385  0.7176 -0.1581  0.2182
   12MOL   H342 5864   7.653   5.956   7.317  0.4321 -1.5772  0.1149
   12MOL   H343 5865   7.536   5.887   7.597 -0.7552  1.3056  0.7175
   12MOL   H344 5866   7.545   6.048   7.548 -0.7932  0.3540 -0.4364
   12MOL   H345 5867   7.372   6.034   7.379  0.8609  0.4200  0.0124
   12MOL   H346 5868   7.369   5.859   7.382 -1.6195 -0.8969  1.7934
   12MOL   H347 5869   7.283   5.856   7.601  0.1064  1.1026  1.3391
   12MOL   H348 5870   7.297   6.032   7.621 -1.5935  0.2586  0.1274
   12MOL   H349 5871   7.063   5.946   7.560 -0.7097 -1.0341 -2.0848
   12MOL   H350 5872   7.128   6.084   7.469  0.0026  0.4212 -0.6262
   12MOL   H351 5873   7.131   5.919   7.397  2.4245  0.8551 -1.2072
   12MOL   C352 5874   0.301   6.076   7.519  0.6988  0.3891  0.1338
   12MOL   C353 5875   0.436   6.027   7.573  0.5214  0.1357 -0.3750
   12MOL   O354 5876   0.463   6.096   7.700  0.5661 -0.9311  0.4447
   12MOL   C355 5877   0.471   6.014   0.043  0.2080  0.2809  0.0781
   12MOL   C356 5878   0.513   6.091   0.170  0.3175  0.1349  0.0089
   12MOL   C357 5879   0.396   6.188   0.213 -0.3766  0.2039  0.6653
   12MOL   C358 5880   0.425   6.276   0.335  0.0941  0.3686 -0.3339
   12MOL   C359 5881   0.313   6.362   0.392 -0.1104 -0.2654 -1.0879
   12MOL   C360 5882   0.275   6.490   0.318  0.3305 -0.3917  0.4297
   12MOL   H361 5883   0.292   6.032   7.420  1.0308  0.0078  0.2714
   12MOL   H362 5884   0.304   6.185   7.515  1.3405  0.3478 -0.6977
   12MOL   H363 5885   0.439   5.920   7.592 -2.0041 -0.0426 -0.8060
   12MOL   H364 5886   0.544   5.936   0.024 -0.4798 -0.1437 -0.8698
   12MOL   H365 5887   0.373   5.967   0.048  0.9531 -1.2996  0.0282
   12MOL   H366 5888   0.602   6.153   0.164  0.0002  0.5466 -0.5141
   12MOL   H367 5889   0.526   6.029   0.259  0.7307 -0.5263 -0.5165
   12MOL   H368 5890   0.380   6.256   0.130 -0.3837  0.1438  0.6175
   12MOL   H369 5891   0.300   6.140   0.232 -0.7334 -0.6786 -2.9632
   12MOL   H370 5892   0.453   6.207   0.415  1.1363  0.5786 -0.5048
   12MOL   H371 5893   0.514   6.339   0.326  1.3082 -1.4684 -1.6928
   12MOL   H372 5894   0.223   6.300   0.390 -0.3865  0.0379  0.8595
   12MOL   H373 5895   0.347   6.390   0.492  0.8615 -0.5878 -1.3240
   12MOL   H374 5896   0.361   6.555   0.328  1.3231 -1.2212 -2.1549
   12MOL   H375 5897   0.239   6.485   0.215  0.5086  0.3229  0.3319
   12MOL   H376 5898   0.199   6.550   0.369  0.7537  1.8380 -1.4686
   12MOL   C377 5899   0.551   6.070   7.490 -0.1405 -0.0799  0.1517
   12MOL   C378 5900   0.691   6.026   7.539 -0.0031  0.0794  0.3058
   12MOL   O379 5901   0.781   6.057   7.437  0.2364 -0.3996 -0.6317
   12MOL   C380 5902   0.841   6.188   7.438 -0.0764 -0.2066  0.0693
   12MOL   C381 5903   0.949   6.197   7.325 -0.2499 -0.0800  0.0508
   12MOL   C382 5904   1.058   6.299   7.358 -0.4924  0.1723  0.6112
   12MOL   C383 5905   1.186   6.290   7.268  0.1977 -0.0983 -0.1043
   12MOL   C384 5906   1.280   6.159   7.284 -0.2099 -0.5463  0.7733
   12MOL   C385 5907   1.347   6.153   7.422 -0.6065  0.2615 -0.1124
   12MOL   H386 5908   0.527   6.022   7.395 -0.5245  1.7089 -0.6612
   12MOL   H387 5909   0.550   6.177   7.472  1.1853 -0.1647 -0.5136
   12MOL   H388 5910   0.726   6.070   7.633  3.1370 -2.0751  0.2189
   12MOL   H389 5911   0.891   6.208   7.533  0.7950 -0.0422 -0.4127
   12MOL   H390 5912   0.778   6.275   7.422  1.2664  0.8712  0.5255
   12MOL   H391 5913   0.906   6.212   7.226 -0.8937 -2.1191 -0.0006
   12MOL   H392 5914   1.003   6.103   7.318 -0.9837 -0.6256  1.5939
   12MOL   H393 5915   1.004   6.394   7.355 -2.4324 -0.9149  0.1051
   12MOL   H394 5916   1.089   6.273   7.459  1.1077  2.2440  0.6925
   12MOL   H395 5917   1.154   6.315   7.167 -1.8081 -1.7830  0.0707
   12MOL   H396 5918   1.237   6.382   7.294  0.0340  0.0277 -0.2328
   12MOL   H397 5919   1.222   6.069   7.267  0.5759 -0.6317 -1.6062
   12MOL   H398 5920   1.359   6.163   7.209 -1.7044 -0.5736 -0.8224
   12MOL   H399 5921   1.361   6.255   7.457 -0.8378  0.0765  0.5149
   12MOL   H400 5922   1.292   6.103   7.501  0.1471  0.9623  0.8610
   12MOL   H401 5923   1.447   6.110   7.417 -0.1023  1.4892 -0.7563
   12MOL   C402 5924   0.709   5.874   7.544 -0.5837  0.4525  1.0528
   12MOL   C403 5925   0.851   5.823   7.567 -0.0293 -0.2581 -0.7069
   12MOL   O404 5926   0.859   5.694   7.507  0.5154  1.0389 -0.5411
   12MOL   C405 5927   0.867   5.680   7.368 -0.1575  0.3424 -0.0457
   12MOL   C406 5928   0.832   5.533   7.332  0.1879 -0.2440  0.8140
   12MOL   C407 5929   0.701   5.489   7.400 -0.1647  0.1227 -0.3554
   12MOL   C408 5930   0.614   5.409   7.296 -0.2921 -0.1934  0.2498
   12MOL   C409 5931   0.500   5.330   7.345  0.2487 -0.7474  0.1770
   12MOL   C410 5932   0.420   5.262   7.231 -0.0781 -0.1478 -0.2695
   12MOL   H411 5933   0.669   5.844   7.447  0.5966  0.8806  0.4200
   12MOL   H412 5934   0.648   5.829   7.622 -0.0269 -1.1609  0.5814
   12MOL   H413 5935   0.925   5.889   7.521  1.5587 -0.9236  0.8367
   12MOL   H414 5936   0.963   5.708   7.325 -0.7033 -1.4990 -2.5732
   12MOL   H415 5937   0.797   5.743   7.312  0.4991  0.5127 -0.6831
   12MOL   H416 5938   0.921   5.487   7.376  1.3877  1.5916  0.3452
   12MOL   H417 5939   0.845   5.513   7.225  1.6187  0.6301  0.8085
   12MOL   H418 5940   0.730   5.445   7.495 -1.3733  0.6808  0.2831
   12MOL   H419 5941   0.643   5.578   7.425  1.0562  0.2359  2.1089
   12MOL   H420 5942   0.575   5.476   7.219  1.5609 -0.9507 -1.3943
   12MOL   H421 5943   0.672   5.344   7.230 -1.0721 -0.0481 -0.6014
   12MOL   H422 5944   0.543   5.251   7.407  4.2007 -1.4831 -3.2730
   12MOL   H423 5945   0.443   5.411   7.390  2.0608  1.6640 -1.7261
   12MOL   H424 5946   0.340   5.199   7.269 -2.7759  3.0903 -0.3025
   12MOL   H425 5947   0.375   5.332   7.160  0.2724 -1.9920 -2.3503
   12MOL   H426 5948   0.478   5.187   7.178 -1.2747  0.1147 -1.9973
   12MOL   C427 5949   0.879   5.790   7.720 -0.9186  0.2025 -0.8382
   12MOL   C428 5950   0.892   5.906   0.044 -0.0673 -0.1307 -0.5349
   12MOL   O429 5951   0.908   5.839   0.175  0.2484  0.0673  0.1561
   12MOL   C430 5952   0.805   5.862   0.268  0.4584  0.2175  0.0012
   12MOL   C431 5953   0.852   5.809   0.405 -0.5139  1.0085  0.6163
   12MOL   C432 5954   0.754   5.843   0.516 -0.1049 -0.1281 -0.5700
   12MOL   C433 5955   0.732   5.987   0.531  0.7348 -0.0773 -0.8327
   12MOL   C434 5956   0.625   6.013   0.642 -0.6144  0.0023 -0.4255
   12MOL   C435 5957   0.615   6.168   0.673 -0.4100  0.1368  0.8597
   12MOL   H436 5958   0.806   5.722   7.762  0.7156 -2.2770 -1.8693
   12MOL   H437 5959   0.969   5.730   7.721 -0.9378  0.1776 -0.6878
   12MOL   H438 5960   0.804   5.971   0.046 -2.4371 -3.2431  3.0021
   12MOL   H439 5961   0.721   5.805   0.229  0.5129  0.8564 -1.1031
   12MOL   H440 5962   0.785   5.970   0.267 -2.6977 -0.2807 -2.6440
   12MOL   H441 5963   0.949   5.852   0.430 -0.2651  0.3376  0.8127
   12MOL   H442 5964   0.866   5.703   0.382 -0.0820  1.7654 -2.9304
   12MOL   H443 5965   0.658   5.795   0.501 -0.8856  0.8767  1.1310
   12MOL   H444 5966   0.789   5.795   0.608 -0.9273 -0.2549 -0.3238
   12MOL   H445 5967   0.819   6.050   0.550 -1.3991  3.4402 -2.2496
   12MOL   H446 5968   0.693   6.025   0.436  1.6645 -1.9195 -1.9781
   12MOL   H447 5969   0.528   5.979   0.605 -0.6207  0.8593 -1.2107
   12MOL   H448 5970   0.656   5.963   0.734 -2.8341  0.5293  0.6441
   12MOL   H449 5971   0.533   6.192   0.741 -0.2443  0.3042  1.0008
   12MOL   H450 5972   0.702   6.216   0.719 -0.5724  3.3454 -2.0080
   12MOL   H451 5973   0.609   6.211   0.574  0.8397  1.4712  1.3423
   12MOL   C452 5974   1.016   5.999   0.023 -0.3569  0.2479 -0.0243
   12MOL   C453 5975   1.031   6.125   0.119 -0.2135 -0.0731 -0.0469
   12MOL   O454 5976   0.927   6.215   0.080 -0.1046  0.2574 -0.4672
   12MOL   C455 5977   0.869   6.305   0.174 -0.0122 -0.5403  0.7147
   12MOL   C456 5978   0.761   6.387   0.096  0.2190 -0.2387 -0.3969
   12MOL   C457 5979   0.828   6.503   0.019 -0.7563  1.1561 -0.1518
   12MOL   C458 5980   0.733   6.594   7.714 -0.2102  0.3126 -0.4395
   12MOL   C459 5981   0.650   6.696   0.017  0.0066 -0.3936 -0.1610
   12MOL   C460 5982   0.529   6.642   0.101 -0.5993 -0.0362 -1.5490
   12MOL   H461 5983   1.106   5.936   0.023  0.5506  1.5119 -0.9017
   12MOL   H462 5984   1.006   6.030   7.697  0.2274  1.0668  0.1527
   12MOL   H463 5985   1.012   6.077   0.216 -1.6642  0.2408 -0.1568
   12MOL   H464 5986   0.949   6.361   0.221  0.7141 -0.6489 -0.3923
   12MOL   H465 5987   0.821   6.247   0.253  1.7854 -1.8082  0.9105
   12MOL   H466 5988   0.698   6.427   0.175  0.0264  0.8595 -1.1052
   12MOL   H467 5989   0.693   6.326   0.037  0.6083 -1.6156  0.5353
   12MOL   H468 5990   0.878   6.560   0.098 -0.0877  1.2093 -0.6065
   12MOL   H469 5991   0.908   6.465   7.733 -0.0156  1.6412  0.4750
   12MOL   H470 5992   0.792   6.646   7.639  0.5281 -0.8366 -0.6588
   12MOL   H471 5993   0.658   6.528   7.670 -0.8893  1.5392 -1.1579
   12MOL   H472 5994   0.723   6.742   0.084  0.5980  0.4826 -1.3817
   12MOL   H473 5995   0.620   6.784   7.739  0.7021 -0.0637 -0.0259
   12MOL   H474 5996   0.454   6.716   0.127 -1.3516 -0.2355 -3.1502
   12MOL   H475 5997   0.471   6.565   0.050 -0.2648 -1.0178 -0.4876
   12MOL   H476 5998   0.561   6.609   0.201 -0.1376  1.2827 -1.2510
   12MOL   C477 5999   1.170   6.194   0.138 -0.1821 -0.6072  0.4369
   12MOL   C478 6000   1.279   6.095   0.173 -0.3335  0.1239 -0.1468
   12MOL   O479 6001   1.263   6.039   0.303 -0.1410  0.7658  0.1921
   12MOL   C480 6002   1.338   5.921   0.326 -0.6753  0.1553 -0.6986
   12MOL   C481 6003   1.277   5.835   0.436  0.2508 -0.0867  0.3157
   12MOL   C482 6004   1.268   5.686   0.387 -0.2842 -0.0964 -0.1456
   12MOL   C483 6005   1.211   5.593   0.501 -0.4653 -0.3264  0.2134
   12MOL   C484 6006   1.148   5.466   0.448  0.1068  0.5049  0.1266
   12MOL   C485 6007   1.121   5.359   0.565 -0.2215 -0.7199 -0.1909
   12MOL   H486 6008   1.196   6.227   0.037  0.8328  0.5711  1.0786
   12MOL   H487 6009   1.161   6.277   0.208 -3.0705 -1.0551  0.6594
   12MOL   H488 6010   1.285   6.021   0.094 -0.6878 -2.4322  2.1362
   12MOL   H489 6011   1.443   5.941   0.346 -0.2757 -1.4762 -1.1309
   12MOL   H490 6012   1.326   5.864   0.233 -0.6118 -1.9470  0.5514
   12MOL   H491 6013   1.181   5.869   0.474 -0.2141 -0.2106 -0.7175
   12MOL   H492 6014   1.328   5.825   0.532  0.7905  1.9926  0.2751
   12MOL   H493 6015   1.204   5.676   0.299 -0.6245  1.6156 -0.1199
   12MOL   H494 6016   1.366   5.652   0.353  0.1956  1.2171 -0.1290
   12MOL   H495 6017   1.303   5.570   0.555 -1.0168  0.7316  1.6386
   12MOL   H496 6018   1.137   5.645   0.562 -0.1505  0.6373 -0.2288
   12MOL   H497 6019   1.059   5.485   0.389  1.1455  1.4799 -1.1676
   12MOL   H498 6020   1.209   5.421   0.370 -0.6009  0.8218 -0.6112
   12MOL   H499 6021   1.063   5.275   0.528 -1.0719 -0.3566  0.3074
   12MOL   H500 6022   1.212   5.314   0.605 -0.3097 -1.0661 -0.3814
   12MOL   H501 6023   1.064   5.399   0.649  2.4710 -1.6630  2.1242
   12MOL   H502 6024   1.378   6.141   0.176  0.1499 -0.9793  1.5158
   13MOL     C1 6025   4.457   6.187   7.393  0.5231 -0.0370  0.4835
   13MOL     C2 6026   4.503   6.323   7.327 -0.0812  1.0771  0.6144
   13MOL     O3 6027   4.645   6.316   7.322 -0.1547 -0.1783 -0.3855
   13MOL     C4 6028   4.700   6.330   7.192 -0.1238  0.2004 -0.4170
   13MOL     C5 6029   4.855   6.342   7.199 -0.2274 -0.2225 -0.0599
   13MOL     C6 6030   4.927   6.212   7.257  0.3530  0.0997 -0.5588
   13MOL     C7 6031   5.081   6.235   7.262 -0.2928  0.4028  0.7167
   13MOL     C8 6032   5.159   6.111   7.307 -0.1067  0.7583  0.0681
   13MOL     C9 6033   5.304   6.135   7.279 -0.1877 -0.4178  0.6641
   13MOL    H10 6034   4.503   6.168   7.490  2.2538  1.8237  0.0700
   13MOL    H11 6035   4.348   6.185   7.403  0.4637  1.0007  0.0863
   13MOL    H12 6036   4.463   6.333   7.226 -0.9335 -1.3181  0.6826
   13MOL    H13 6037   4.657   6.420   7.148 -1.0583 -0.4288 -0.7932
   13MOL    H14 6038   4.661   6.250   7.129 -1.0576 -0.8739  1.5009
   13MOL    H15 6039   4.879   6.420   7.272  3.5922 -1.7198  0.3435
   13MOL    H16 6040   4.890   6.377   7.102  0.7009 -2.0342 -0.3932
   13MOL    H17 6041   4.898   6.199   7.361 -0.2949  0.9361 -0.6353
   13MOL    H18 6042   4.896   6.120   7.207 -1.1116  0.7054 -0.7680
   13MOL    H19 6043   5.102   6.256   7.157  0.9422 -2.8042  0.2724
   13MOL    H20 6044   5.109   6.321   7.323  0.2766  0.5743  0.2232
   13MOL    H21 6045   5.119   6.020   7.264  0.4144 -0.3596  1.8629
   13MOL    H22 6046   5.141   6.101   7.414 -3.1131  2.0991 -0.2760
   13MOL    H23 6047   5.332   6.230   7.323 -0.7177  0.6060 -1.1534
   13MOL    H24 6048   5.378   6.060   7.307 -0.0937 -0.1027  1.2710
   13MOL    H25 6049   5.329   6.143   7.173  1.6571  0.8314  1.1696
   13MOL    H26 6050   4.489   6.098   7.338 -1.4324 -0.5062  0.0535
   13MOL    C27 6051   4.463   6.445   7.409 -0.1052 -0.2259  0.1700
   13MOL    C28 6052   4.462   6.578   7.329  0.5447 -0.3855 -0.6956
   13MOL    O29 6053   4.342   6.573   7.250 -0.3285  0.0056 -0.0717
   13MOL    C30 6054   4.343   6.679   7.148 -0.0951 -0.6662 -0.7610
   13MOL    C31 6055   4.221   6.640   7.064 -0.2203 -0.2470 -0.1161
   13MOL    C32 6056   4.212   6.506   6.986 -0.2734  0.1515 -1.1263
   13MOL    C33 6057   4.082   6.471   6.917  0.2574 -0.7172 -0.3104
   13MOL    C34 6058   3.957   6.463   7.000  0.1031  0.4754 -1.4620
   13MOL    C35 6059   3.831   6.421   6.928  0.5284  0.1283  0.2333
   13MOL    H36 6060   4.361   6.431   7.443 -0.4469  1.6796 -0.0015
   13MOL    H37 6061   4.529   6.449   7.496 -0.6469  0.6300  0.5529
   13MOL    H38 6062   4.556   6.591   7.277  1.3043 -0.5793  0.6072
   13MOL    H39 6063   4.436   6.679   7.092  0.0311 -1.3970 -0.5536
   13MOL    H40 6064   4.323   6.780   7.185 -0.3117 -0.8728 -0.3042
   13MOL    H41 6065   4.194   6.726   7.003  0.5732  0.0259 -0.0962
   13MOL    H42 6066   4.145   6.639   7.141  1.2138  3.0240  1.4261
   13MOL    H43 6067   4.291   6.510   6.911  0.9509 -0.1936  0.1308
   13MOL    H44 6068   4.240   6.426   7.054 -1.6844 -0.2945 -1.0399
   13MOL    H45 6069   4.055   6.535   6.832 -1.3299 -2.3428 -1.0619
   13MOL    H46 6070   4.087   6.380   6.857  1.0595  0.6903 -2.4635
   13MOL    H47 6071   3.983   6.387   7.073  0.9766  2.2185  0.0953
   13MOL    H48 6072   3.951   6.548   7.068  2.3130 -2.5034  2.7259
   13MOL    H49 6073   3.752   6.398   7.001 -1.0027  0.0692 -1.4072
   13MOL    H50 6074   3.791   6.502   6.867 -1.3485 -0.7681  0.2121
   13MOL    H51 6075   3.846   6.336   6.862  0.5893 -0.2553  0.7347
   13MOL    C52 6076   4.452   6.693   7.426  0.4183  0.7901 -0.1231
   13MOL    C53 6077   4.585   6.742   7.482  0.0107 -0.7568 -0.1206
   13MOL    O54 6078   4.652   6.788   7.370 -0.0594  0.1484  0.1487
   13MOL    C55 6079   4.796   6.781   7.380  0.4860  0.6993 -0.1072
   13MOL    C56 6080   4.845   6.842   7.251  0.1161  0.8609 -0.2877
   13MOL    C57 6081   4.846   6.730   7.143 -0.0946 -0.1298  0.0659
   13MOL    C58 6082   4.895   6.783   7.011  0.0107  0.1032 -1.0478
   13MOL    C59 6083   4.887   6.685   6.891  0.0065 -0.1980 -0.3094
   13MOL    C60 6084   4.957   6.746   6.764 -0.2366  0.2962 -0.4499
   13MOL    H61 6085   4.378   6.672   7.504 -0.5405  0.2268 -1.1744
   13MOL    H62 6086   4.411   6.781   7.377  0.2074  0.3046 -0.8283
   13MOL    H63 6087   4.631   6.660   7.536 -1.2007 -0.7765  0.8808
   13MOL    H64 6088   4.815   6.675   7.399 -0.2002  0.8308  1.3572
   13MOL    H65 6089   4.829   6.836   7.468  2.1255  1.6023 -1.2528
   13MOL    H66 6090   4.939   6.897   7.257 -0.6826  2.4487 -1.6310
   13MOL    H67 6091   4.779   6.920   7.212 -1.6950 -0.8432 -0.7168
   13MOL    H68 6092   4.916   6.655   7.179 -0.7094 -0.8309 -0.1857
   13MOL    H69 6093   4.744   6.690   7.144 -0.8227  1.6507 -0.4813
   13MOL    H70 6094   4.833   6.870   6.991 -0.4973  0.0540  0.2953
   13MOL    H71 6095   4.993   6.832   7.016  0.3347 -0.7055  0.7245
   13MOL    H72 6096   4.932   6.587   6.907 -0.0314 -0.3104 -0.8825
   13MOL    H73 6097   4.780   6.668   6.876 -0.6211 -0.4238  4.0279
   13MOL    H74 6098   4.926   6.848   6.742  2.3920  1.2448 -0.0529
   13MOL    H75 6099   5.059   6.754   6.804 -0.7109  1.4510  0.5663
   13MOL    H76 6100   4.952   6.689   6.671 -0.8135  3.6735 -2.5527
   13MOL    C77 6101   4.559   6.863   7.576  0.4045  0.4578  0.6447
   13MOL    C78 6102   4.557   6.826   7.723 -0.0260 -0.7586 -0.3110
   13MOL    O79 6103   4.468   6.929   0.001  0.1990  0.2721 -0.1204
   13MOL    C80 6104   4.396   6.894   0.112 -0.4635 -0.0674 -0.0726
   13MOL    C81 6105   4.326   7.021   0.178 -0.0752 -0.1683 -0.0838
   13MOL    C82 6106   4.228   7.090   0.083  0.0716  0.4824 -0.3901
   13MOL    C83 6107   4.192   7.235   0.127 -1.1981 -0.3308 -0.6149
   13MOL    C84 6108   4.116   7.246   0.259 -0.9327  0.6620  1.1187
   13MOL    C85 6109   4.011   7.356   0.272 -0.1870  0.2520 -0.1718
   13MOL    H86 6110   4.467   6.912   7.544  0.5294 -1.3111 -2.6579
   13MOL    H87 6111   4.635   6.938   7.555 -1.5450  1.8218 -1.9633
   13MOL    H88 6112   4.511   6.729   7.741 -1.0682 -0.7343 -2.6268
   13MOL    H89 6113   4.447   6.823   0.177  0.1658 -0.5121 -1.0216
   13MOL    H90 6114   4.308   6.837   0.082 -0.7537  1.4660 -2.2865
   13MOL    H91 6115   4.391   7.097   0.221 -2.6119  2.0712 -0.1215
   13MOL    H92 6116   4.280   6.987   0.270  0.4640 -0.7623 -0.0305
   13MOL    H93 6117   4.279   7.085   7.765  4.0970 -1.7911  1.7041
   13MOL    H94 6118   4.141   7.023   0.081 -0.0045  0.6114 -1.9120
   13MOL    H95 6119   4.287   7.288   0.128 -1.8667  0.8956 -0.8987
   13MOL    H96 6120   4.126   7.271   0.048 -0.6092  0.9402 -0.5303
   13MOL    H97 6121   4.051   7.159   0.253 -1.3023  1.0834 -1.3389
   13MOL    H98 6122   4.183   7.232   0.344 -0.7643 -1.9003  0.5837
   13MOL    H99 6123   3.953   7.367   0.181  0.5287  0.0603 -0.6600
   13MOL   H100 6124   3.942   7.327   0.351  0.4215 -0.2190  0.1949
   13MOL   H101 6125   4.063   7.452   0.282  0.5014  0.0857 -2.0766
   13MOL   C102 6126   4.699   6.844   0.014  0.4614 -0.9135 -0.1256
   13MOL   C103 6127   4.809   6.745   7.765 -0.6177  0.1095 -1.1082
   13MOL   O104 6128   4.922   6.797   0.059  0.5575 -0.7622 -0.0503
   13MOL   C105 6129   5.013   6.872   7.759 -0.2676  0.0575 -0.6295
   13MOL   C106 6130   5.135   6.931   0.059 -0.2695  0.5018 -0.0863
   13MOL   C107 6131   5.244   6.834   0.108  0.8193 -0.3429  0.2872
   13MOL   C108 6132   5.372   6.901   0.165  0.3683 -0.4797  0.3435
   13MOL   C109 6133   5.488   6.796   0.190 -0.0001  0.1578 -0.5607
   13MOL   C110 6134   5.615   6.858   0.240 -0.1210 -0.0383 -0.9486
   13MOL   H111 6135   4.738   6.942   7.765 -0.0349  0.1296  2.6352
   13MOL   H112 6136   4.689   6.852   0.123 -1.5044 -1.3090 -0.2515
   13MOL   H113 6137   4.828   6.748   7.658 -0.9412 -0.3132 -1.1739
   13MOL   H114 6138   4.956   6.944   7.700  1.8514  0.4887 -2.1919
   13MOL   H115 6139   5.048   6.802   7.684  0.8471  1.8873 -1.8721
   13MOL   H116 6140   5.093   6.997   0.135  0.4859  0.7024  0.1582
   13MOL   H117 6141   5.184   7.001   7.769  1.5335  0.7001  1.3647
   13MOL   H118 6142   5.204   6.773   0.189 -1.7077 -0.1296 -0.7532
   13MOL   H119 6143   5.278   6.761   0.034 -0.6480 -1.0119  0.2508
   13MOL   H120 6144   5.411   6.968   0.088 -0.4764  0.9196  1.1272
   13MOL   H121 6145   5.346   6.953   0.257 -1.1513 -1.7343  0.6334
   13MOL   H122 6146   5.452   6.719   0.258 -2.5549  1.8576  0.0906
   13MOL   H123 6147   5.521   6.753   0.096  0.7548 -1.9026  0.6256
   13MOL   H124 6148   5.692   6.783   0.223  0.8744  0.6817  0.2912
   13MOL   H125 6149   5.647   6.951   0.193 -2.4748  1.4105  0.2473
   13MOL   H126 6150   5.626   6.882   0.346  0.6740  3.1394 -1.6949
   13MOL   C127 6151   4.769   6.597   0.030 -0.1620  0.2656  0.3151
   13MOL   C128 6152   4.876   6.489   7.769 -0.4352  0.1585 -0.8652
   13MOL   O129 6153   4.821   6.356   7.765 -0.2120  0.1508 -0.9571
   13MOL   C130 6154   4.787   6.314   7.634  0.6212  0.2605 -0.8912
   13MOL   C131 6155   4.779   6.156   7.625  0.3652 -0.2806 -0.1957
   13MOL   C132 6156   4.905   6.080   7.656 -0.6527  0.3207  1.3026
   13MOL   C133 6157   4.910   5.925   7.628  0.6606  0.2410  0.6124
   13MOL   C134 6158   5.031   5.855   7.692 -0.8077 -0.1434  0.5608
   13MOL   C135 6159   5.160   5.901   7.624  0.7171 -1.1335 -0.1383
   13MOL   H136 6160   4.761   6.598   0.139  2.0862  2.2169  0.4936
   13MOL   H137 6161   4.671   6.559   0.000 -0.5458  1.3677  0.1505
   13MOL   H138 6162   4.915   6.512   7.670 -1.2312 -0.5337 -1.3502
   13MOL   H139 6163   4.856   6.355   7.560  0.9071  1.0330 -0.2078
   13MOL   H140 6164   4.690   6.357   7.612  1.2313  3.0218  1.5627
   13MOL   H141 6165   4.736   6.129   7.529  0.1799 -0.9404  0.0703
   13MOL   H142 6166   4.704   6.120   7.696 -0.4091 -0.6459 -1.1911
   13MOL   H143 6167   4.979   6.126   7.590 -1.9046  0.4169 -0.0465
   13MOL   H144 6168   4.924   6.097   7.762 -0.9320  1.9816  1.1007
   13MOL   H145 6169   4.825   5.866   7.664  0.5267  0.3153  0.4145
   13MOL   H146 6170   4.918   5.920   7.520 -1.5833 -2.5469  0.5023
   13MOL   H147 6171   5.046   5.859   0.021  1.0093 -0.9113  0.3359
   13MOL   H148 6172   5.021   5.750   7.664  1.3274 -0.1208 -0.3463
   13MOL   H149 6173   5.170   6.007   7.643 -0.5488 -1.1072  0.4281
   13MOL   H150 6174   5.249   5.847   7.657  1.0176 -0.4068  0.2340
   13MOL   H151 6175   5.152   5.886   7.516 -0.4469 -0.8708 -0.0934
   13MOL   C152 6176   4.983   6.483   0.104  0.5705 -0.2994  0.3755
   13MOL   C153 6177   5.099   6.400   0.054  0.6095 -0.0509 -0.0547
   13MOL   O154 6178   5.160   6.466   7.722  0.0343  0.1794  0.1432
   13MOL   C155 6179   5.196   6.400   7.605 -0.1949 -1.0504 -0.2290
   13MOL   C156 6180   5.265   6.492   7.502  0.6826  0.2831 -0.4791
   13MOL   C157 6181   5.190   6.612   7.444  0.2169  0.1793 -0.1434
   13MOL   C158 6182   5.286   6.692   7.363 -0.6657  0.1400  0.6751
   13MOL   C159 6183   5.228   6.820   7.307  0.2696 -0.2938 -0.0348
   13MOL   C160 6184   5.327   6.929   7.274  0.1729 -0.0999  0.7313
   13MOL   H161 6185   5.034   6.579   0.117 -1.3033  0.6908  0.4633
   13MOL   H162 6186   4.943   6.454   0.201 -1.1819 -1.4947 -0.6713
   13MOL   H163 6187   5.067   6.299   0.029 -0.1160  0.7263 -2.4704
   13MOL   H164 6188   5.099   6.366   7.568 -1.9270  4.2817 -0.9509
   13MOL   H165 6189   5.248   6.305   7.623  1.8014  0.0978  0.2593
   13MOL   H166 6190   5.312   6.426   7.429  0.0357  0.3881 -0.9926
   13MOL   H167 6191   5.346   6.536   7.560  0.4691  1.2405 -0.9007
   13MOL   H168 6192   5.097   6.583   7.395  1.2845  0.4091 -2.4072
   13MOL   H169 6193   5.156   6.671   7.529  0.6748 -0.0028  0.1659
   13MOL   H170 6194   5.369   6.721   7.427  0.9148 -0.8657 -0.8821
   13MOL   H171 6195   5.339   6.629   7.292  1.1169 -0.6894  2.7081
   13MOL   H172 6196   5.192   6.798   7.207  0.8453 -0.5127 -0.1971
   13MOL   H173 6197   5.146   6.862   7.364 -0.5321  1.5197 -2.4292
   13MOL   H174 6198   5.278   7.011   7.221  1.9906  1.6698  1.7302
   13MOL   H175 6199   5.366   6.984   7.360  1.9486 -1.9426  1.1348
   13MOL   H176 6200   5.404   6.889   7.208  2.0720  1.4804  1.9190
   13MOL   C177 6201   5.199   6.394   0.176 -0.9345 -1.0028 -0.0966
   13MOL   C178 6202   5.302   6.285   0.156 -0.6562  0.2684 -0.6106
   13MOL   O179 6203   5.412   6.288   0.256 -1.3095 -0.2071 -0.5602
   13MOL   C180 6204   5.500   6.400   0.238 -0.0802 -0.4625 -0.4397
   13MOL   C181 6205   5.640   6.352   0.274 -0.2411  0.6262  0.5273
   13MOL   C182 6206   5.737   6.463   0.295 -0.1685 -0.3550 -0.5792
   13MOL   C183 6207   5.874   6.435   0.362  0.4304  0.1300  0.1176
   13MOL   C184 6208   5.955   6.565   0.370  0.2692  0.6736 -0.1914
   13MOL   C185 6209   6.090   6.544   0.435  0.2019  0.3481 -0.1949
   13MOL   H186 6210   5.243   6.493   0.184 -1.4778 -0.7426 -0.2433
   13MOL   H187 6211   5.142   6.384   0.269  1.1521 -0.8416  1.2119
   13MOL   H188 6212   5.345   6.290   0.056 -1.2909 -1.1779 -0.9713
   13MOL   H189 6213   5.466   6.481   0.303  0.9912  1.3080 -2.0157
   13MOL   H190 6214   5.493   6.437   0.135 -1.4730 -2.1329 -0.9786
   13MOL   H191 6215   5.675   6.274   0.206  1.8006  1.7018  0.3224
   13MOL   H192 6216   5.629   6.309   0.373 -1.0167  1.1578  0.6739
   13MOL   H193 6217   5.760   6.495   0.193  2.0826 -0.2025 -0.0425
   13MOL   H194 6218   5.703   6.554   0.345  1.7985 -0.9618  1.9493
   13MOL   H195 6219   5.857   6.396   0.462  0.2792  1.0162  0.4400
   13MOL   H196 6220   5.923   6.356   0.305 -0.5291 -0.4374  0.0780
   13MOL   H197 6221   5.973   6.595   0.267  0.5712  2.4861  0.3767
   13MOL   H198 6222   5.905   6.645   0.426  0.1367  0.0120  0.6491
   13MOL   H199 6223   6.160   6.627   0.434  0.5159  0.0757 -0.9996
   13MOL   H200 6224   6.074   6.508   0.537 -3.0951  0.9988 -0.4285
   13MOL   H201 6225   6.156   6.473   0.385  1.7238  0.7693  1.1627
   13MOL   C202 6226   5.245   6.145   0.178 -0.5811 -0.2552  0.3596
   13MOL   C203 6227   5.359   6.043   0.157 -0.1850  0.1125 -0.1338
   13MOL   O204 6228   5.386   6.038   0.021  0.3593  0.5444  0.0813
   13MOL   C205 6229   5.524   6.059   7.771 -1.0795  0.0246  0.5013
   13MOL   C206 6230   5.526   6.040   7.618  0.1447  0.1600  0.4072
   13MOL   C207 6231   5.664   6.052   7.562  0.0821 -0.3382 -0.3811
   13MOL   C208 6232   5.669   6.050   7.408  0.4535  0.4375 -0.5477
   13MOL   C209 6233   5.809   6.089   7.365  0.1962  0.7380  0.4841
   13MOL   C210 6234   5.827   6.089   7.208  0.2163 -0.7780  0.0510
   13MOL   H211 6235   5.205   6.141   0.280 -2.5553  0.0654 -0.3801
   13MOL   H212 6236   5.155   6.126   0.119  0.9835 -2.6297 -1.3001
   13MOL   H213 6237   5.450   6.063   0.214  0.2870 -2.2527 -0.0100
   13MOL   H214 6238   5.579   5.979   0.042 -1.7265 -0.1850  0.8935
   13MOL   H215 6239   5.569   6.155   0.015 -0.4845  0.2624 -1.6244
   13MOL   H216 6240   5.469   6.115   7.562  0.7499 -0.1979 -0.6811
   13MOL   H217 6241   5.493   5.939   7.595  0.1880  0.3983 -0.7248
   13MOL   H218 6242   5.704   6.142   7.607 -1.7616  1.0275 -1.3971
   13MOL   H219 6243   5.728   5.971   7.599  1.6513  0.5928 -0.9903
   13MOL   H220 6244   5.656   5.950   7.366 -0.7038 -0.9100  2.8149
   13MOL   H221 6245   5.603   6.123   7.360  1.2099  0.7523 -1.1086
   13MOL   H222 6246   5.840   6.189   7.393  0.7965  0.3517  1.1993
   13MOL   H223 6247   5.888   6.028   7.408  0.4361  1.4088  0.9857
   13MOL   H224 6248   5.831   5.986   7.172 -0.3455 -1.3092  1.4615
   13MOL   H225 6249   5.733   6.133   7.174 -0.6156 -2.9588 -0.6146
   13MOL   H226 6250   5.917   6.138   7.173  0.8854 -1.0691  1.3396
   13MOL   C227 6251   5.310   5.900   0.214 -0.8790  0.3453 -0.1016
   13MOL   C228 6252   5.268   5.893   0.365 -0.2788 -0.0611 -0.0085
   13MOL   O229 6253   5.251   5.749   0.394 -0.0951 -0.2517  0.3302
   13MOL   C230 6254   5.107   5.717   0.377 -0.8174 -0.1934  0.2089
   13MOL   C231 6255   5.088   5.574   0.426  0.2594 -0.6347  0.0380
   13MOL   C232 6256   5.129   5.531   0.564 -0.1609  0.0113 -0.5384
   13MOL   C233 6257   5.111   5.376   0.572  0.9094  0.1174  0.1047
   13MOL   C234 6258   5.039   5.326   0.699  0.9054  0.0855 -0.3586
   13MOL   C235 6259   5.006   5.171   0.693  0.3391 -0.2333 -0.4522
   13MOL   H236 6260   5.234   5.861   0.147 -1.1485  1.4269 -0.4418
   13MOL   H237 6261   5.394   5.834   0.190 -0.7794  0.8868 -1.2799
   13MOL   H238 6262   5.178   5.950   0.389 -0.6573 -0.3114 -0.8375
   13MOL   H239 6263   5.072   5.731   0.275  1.2736 -1.0079 -0.6376
   13MOL   H240 6264   5.049   5.781   0.444  1.0744  2.8296 -0.9450
   13MOL   H241 6265   5.146   5.514   0.357 -0.6025 -0.1960 -1.0721
   13MOL   H242 6266   4.981   5.559   0.410  0.3468 -1.8398  0.5282
   13MOL   H243 6267   5.231   5.550   0.599 -1.0036  2.4741  0.6384
   13MOL   H244 6268   5.063   5.594   0.623  0.5201 -1.5986  2.0227
   13MOL   H245 6269   5.034   5.354   0.498 -0.5555 -0.1381  1.6651
   13MOL   H246 6270   5.199   5.314   0.555  2.2879  2.0554  0.0352
   13MOL   H247 6271   5.091   5.358   0.789 -1.3471  0.3522  0.8630
   13MOL   H248 6272   4.951   5.389   0.708 -0.0508 -1.3919  0.6837
   13MOL   H249 6273   5.072   5.102   0.641 -1.2490  1.1035 -4.4600
   13MOL   H250 6274   5.004   5.117   0.788  1.5049  0.1685 -0.1916
   13MOL   H251 6275   4.903   5.168   0.656 -0.2378  2.3718  0.8512
   13MOL   C252 6276   5.376   5.947   0.460 -0.0656 -0.0430  1.0170
   13MOL   C253 6277   5.333   5.944   0.608 -0.3330  0.6754  0.5045
   13MOL   O254 6278   5.241   6.051   0.628 -0.0894  0.0977  0.3399
   13MOL   C255 6279   5.162   6.039   0.745 -0.4064 -0.1016 -0.5575
   13MOL   C256 6280   5.017   5.992   0.716  0.3880 -0.3710  0.5075
   13MOL   C257 6281   4.932   6.094   0.645 -0.1300  0.8717 -0.5036
   13MOL   C258 6282   4.948   6.096   0.497  0.1444  0.2229 -0.3853
   13MOL   C259 6283   4.847   6.203   0.447  0.1417  0.4754  0.8420
   13MOL   C260 6284   4.822   6.198   0.297  0.9435 -0.0380 -0.3719
   13MOL   H261 6285   5.463   5.882   0.451 -0.9658 -0.9429 -1.4964
   13MOL   H262 6286   5.397   6.053   0.444 -1.0421  0.0892  0.5737
   13MOL   H263 6287   5.276   5.852   0.624  0.7583 -0.2777 -0.9888
   13MOL   H264 6288   5.159   6.133   0.800 -1.6004  1.0058 -2.4430
   13MOL   H265 6289   5.206   5.971   0.817 -1.9837 -1.2157 -0.6126
   13MOL   H266 6290   4.978   5.961   0.813  0.2979 -0.0822  0.5619
   13MOL   H267 6291   5.020   5.899   0.658  1.7291  0.7553 -1.2912
   13MOL   H268 6292   4.833   6.051   0.658  0.5046 -1.5808 -3.1796
   13MOL   H269 6293   4.949   6.193   0.686 -2.4778  0.8372  0.6206
   13MOL   H270 6294   5.051   6.129   0.489 -0.1946  1.3409 -0.2732
   13MOL   H271 6295   4.931   5.998   0.452 -1.8354  0.6937 -0.7052
   13MOL   H272 6296   4.753   6.194   0.502  0.3144  1.4243  1.3084
   13MOL   H273 6297   4.884   6.302   0.473 -0.1339  0.3546  1.7080
   13MOL   H274 6298   4.909   6.240   0.246  1.4101  0.4431  0.7898
   13MOL   H275 6299   4.817   6.099   0.253  0.9423  0.9671 -2.6832
   13MOL   H276 6300   4.730   6.250   0.271 -0.8532 -3.7740 -1.8720
   13MOL   C277 6301   5.450   5.959   0.701  0.2795 -0.3265  0.5980
   13MOL   C278 6302   5.541   6.078   0.681  0.5710 -0.3623  0.2076
   13MOL   O279 6303   5.487   6.192   0.750 -0.3877 -0.2710 -0.6105
   13MOL   C280 6304   5.435   6.302   0.667 -0.5752 -0.3718  0.0498
   13MOL   C281 6305   5.425   6.434   0.743  0.2964 -1.0370 -0.2446
   13MOL   C282 6306   5.327   6.419   0.862 -0.1923  0.1677  0.1470
   13MOL   C283 6307   5.316   6.544   0.953  0.6318  0.5343  0.7690
   13MOL   C284 6308   5.439   6.563   1.047  0.5246  0.1810  0.5198
   13MOL   C285 6309   5.447   6.475   1.171 -0.4960  0.2589 -0.5379
   13MOL   H286 6310   5.411   5.952   0.803  1.6974  0.9385  1.2322
   13MOL   H287 6311   5.504   5.864   0.696  1.1965  0.1373  1.4527
   13MOL   H288 6312   5.550   6.106   0.576  0.7266 -1.8703 -0.1994
   13MOL   H289 6313   5.349   6.273   0.607  0.6471 -1.5255 -1.1813
   13MOL   H290 6314   5.513   6.326   0.595 -0.1379  1.1539  1.0126
   13MOL   H291 6315   5.403   6.522   0.683  0.1411 -0.1382  1.1016
   13MOL   H292 6316   5.524   6.463   0.779 -0.9355  3.0516  0.0494
   13MOL   H293 6317   5.228   6.405   0.818 -0.2404 -1.7452  0.7942
   13MOL   H294 6318   5.353   6.334   0.925  1.0037  2.2333  2.5140
   13MOL   H295 6319   5.291   6.631   0.891  1.8568 -0.3067 -0.9434
   13MOL   H296 6320   5.226   6.533   1.013 -0.9200 -0.1662 -1.5989
   13MOL   H297 6321   5.530   6.539   0.992  0.7246  2.4583 -0.1893
   13MOL   H298 6322   5.447   6.666   1.081 -2.4990  1.4746 -2.4707
   13MOL   H299 6323   5.547   6.482   1.215 -1.0058  4.6430  0.1624
   13MOL   H300 6324   5.392   6.520   1.254  1.3812 -0.1403  0.9705
   13MOL   H301 6325   5.434   6.368   1.155  2.0390 -0.2024  0.2665
   13MOL   C302 6326   5.683   6.048   0.747 -0.1945 -0.3756  0.2908
   13MOL   C303 6327   5.765   5.942   0.675 -0.4610 -0.4029  0.4110
   13MOL   O304 6328   5.875   5.909   0.759 -0.0714  0.0955  1.1298
   13MOL   C305 6329   5.845   5.824   0.868  0.3065  0.1788 -0.3609
   13MOL   C306 6330   5.919   5.879   0.992  0.4251 -0.0226 -0.3761
   13MOL   C307 6331   6.070   5.907   0.974  0.4388 -0.2177  0.8334
   13MOL   C308 6332   6.141   5.959   1.109  0.0851  0.1398 -0.0280
   13MOL   C309 6333   6.106   6.106   1.129  0.5056  0.5092  0.1068
   13MOL   C310 6334   6.209   6.171   1.227 -0.0647 -0.1014 -0.0656
   13MOL   H311 6335   5.738   6.140   0.766  0.7822 -0.6564 -1.0460
   13MOL   H312 6336   5.653   6.005   0.842 -1.6828  1.4046  0.6440
   13MOL   H313 6337   5.709   5.853   0.644 -2.7579  0.9485  0.5470
   13MOL   H314 6338   5.882   5.724   0.842  0.5071  0.1728 -0.0452
   13MOL   H315 6339   5.736   5.821   0.868  0.1516  2.8281 -3.9726
   13MOL   H316 6340   5.898   5.812   1.076  1.0041  0.6205  0.2891
   13MOL   H317 6341   5.865   5.971   1.018  0.5340 -0.0103 -0.1930
   13MOL   H318 6342   6.114   5.820   0.926 -1.3128 -0.6536 -0.0296
   13MOL   H319 6343   6.067   5.973   0.887 -0.6976 -0.3359  0.7702
   13MOL   H320 6344   6.114   5.898   1.195  0.0170  1.2723  0.7658
   13MOL   H321 6345   6.250   5.953   1.108  0.1600  1.3289 -0.1219
   13MOL   H322 6346   6.102   6.156   1.032 -0.6093 -1.3693 -0.8376
   13MOL   H323 6347   6.007   6.125   1.172  1.6661  1.4326  2.4615
   13MOL   H324 6348   6.193   6.133   1.328  0.6763 -3.7313 -1.2398
   13MOL   H325 6349   6.312   6.152   1.199 -0.2104 -2.3094  0.8008
   13MOL   H326 6350   6.198   6.279   1.237 -1.8840 -0.4190  1.7280
   13MOL   C327 6351   5.827   5.998   0.545 -0.0437 -0.1219  0.3988
   13MOL   C328 6352   5.915   5.899   0.466  0.0592 -0.5731  0.6791
   13MOL   O329 6353   5.810   5.830   0.387 -0.5996 -0.0144 -0.6240
   13MOL   C330 6354   5.810   5.691   0.362 -0.4617 -0.0638 -0.4843
   13MOL   C331 6355   5.675   5.627   0.309 -0.5306  0.4746  0.2437
   13MOL   C332 6356   5.643   5.669   0.170  0.1617  0.0353  0.5564
   13MOL   C333 6357   5.530   5.584   0.108 -0.4141 -0.4518  0.0610
   13MOL   C334 6358   5.516   5.622   7.739  0.1712 -0.7872  0.2463
   13MOL   C335 6359   5.398   5.546   7.673 -0.2944  0.2968  0.1433
   13MOL   H336 6360   5.887   6.080   0.584 -0.6098 -0.1715  1.3914
   13MOL   H337 6361   5.752   6.035   0.475  0.3837  2.6802  1.3445
   13MOL   H338 6362   5.969   5.826   0.527 -1.0002 -0.3038  1.9469
   13MOL   H339 6363   5.853   5.631   0.443 -1.1030 -1.9715 -1.5320
   13MOL   H340 6364   5.880   5.671   0.281  1.0823 -0.6982  0.9753
   13MOL   H341 6365   5.589   5.651   0.371 -0.6665  0.1795  0.1721
   13MOL   H342 6366   5.691   5.519   0.312  2.0309  0.7857 -0.3558
   13MOL   H343 6367   5.620   5.775   0.157  1.9526  0.5868  1.6949
   13MOL   H344 6368   5.731   5.661   0.107  1.6028  2.4499  2.1813
   13MOL   H345 6369   5.544   5.476   0.109 -0.6285 -0.4874 -0.4512
   13MOL   H346 6370   5.434   5.603   0.156  0.5765 -0.6868  2.2067
   13MOL   H347 6371   5.483   5.726   7.738 -0.3087 -0.9365  0.9229
   13MOL   H348 6372   5.609   5.621   7.682 -0.2297  0.3974 -0.4449
   13MOL   H349 6373   5.401   5.437   7.682 -0.5079  0.3714  1.1427
   13MOL   H350 6374   5.305   5.574   7.721  0.6038  0.6346  1.7232
   13MOL   H351 6375   5.388   5.582   7.570  0.5734  2.0058  0.6417
   13MOL   C352 6376   6.012   5.959   0.361  0.9259 -0.2487 -0.7402
   13MOL   C353 6377   6.151   5.998   0.405 -0.2808  0.0154  0.4349
   13MOL   O354 6378   6.151   6.116   0.483  0.2166  0.0282  0.6575
   13MOL   C355 6379   6.160   6.091   0.623 -0.2906  0.7839 -0.1294
   13MOL   C356 6380   6.188   6.220   0.699 -0.0545  0.7233 -0.2144
   13MOL   C357 6381   6.064   6.302   0.715 -0.4709 -0.3267  0.9228
   13MOL   C358 6382   6.089   6.413   0.822 -0.4370  0.1769 -0.0426
   13MOL   C359 6383   5.976   6.496   0.887 -0.0109 -0.3713  0.1784
   13MOL   C360 6384   5.867   6.414   0.949  0.4458 -0.9624 -1.4181
   13MOL   H361 6385   6.024   5.887   0.280 -0.7480 -0.7613 -0.5514
   13MOL   H362 6386   5.964   6.043   0.310 -2.1847 -2.0762 -0.9376
   13MOL   H363 6387   6.184   5.910   0.461 -0.9490 -0.9870 -0.7056
   13MOL   H364 6388   6.232   6.012   0.643 -1.6992 -0.4598  0.2166
   13MOL   H365 6389   6.069   6.037   0.650  0.8592 -1.7795 -1.2391
   13MOL   H366 6390   6.274   6.276   0.661 -0.8434  1.9205 -0.2528
   13MOL   H367 6391   6.212   6.197   0.802  0.8514 -0.7912 -0.7486
   13MOL   H368 6392   6.025   6.337   0.619  1.7241  0.8709  0.4333
   13MOL   H369 6393   5.981   6.249   0.762 -0.4045 -0.7085  0.6031
   13MOL   H370 6394   6.151   6.372   0.901 -0.8044 -0.4965 -0.1034
   13MOL   H371 6395   6.156   6.478   0.766  0.8604 -0.2243  1.0464
   13MOL   H372 6396   6.016   6.567   0.960  1.6892  1.0677 -2.1019
   13MOL   H373 6397   5.928   6.546   0.803  0.8554  0.3573  0.1079
   13MOL   H374 6398   5.832   6.330   0.888  0.7740 -1.4052 -0.9984
   13MOL   H375 6399   5.917   6.370   1.035  0.6177  2.4880  0.3309
   13MOL   H376 6400   5.788   6.475   0.994  1.1721 -0.7484 -0.4186
   13MOL   C377 6401   6.255   6.021   0.289 -0.0568  0.2050 -0.4949
   13MOL   C378 6402   6.404   6.019   0.342  0.3617  0.4118 -0.0138
   13MOL   O379 6403   6.475   6.022   0.219 -0.4718 -0.2269 -0.0838
   13MOL   C380 6404   6.511   6.145   0.157  0.3340  0.0988  0.1269
   13MOL   C381 6405   6.502   6.124   0.008  0.0131 -0.1621 -0.5121
   13MOL   C382 6406   6.562   6.236   7.705  0.3826  0.2822 -0.3523
   13MOL   C383 6407   6.533   6.227   7.551  0.2966 -0.4995 -0.3043
   13MOL   C384 6408   6.537   6.373   7.489  0.4638 -0.3490 -0.9015
   13MOL   C385 6409   6.551   6.365   7.334 -0.2280  0.3681  0.0035
   13MOL   H386 6410   6.244   5.934   0.225  0.2119  1.5818 -2.4713
   13MOL   H387 6411   6.236   6.114   0.236 -0.6593 -1.0526 -2.5300
   13MOL   H388 6412   6.423   6.105   0.406  1.5770 -0.8045  1.3110
   13MOL   H389 6413   6.614   6.168   0.187  0.4892  2.6245 -2.2580
   13MOL   H390 6414   6.442   6.223   0.188  1.2322  0.9777 -0.0483
   13MOL   H391 6415   6.398   6.103   7.760 -0.3008 -1.9027  2.0283
   13MOL   H392 6416   6.553   6.031   7.762 -0.7120 -0.9241  0.8443
   13MOL   H393 6417   6.530   6.330   7.752  2.6511  0.5333  0.7337
   13MOL   H394 6418   6.670   6.239   7.719  0.3755 -2.2300  0.4145
   13MOL   H395 6419   6.613   6.163   7.513  1.1378  0.7783 -0.7521
   13MOL   H396 6420   6.438   6.181   7.526 -0.2618 -0.1491  1.1305
   13MOL   H397 6421   6.447   6.425   7.520  0.8286 -0.5385  0.5168
   13MOL   H398 6422   6.619   6.437   7.524 -1.8715  1.6082  1.1192
   13MOL   H399 6423   6.498   6.284   7.283  0.3047  0.9926 -1.5860
   13MOL   H400 6424   6.531   6.462   7.289 -1.9217  0.2380  0.4312
   13MOL   H401 6425   6.655   6.337   7.320 -0.0704  1.1153 -0.3610
   13MOL   C402 6426   6.454   5.897   0.424 -0.1946  0.0451  0.2116
   13MOL   C403 6427   6.581   5.920   0.511 -0.2099 -0.3309 -0.1563
   13MOL   O404 6428   6.610   5.796   0.575  0.2368 -0.3075  0.3423
   13MOL   C405 6429   6.736   5.738   0.550  0.0565  0.2359 -0.5043
   13MOL   C406 6430   6.772   5.666   0.684  0.1505  0.0689  0.2320
   13MOL   C407 6431   6.920   5.637   0.702  0.3942  0.1506  0.1939
   13MOL   C408 6432   6.953   5.588   0.838  0.3036  0.5130 -0.4791
   13MOL   C409 6433   6.858   5.466   0.886 -0.3971 -0.0947  0.3888
   13MOL   C410 6434   6.908   5.398   1.018  0.0685  0.0952  0.2918
   13MOL   H411 6435   6.467   5.811   0.359 -0.9249 -0.9795  1.3956
   13MOL   H412 6436   6.369   5.864   0.484 -1.4236  0.0576 -1.5112
   13MOL   H413 6437   6.650   5.948   0.432 -0.4330  0.1809 -0.1738
   13MOL   H414 6438   6.807   5.818   0.528  0.6381 -0.5827 -1.6798
   13MOL   H415 6439   6.729   5.670   0.465  0.8325 -1.2671  0.6066
   13MOL   H416 6440   6.701   5.585   0.701 -0.7860  0.8631  0.1356
   13MOL   H417 6441   6.740   5.731   0.765  0.7109 -0.0034  0.5163
   13MOL   H418 6442   6.944   5.559   0.629 -2.8883  0.4443 -1.3064
   13MOL   H419 6443   6.992   5.710   0.665  1.0109 -1.1386 -1.2071
   13MOL   H420 6444   7.059   5.563   0.834  0.6741  1.7023  1.1546
   13MOL   H421 6445   6.933   5.670   0.907 -0.4119 -1.6948  2.0385
   13MOL   H422 6446   6.751   5.485   0.885 -0.3954 -0.0914  0.1457
   13MOL   H423 6447   6.856   5.396   0.802 -0.8835  1.0487 -0.5553
   13MOL   H424 6448   7.012   5.366   1.022  0.3152  0.9109  0.4342
   13MOL   H425 6449   6.894   5.460   1.106  1.5793 -0.4546  0.9358
   13MOL   H426 6450   6.853   5.304   1.032  0.2164  0.0543  0.5812
   13MOL   C427 6451   6.578   6.034   0.617 -0.0532 -0.3002 -0.0166
   13MOL   C428 6452   6.718   6.070   0.675 -0.0982 -0.3220 -0.4001
   13MOL   O429 6453   6.798   6.132   0.569 -0.0519 -0.0238 -0.6587
   13MOL   C430 6454   6.927   6.088   0.559 -0.3519 -0.0033  0.6130
   13MOL   C431 6455   7.032   6.145   0.662  0.9596 -0.1346  0.0413
   13MOL   C432 6456   7.172   6.143   0.611 -0.0144 -1.1008 -0.1186
   13MOL   C433 6457   7.225   6.000   0.639  0.3319 -0.0514 -0.1711
   13MOL   C434 6458   7.365   5.977   0.602  0.3454 -0.3762  0.0445
   13MOL   C435 6459   7.411   6.021   0.461 -0.5201  0.6296  0.2188
   13MOL   H436 6460   6.527   6.120   0.572  2.4748  1.4234  0.2798
   13MOL   H437 6461   6.511   5.986   0.687 -0.3690 -0.6753 -0.5735
   13MOL   H438 6462   6.778   5.991   0.719  0.5279 -1.5143 -3.2705
   13MOL   H439 6463   6.948   6.120   0.457 -1.1528  0.1763  0.5015
   13MOL   H440 6464   6.939   5.982   0.538  3.1759  0.3522  0.4277
   13MOL   H441 6465   7.020   6.096   0.758  0.3343  0.1838  0.1272
   13MOL   H442 6466   7.007   6.248   0.687 -0.2557 -0.7844  1.5839
   13MOL   H443 6467   7.172   6.170   0.506 -0.7310  1.3176  0.4692
   13MOL   H444 6468   7.223   6.216   0.674 -2.9758 -0.0749  1.2213
   13MOL   H445 6469   7.210   5.969   0.742  0.4253  1.0269  0.1661
   13MOL   H446 6470   7.163   5.930   0.581  1.1963  0.5544 -1.8731
   13MOL   H447 6471   7.428   6.013   0.684 -1.7782  0.7684  1.2270
   13MOL   H448 6472   7.386   5.871   0.610  0.2603 -0.7415 -3.9107
   13MOL   H449 6473   7.492   5.958   0.425 -1.3142 -0.4897  0.3511
   13MOL   H450 6474   7.323   6.003   0.399  0.1908 -1.3387 -0.2579
   13MOL   H451 6475   7.430   6.128   0.453  2.2175  0.0282 -2.2281
   13MOL   C452 6476   6.708   6.169   0.780 -0.3587 -0.5222 -0.0367
   13MOL   C453 6477   6.626   6.128   0.907  0.0361 -0.6528 -0.1310
   13MOL   O454 6478   6.618   6.232   1.003 -0.2920 -0.0114 -0.0631
   13MOL   C455 6479   6.533   6.341   0.967 -0.3561 -0.3302  0.8749
   13MOL   C456 6480   6.529   6.430   1.093 -0.7148 -0.1164  0.0234
   13MOL   C457 6481   6.418   6.541   1.108 -0.3707 -0.3066  0.2521
   13MOL   C458 6482   6.392   6.633   0.985 -0.7578 -0.0271 -0.8020
   13MOL   C459 6483   6.290   6.748   1.003 -0.2200  0.0602  0.1670
   13MOL   C460 6484   6.281   6.835   0.885  0.2972 -0.2875 -0.8609
   13MOL   H461 6485   6.805   6.213   0.804 -0.6172 -0.0079  0.0620
   13MOL   H462 6486   6.656   6.255   0.740  1.8430  2.1117  2.5511
   13MOL   H463 6487   6.529   6.094   0.870 -0.6092 -2.6124  3.1392
   13MOL   H464 6488   6.438   6.305   0.928 -0.6433  0.6486  0.6510
   13MOL   H465 6489   6.576   6.398   0.885 -0.4963 -1.2666  0.1351
   13MOL   H466 6490   6.629   6.471   1.112 -0.7757  0.6557 -1.2599
   13MOL   H467 6491   6.515   6.372   1.183  1.6136 -1.2337 -0.2886
   13MOL   H468 6492   6.321   6.499   1.134 -1.4464 -0.8727 -4.2633
   13MOL   H469 6493   6.443   6.609   1.190 -0.8708 -1.4985  1.4122
   13MOL   H470 6494   6.487   6.677   0.956 -1.6440  0.3467 -3.1901
   13MOL   H471 6495   6.368   6.565   0.903  0.3839 -2.0879  0.5140
   13MOL   H472 6496   6.192   6.702   1.012 -0.6718  0.9506 -0.0952
   13MOL   H473 6497   6.323   6.811   1.086  0.1486  1.3891 -0.9737
   13MOL   H474 6498   6.222   6.782   0.810  0.0226 -1.2282  0.0130
   13MOL   H475 6499   6.246   6.937   0.905  0.6177 -0.3956  0.2305
   13MOL   H476 6500   6.376   6.862   0.839  1.2288  0.8678  1.6591
   13MOL   C477 6501   6.693   6.014   0.994 -0.2869  0.5891 -0.4888
   13MOL   C478 6502   6.606   5.955   1.113 -0.2382 -0.1969  0.4996
   13MOL   O479 6503   6.531   5.851   1.057  0.2548 -0.5024 -0.4323
   13MOL   C480 6504   6.581   5.724   1.081 -0.3426  0.5624 -0.2528
   13MOL   C481 6505   6.482   5.634   1.016 -0.0817 -0.1605  0.1209
   13MOL   C482 6506   6.432   5.679   0.879 -0.3406 -0.3239  0.2152
   13MOL   C483 6507   6.370   5.564   0.799 -0.3049  0.5643 -0.1442
   13MOL   C484 6508   6.309   5.606   0.658 -0.6292 -0.1920  0.5005
   13MOL   C485 6509   6.180   5.691   0.657  0.3077  0.2787 -0.8016
   13MOL   H486 6510   6.738   5.935   0.935 -2.0943  0.4912 -1.7696
   13MOL   H487 6511   6.770   6.060   1.056 -0.1659 -1.6542  1.1011
   13MOL   H488 6512   6.679   5.919   1.186 -0.9052 -1.6457  0.4820
   13MOL   H489 6513   6.580   5.692   1.185 -1.8064  1.8040  0.1228
   13MOL   H490 6514   6.683   5.714   1.042 -0.2130  0.0809  0.2101
   13MOL   H491 6515   6.395   5.621   1.079  0.6782  3.0651  1.9619
   13MOL   H492 6516   6.524   5.534   1.014  0.6770  0.1629 -0.7660
   13MOL   H493 6517   6.357   5.755   0.903  0.0657  0.2083 -0.1681
   13MOL   H494 6518   6.510   5.723   0.816  1.7341  1.0809  3.6442
   13MOL   H495 6519   6.446   5.490   0.778 -1.8210 -0.7101 -1.2427
   13MOL   H496 6520   6.290   5.522   0.861  1.0028 -0.7129  0.7002
   13MOL   H497 6521   6.383   5.653   0.594 -0.1268  0.9649  1.9176
   13MOL   H498 6522   6.293   5.514   0.601 -1.6297 -0.5027  1.2677
   13MOL   H499 6523   6.161   5.711   0.551  0.3032  1.4280 -0.5911
   13MOL   H500 6524   6.097   5.628   0.687  0.5153  1.1833  1.7561
   13MOL   H501 6525   6.195   5.780   0.718  1.9923 -2.4605  2.9014
   13MOL   H502 6526   6.554   6.036   1.163 -1.8300 -1.2646  0.6114
   14MOL     C1 6527   0.904   3.936   4.189  0.3304  0.4785 -0.5445
   14MOL     C2 6528   1.033   3.852   4.170  0.3308 -0.2779 -0.2751
   14MOL     O3 6529   1.147   3.940   4.176  0.1102 -0.0628 -0.5444
   14MOL     C4 6530   1.185   3.985   4.306 -0.1327 -0.2909 -0.1648
   14MOL     C5 6531   1.311   4.076   4.281 -0.0302  0.5821 -0.0460
   14MOL     C6 6532   1.436   4.002   4.227  0.0264  0.7945  0.7858
   14MOL     C7 6533   1.526   3.944   4.345 -0.2316  0.1002  0.4869
   14MOL     C8 6534   1.672   3.924   4.312  0.4105  0.5842 -0.7482
   14MOL     C9 6535   1.696   3.808   4.207  0.2526 -0.0637  0.2424
   14MOL    H10 6536   0.817   3.872   4.201  0.1329  1.0084  0.9218
   14MOL    H11 6537   0.913   3.986   4.285  2.7636 -0.8095 -0.0628
   14MOL    H12 6538   1.045   3.777   4.248 -1.7002 -1.4800 -1.1043
   14MOL    H13 6539   1.221   3.904   4.368  1.2845 -2.0090 -3.1298
   14MOL    H14 6540   1.106   4.049   4.346  1.7142  1.6687  0.4797
   14MOL    H15 6541   1.333   4.132   4.372 -0.4395  0.1227  0.3396
   14MOL    H16 6542   1.283   4.147   4.204  1.4557  0.5532 -0.6418
   14MOL    H17 6543   1.398   3.922   4.164  1.0292  0.9104  0.0166
   14MOL    H18 6544   1.486   4.083   4.173  1.0200  0.3317  0.9879
   14MOL    H19 6545   1.520   4.003   4.436 -1.2590 -1.7247  1.6490
   14MOL    H20 6546   1.474   3.851   4.370  1.3919 -0.4538  1.8901
   14MOL    H21 6547   1.720   3.895   4.405 -1.3066  0.1529  0.0147
   14MOL    H22 6548   1.722   4.015   4.278 -2.8356  2.7221 -0.1080
   14MOL    H23 6549   1.710   3.706   4.242 -2.0686 -0.5661 -0.2235
   14MOL    H24 6550   1.620   3.802   4.129  0.0587  0.9189  0.3516
   14MOL    H25 6551   1.794   3.821   4.160  1.8082  3.3477  4.1349
   14MOL    H26 6552   0.891   4.012   4.111 -0.4740 -1.2209 -2.1030
   14MOL    C27 6553   1.043   3.773   4.036  0.4141 -0.3378 -0.1237
   14MOL    C28 6554   1.178   3.694   4.020  0.4433 -0.7286 -0.6946
   14MOL    O29 6555   1.151   3.572   4.083  0.0407  0.0309  0.3528
   14MOL    C30 6556   1.211   3.554   4.210  0.2350 -0.4742  0.0056
   14MOL    C31 6557   1.173   3.413   4.266 -0.9106 -0.2606  0.2552
   14MOL    C32 6558   1.207   3.296   4.175 -0.4198 -0.1127  0.2353
   14MOL    C33 6559   1.092   3.253   4.087  0.0939  0.2078  0.5276
   14MOL    C34 6560   1.123   3.130   3.997 -0.0420  0.1017 -0.6575
   14MOL    C35 6561   1.002   3.093   3.911  0.6609  0.0957 -0.3707
   14MOL    H36 6562   0.957   3.707   4.037  1.4838 -1.7723 -1.4668
   14MOL    H37 6563   1.033   3.846   3.955 -0.3211  0.8628  1.0115
   14MOL    H38 6564   1.252   3.757   4.071  0.8109 -3.3735  2.1959
   14MOL    H39 6565   1.207   3.634   4.284  1.4772  1.9227 -2.4369
   14MOL    H40 6566   1.319   3.549   4.194  0.2955  0.0601  0.2184
   14MOL    H41 6567   1.071   3.415   4.303 -1.2350  0.8511 -0.6399
   14MOL    H42 6568   1.216   3.398   4.365 -1.7307 -2.6166  0.2817
   14MOL    H43 6569   1.282   3.332   4.104  0.0593  3.6297  2.5346
   14MOL    H44 6570   1.247   3.212   4.232  0.7843 -0.5895 -1.2789
   14MOL    H45 6571   1.014   3.213   4.152 -0.5695  0.2971 -0.2104
   14MOL    H46 6572   1.048   3.332   4.025  0.4840 -1.0987 -1.4593
   14MOL    H47 6573   1.202   3.148   3.925  1.8311 -0.6909  1.1429
   14MOL    H48 6574   1.151   3.047   4.062 -1.1691  0.7981  0.7685
   14MOL    H49 6575   0.973   3.172   3.841 -0.2740  0.7940  0.8054
   14MOL    H50 6576   1.039   3.008   3.853 -0.3775 -0.9682  0.5130
   14MOL    H51 6577   0.919   3.056   3.969  0.2458 -1.1398 -1.7216
   14MOL    C52 6578   1.211   3.677   3.873 -0.4832  0.0249 -0.0455
   14MOL    C53 6579   1.348   3.616   3.837  0.2509  0.6867  0.2736
   14MOL    O54 6580   1.338   3.542   3.711  0.6156 -0.7097  0.4624
   14MOL    C55 6581   1.281   3.406   3.722  0.2068 -0.7666 -0.4894
   14MOL    C56 6582   1.290   3.344   3.583  1.2474  0.2198 -0.0531
   14MOL    C57 6583   1.238   3.202   3.580 -0.4643 -0.4611  0.0244
   14MOL    C58 6584   1.262   3.133   3.447 -0.0086 -0.2053  0.2397
   14MOL    C59 6585   1.176   3.185   3.325  1.0207  0.7359 -0.3189
   14MOL    C60 6586   1.025   3.156   3.330  0.3857  0.7641 -0.1691
   14MOL    H61 6587   1.209   3.770   3.817  1.2094 -0.2095 -0.5249
   14MOL    H62 6588   1.127   3.612   3.848  0.1702 -1.2670  1.0346
   14MOL    H63 6589   1.369   3.541   3.913  3.5758 -1.1463 -2.3157
   14MOL    H64 6590   1.177   3.415   3.756 -0.2367 -2.1174 -1.4548
   14MOL    H65 6591   1.326   3.350   3.804  1.5729  3.9126  2.1354
   14MOL    H66 6592   1.395   3.343   3.556  0.6561 -2.0921 -2.3695
   14MOL    H67 6593   1.226   3.402   3.517  0.4686  0.1147  0.5968
   14MOL    H68 6594   1.272   3.142   3.665 -3.1912 -0.2685  1.3019
   14MOL    H69 6595   1.131   3.207   3.599 -0.9629  0.3403 -2.8243
   14MOL    H70 6596   1.367   3.139   3.418 -0.3133  2.0973 -0.4770
   14MOL    H71 6597   1.257   3.026   3.468  3.4121 -0.6197 -0.7724
   14MOL    H72 6598   1.191   3.293   3.317  0.6713  0.8483  0.5001
   14MOL    H73 6599   1.206   3.136   3.233 -0.3123 -1.3459  0.3331
   14MOL    H74 6600   0.976   3.126   3.237 -3.0607  0.6397  1.5902
   14MOL    H75 6601   1.006   3.072   3.397  0.7390  0.2410 -0.7206
   14MOL    H76 6602   0.969   3.238   3.376 -0.1764 -2.0218  4.4472
   14MOL    C77 6603   1.449   3.721   3.828  1.3312 -0.0448 -0.0926
   14MOL    C78 6604   1.595   3.676   3.809 -0.1797 -0.6699  0.3026
   14MOL    O79 6605   1.626   3.620   3.934  0.2521 -0.0247 -0.3733
   14MOL    C80 6606   1.699   3.499   3.923  0.1472 -0.3876 -0.1513
   14MOL    C81 6607   1.723   3.447   4.055  0.2512  0.1228 -0.4104
   14MOL    C82 6608   1.595   3.393   4.126  0.4708  0.1851  0.5723
   14MOL    C83 6609   1.605   3.359   4.281  0.3488 -0.3411  0.5418
   14MOL    C84 6610   1.680   3.231   4.309 -0.1722 -0.3943 -0.1576
   14MOL    C85 6611   1.719   3.214   4.458  0.1027 -0.1683 -0.5004
   14MOL    H86 6612   1.445   3.777   3.921 -0.5336 -0.6833  0.2449
   14MOL    H87 6613   1.422   3.796   3.754 -0.8234  0.1438  0.8506
   14MOL    H88 6614   1.609   3.605   3.727  1.5327  0.4491 -0.4039
   14MOL    H89 6615   1.794   3.518   3.872 -0.3431  1.9690 -0.2817
   14MOL    H90 6616   1.637   3.429   3.869 -0.5370  0.2337 -0.1812
   14MOL    H91 6617   1.756   3.532   4.115 -1.0216  0.5617 -0.2970
   14MOL    H92 6618   1.805   3.375   4.060  2.4516  2.6039 -0.0272
   14MOL    H93 6619   1.511   3.459   4.106 -1.1044 -1.7003  0.7861
   14MOL    H94 6620   1.571   3.300   4.074  0.2001  0.7753 -0.3753
   14MOL    H95 6621   1.669   3.435   4.325 -0.0091  0.7409 -0.7782
   14MOL    H96 6622   1.512   3.361   4.338  0.1999  0.8879  0.2493
   14MOL    H97 6623   1.626   3.139   4.288 -0.9023 -0.2819  1.1547
   14MOL    H98 6624   1.768   3.234   4.244 -0.3144 -1.1995 -0.3880
   14MOL    H99 6625   1.636   3.189   4.524  1.1003 -1.8189  0.1568
   14MOL   H100 6626   1.778   3.123   4.469  2.4158  1.1336 -1.8663
   14MOL   H101 6627   1.774   3.295   4.504  1.3922 -0.1784 -1.9732
   14MOL   C102 6628   1.682   3.802   3.788  0.1816 -0.1410 -0.3060
   14MOL   C103 6629   1.825   3.782   3.731  0.4858 -0.1949 -0.9291
   14MOL   O104 6630   1.816   3.724   3.597 -0.1003  0.2337 -0.0960
   14MOL   C105 6631   1.938   3.671   3.551 -0.2845  0.1149  0.2049
   14MOL   C106 6632   1.907   3.569   3.439 -1.0589  0.5830  0.1162
   14MOL   C107 6633   2.041   3.504   3.388 -0.4436 -0.2795 -0.3073
   14MOL   C108 6634   2.010   3.412   3.264 -0.3014 -0.7342  0.1682
   14MOL   C109 6635   2.105   3.286   3.245 -0.6387 -0.2666 -0.4190
   14MOL   C110 6636   2.091   3.194   3.362  0.8874 -0.2099 -0.2249
   14MOL   H111 6637   1.633   3.865   3.715  1.9587  1.3727 -0.2257
   14MOL   H112 6638   1.679   3.855   3.883 -2.8371 -0.3509 -0.2329
   14MOL   H113 6639   1.873   3.719   3.807 -1.8587 -2.2058 -1.0235
   14MOL   H114 6640   1.986   3.609   3.627 -2.7597 -1.4733  0.5303
   14MOL   H115 6641   2.000   3.755   3.520  0.8821 -0.3675  1.1715
   14MOL   H116 6642   1.858   3.619   3.356  0.1775 -0.7837 -1.4755
   14MOL   H117 6643   1.831   3.503   3.480 -0.2916 -0.4599 -0.1150
   14MOL   H118 6644   2.107   3.584   3.354  0.7200 -1.2391 -0.3566
   14MOL   H119 6645   2.096   3.440   3.458 -0.7332 -1.5328 -1.1989
   14MOL   H120 6646   1.913   3.368   3.288 -1.8093  0.8528 -2.7728
   14MOL   H121 6647   2.001   3.469   3.172 -0.3065  0.0129  0.6231
   14MOL   H122 6648   2.074   3.247   3.148  0.4616 -1.2972 -0.3565
   14MOL   H123 6649   2.209   3.316   3.230 -0.6229  1.1443  2.0809
   14MOL   H124 6650   1.988   3.165   3.381  1.3745 -1.8726 -0.0502
   14MOL   H125 6651   2.139   3.097   3.354  1.8606 -0.0980  3.2566
   14MOL   H126 6652   2.140   3.225   3.455 -0.0751 -0.2126  0.2945
   14MOL   C127 6653   1.898   3.912   3.716 -0.4534 -0.0064  0.5536
   14MOL   C128 6654   1.914   4.002   3.848 -0.1436 -0.7889  0.0525
   14MOL   O129 6655   1.818   4.113   3.836 -0.1257 -0.0048  0.3795
   14MOL   C130 6656   1.785   4.180   3.957  0.7932 -0.6733  0.0600
   14MOL   C131 6657   1.640   4.234   3.927  0.5703  0.4513  0.4464
   14MOL   C132 6658   1.534   4.117   3.892 -0.6667  0.0944 -0.0423
   14MOL   C133 6659   1.388   4.169   3.877 -0.2822  0.0218 -0.2313
   14MOL   C134 6660   1.288   4.055   3.846  0.5841  0.0585  0.3170
   14MOL   C135 6661   1.151   4.111   3.826 -0.2841 -0.3602 -0.1292
   14MOL   H136 6662   1.999   3.888   3.684 -0.4870  2.0470 -1.1715
   14MOL   H137 6663   1.840   3.970   3.644  0.1988 -0.0973 -0.0447
   14MOL   H138 6664   1.901   3.942   3.938  0.2119  0.2774  0.8154
   14MOL   H139 6665   1.864   4.249   3.988  0.3555 -0.8561  1.5988
   14MOL   H140 6666   1.778   4.112   4.041 -1.9460  1.1046  1.3202
   14MOL   H141 6667   1.653   4.292   3.836  0.6602 -1.0971 -0.5293
   14MOL   H142 6668   1.617   4.307   4.005 -0.4066 -1.2683  1.8060
   14MOL   H143 6669   1.564   4.072   3.797 -0.4591 -0.9623  0.5112
   14MOL   H144 6670   1.534   4.036   3.964 -0.2361 -1.4153 -1.6863
   14MOL   H145 6671   1.342   4.219   3.963 -0.1855 -0.7930  0.3034
   14MOL   H146 6672   1.389   4.246   3.800 -0.2651 -2.1019 -2.4160
   14MOL   H147 6673   1.320   3.997   3.759  1.3347  2.1347 -0.8257
   14MOL   H148 6674   1.279   3.989   3.932 -1.8560  1.5720  1.2719
   14MOL   H149 6675   1.078   4.041   3.785 -0.1770 -0.0027 -0.9197
   14MOL   H150 6676   1.111   4.138   3.924 -0.0399  1.3668 -0.4936
   14MOL   H151 6677   1.151   4.202   3.767 -1.1945  0.0919  0.5589
   14MOL   C152 6678   2.054   4.056   3.846  0.1761 -0.9112 -0.0668
   14MOL   C153 6679   2.161   3.950   3.901 -0.1293  0.2654 -0.1358
   14MOL   O154 6680   2.281   3.989   3.853  0.3924 -0.2368 -0.2097
   14MOL   C155 6681   2.380   3.896   3.869  0.6371 -0.5553  0.2295
   14MOL   C156 6682   2.505   3.948   3.793 -0.0796  0.5076  0.5569
   14MOL   C157 6683   2.624   3.856   3.818 -0.1206  0.1688  0.0094
   14MOL   C158 6684   2.736   3.867   3.704 -0.2753 -0.3816  0.5748
   14MOL   C159 6685   2.844   3.744   3.709 -0.1440 -0.2670 -0.0652
   14MOL   C160 6686   2.958   3.783   3.611 -0.4150  0.3523  0.3943
   14MOL   H161 6687   2.073   4.093   3.746 -0.5210 -1.1009 -0.2770
   14MOL   H162 6688   2.060   4.150   3.900  1.7851 -0.7854 -0.4607
   14MOL   H163 6689   2.143   3.854   3.853  1.2829  0.1247 -0.4084
   14MOL   H164 6690   2.351   3.794   3.843  0.5721 -0.5771  0.3836
   14MOL   H165 6691   2.405   3.891   3.975  3.6670  0.0507 -0.4195
   14MOL   H166 6692   2.507   4.052   3.825  1.7499  0.6557 -0.0057
   14MOL   H167 6693   2.486   3.968   3.687 -1.2886  2.6042  1.1363
   14MOL   H168 6694   2.659   3.896   3.913  3.2195 -4.4611  0.9584
   14MOL   H169 6695   2.593   3.754   3.840 -1.0444 -0.4029 -3.5163
   14MOL   H170 6696   2.690   3.868   3.606  0.6168 -0.2222  0.1468
   14MOL   H171 6697   2.796   3.958   3.712 -0.7780  0.0281 -0.2722
   14MOL   H172 6698   2.878   3.726   3.811 -2.9357 -0.0587  0.9250
   14MOL   H173 6699   2.792   3.658   3.667 -1.1709  0.6346 -0.6623
   14MOL   H174 6700   3.005   3.878   3.636 -0.0006  0.5941 -1.3010
   14MOL   H175 6701   3.032   3.703   3.619 -1.9417 -1.1693 -0.3908
   14MOL   H176 6702   2.920   3.785   3.509  0.5662  0.0490  0.0200
   14MOL   C177 6703   2.157   3.924   4.058  0.2131 -0.0470  0.3933
   14MOL   C178 6704   2.166   4.050   4.149  0.6080  0.7653 -0.0885
   14MOL   O179 6705   2.159   4.003   4.282  0.4224  0.0736  0.5246
   14MOL   C180 6706   2.027   3.986   4.330  0.4400  0.3529 -0.2692
   14MOL   C181 6707   2.033   3.878   4.443  0.1387  0.1822 -0.1476
   14MOL   C182 6708   2.082   3.747   4.370  0.4950  0.1865  0.0062
   14MOL   C183 6709   2.096   3.634   4.477  0.5190  0.0042 -0.8816
   14MOL   C184 6710   2.133   3.498   4.411  0.8627  0.0666 -0.0743
   14MOL   C185 6711   2.032   3.435   4.311  0.8877  0.3631  0.4277
   14MOL   H186 6712   2.069   3.866   4.083  0.4117 -3.0495 -5.1047
   14MOL   H187 6713   2.233   3.846   4.072 -1.4929 -2.1908 -1.8377
   14MOL   H188 6714   2.087   4.121   4.123  0.1388 -0.4108 -1.9243
   14MOL   H189 6715   1.958   3.955   4.252 -1.3143  0.3822  1.2305
   14MOL   H190 6716   1.985   4.080   4.366 -0.0244  0.4737 -1.1380
   14MOL   H191 6717   1.929   3.867   4.474 -0.0374  1.5044 -0.2254
   14MOL   H192 6718   2.092   3.900   4.532  0.7104  0.5463 -0.6158
   14MOL   H193 6719   1.999   3.721   4.304  1.4410  0.4021 -1.2981
   14MOL   H194 6720   2.171   3.747   4.307  0.1082 -0.1660 -0.5555
   14MOL   H195 6721   2.176   3.661   4.546 -1.5655  2.1781  0.8034
   14MOL   H196 6722   2.005   3.624   4.536  2.1682  1.7252  2.0446
   14MOL   H197 6723   2.224   3.512   4.353 -0.3663 -1.4805 -2.4893
   14MOL   H198 6724   2.154   3.426   4.489 -0.3323  0.2737  0.4525
   14MOL   H199 6725   2.044   3.332   4.277  1.4796 -0.0571  1.9081
   14MOL   H200 6726   1.932   3.439   4.354 -0.1240 -3.3569 -1.3657
   14MOL   H201 6727   2.021   3.487   4.215  1.6785 -0.7908 -0.3015
   14MOL   C202 6728   2.292   4.138   4.135  0.2449  0.9944 -0.0458
   14MOL   C203 6729   2.284   4.277   4.206  0.3017 -0.2208  0.2567
   14MOL   O204 6730   2.162   4.347   4.180  0.2858  0.4658  0.4723
   14MOL   C205 6731   2.112   4.424   4.285 -0.4078  0.6215  0.1457
   14MOL   C206 6732   1.982   4.489   4.246 -0.6213 -0.3170 -0.5117
   14MOL   C207 6733   1.971   4.541   4.099  0.0607 -0.1843 -0.0633
   14MOL   C208 6734   1.833   4.596   4.073  0.1349  0.0950  0.1759
   14MOL   C209 6735   1.827   4.661   3.929 -0.4058  0.5444  0.0782
   14MOL   C210 6736   1.683   4.694   3.903  0.4026  0.2697 -0.3557
   14MOL   H211 6737   2.383   4.085   4.162  0.3034  1.1662  0.0960
   14MOL   H212 6738   2.312   4.169   4.032 -0.7331  2.2378  0.1154
   14MOL   H213 6739   2.282   4.244   4.310 -1.8185 -1.0608 -0.0084
   14MOL   H214 6740   2.185   4.501   4.312  0.8859  0.1587 -1.8543
   14MOL   H215 6741   2.098   4.354   4.367  0.7281  1.6196  1.2094
   14MOL   H216 6742   1.965   4.563   4.325  0.2000 -0.0867 -0.5491
   14MOL   H217 6743   1.905   4.412   4.255  0.7809 -1.6413  0.2980
   14MOL   H218 6744   2.047   4.616   4.077 -0.5107  0.5478  0.4268
   14MOL   H219 6745   1.993   4.465   4.025  1.0672 -1.1817  1.2302
   14MOL   H220 6746   1.760   4.515   4.077 -0.4738  0.6958  1.3072
   14MOL   H221 6747   1.802   4.669   4.147 -1.1837 -2.0883  1.8130
   14MOL   H222 6748   1.888   4.751   3.928 -0.6621  0.7170 -2.1906
   14MOL   H223 6749   1.860   4.591   3.853 -1.4752  0.7535 -0.5810
   14MOL   H224 6750   1.642   4.755   3.983 -0.3012 -0.1142 -0.4236
   14MOL   H225 6751   1.652   4.743   3.810  0.6693  0.3994 -0.3772
   14MOL   H226 6752   1.631   4.599   3.899 -0.0764  0.5042  0.3231
   14MOL   C227 6753   2.408   4.365   4.174 -0.5914  0.0418 -0.2657
   14MOL   C228 6754   2.545   4.315   4.220  0.5260 -0.2197 -0.7241
   14MOL   O229 6755   2.612   4.256   4.109 -0.7151 -0.3271  0.3622
   14MOL   C230 6756   2.719   4.175   4.151  0.4944 -0.8523 -0.4132
   14MOL   C231 6757   2.799   4.134   4.026  0.6256  0.4140  0.2955
   14MOL   C232 6758   2.867   3.991   4.034  0.2457 -0.3514 -0.3847
   14MOL   C233 6759   2.983   3.987   4.139  0.4724  0.5729  0.9644
   14MOL   C234 6760   3.005   3.841   4.186 -0.5237 -0.3642 -0.3770
   14MOL   C235 6761   3.109   3.806   4.297  0.2912  0.3587 -0.2323
   14MOL   H236 6762   2.408   4.390   4.068  0.7737 -3.2102 -1.0876
   14MOL   H237 6763   2.391   4.462   4.222 -0.3808 -0.3248  0.5697
   14MOL   H238 6764   2.523   4.236   4.292 -0.0342  1.5762  1.1533
   14MOL   H239 6765   2.672   4.089   4.199  2.7538 -2.1750 -0.5106
   14MOL   H240 6766   2.784   4.226   4.221 -1.0411  0.9109 -0.2465
   14MOL   H241 6767   2.874   4.208   4.001  0.5541  0.2630 -0.3898
   14MOL   H242 6768   2.726   4.127   3.945 -0.2973  1.2576  1.0366
   14MOL   H243 6769   2.786   3.929   4.073  0.5056  0.0900  0.8794
   14MOL   H244 6770   2.894   3.941   3.941  0.3085 -0.4171 -0.3306
   14MOL   H245 6771   3.074   4.023   4.090  0.9162 -1.2294  0.3969
   14MOL   H246 6772   2.947   4.050   4.220 -0.8653  1.0027  0.0412
   14MOL   H247 6773   2.903   3.814   4.216 -0.4879  1.0984  1.1883
   14MOL   H248 6774   3.022   3.774   4.102  0.0811  1.2602 -1.5678
   14MOL   H249 6775   3.206   3.844   4.265  0.3737 -0.4151 -0.9194
   14MOL   H250 6776   3.082   3.839   4.397 -1.2606  0.5002 -0.6873
   14MOL   H251 6777   3.107   3.699   4.318 -3.1961  0.5881  0.9677
   14MOL   C252 6778   2.634   4.427   4.289  0.8355  0.4790 -0.1813
   14MOL   C253 6779   2.689   4.539   4.198  0.1000  0.8342  0.3660
   14MOL   O254 6780   2.579   4.619   4.155  0.0904  0.0477 -0.7683
   14MOL   C255 6781   2.552   4.734   4.239 -0.1642  0.1691 -0.0229
   14MOL   C256 6782   2.430   4.802   4.172  0.3874  0.1575 -0.1055
   14MOL   C257 6783   2.371   4.909   4.267  0.6762 -0.2310  0.2987
   14MOL   C258 6784   2.324   4.857   4.406  0.4977  0.6019  0.2845
   14MOL   C259 6785   2.241   4.963   4.471  0.2580 -0.0518 -0.0975
   14MOL   C260 6786   2.204   4.923   4.620 -0.4321 -0.8777 -0.3624
   14MOL   H261 6787   2.572   4.471   4.368  1.1080  1.7578 -0.6610
   14MOL   H262 6788   2.721   4.379   4.333  1.9038  1.5555 -1.0817
   14MOL   H263 6789   2.767   4.583   4.260  0.5634 -1.9510  1.8452
   14MOL   H264 6790   2.625   4.816   4.241 -1.3222  1.2172  0.5485
   14MOL   H265 6791   2.529   4.711   4.343 -1.1624 -0.6353 -0.4175
   14MOL   H266 6792   2.345   4.740   4.143 -0.4620  1.2115  0.0944
   14MOL   H267 6793   2.467   4.859   4.087  0.8195  2.5670  1.6370
   14MOL   H268 6794   2.446   4.988   4.279  1.7366 -1.1142 -0.4364
   14MOL   H269 6795   2.294   4.965   4.215 -0.0843 -2.4203 -0.9576
   14MOL   H270 6796   2.265   4.766   4.411  1.4760 -0.0025  0.9210
   14MOL   H271 6797   2.414   4.829   4.460  1.7712  0.5308 -1.8312
   14MOL   H272 6798   2.306   5.049   4.481  0.6761 -0.4984  1.1526
   14MOL   H273 6799   2.155   4.982   4.406 -0.8293  1.1522  1.6601
   14MOL   H274 6800   2.292   4.917   4.684 -1.0913  0.9394  0.7455
   14MOL   H275 6801   2.141   4.999   4.665  0.6796 -0.3166  0.2718
   14MOL   H276 6802   2.150   4.829   4.610 -1.3413 -0.2092 -1.8359
   14MOL   C277 6803   2.758   4.496   4.067  0.2374  0.3751  0.6201
   14MOL   C278 6804   2.817   4.615   3.989  0.4252 -0.6095 -0.2906
   14MOL   O279 6805   2.919   4.667   4.077  0.3263 -0.2168  0.5828
   14MOL   C280 6806   2.920   4.813   4.085  0.0886  0.4619 -0.3932
   14MOL   C281 6807   3.056   4.864   4.142  0.7208 -0.8594  0.3576
   14MOL   C282 6808   3.171   4.835   4.051  0.3230  0.2978 -0.4383
   14MOL   C283 6809   3.183   4.941   3.946 -0.3303  0.3426 -0.4396
   14MOL   C284 6810   3.288   4.914   3.844 -0.6338  0.2213  0.4857
   14MOL   C285 6811   3.301   5.030   3.756 -0.3696 -0.1193 -0.2100
   14MOL   H286 6812   2.838   4.427   4.094 -0.3069 -0.5369 -0.0554
   14MOL   H287 6813   2.686   4.448   4.000  0.4359  0.1360  0.5794
   14MOL   H288 6814   2.741   4.683   3.951 -0.6284 -1.1809  0.7536
   14MOL   H289 6815   2.844   4.862   4.145  0.0333 -0.3353  0.1964
   14MOL   H290 6816   2.907   4.860   3.987  0.2809  0.4753 -0.4117
   14MOL   H291 6817   3.069   4.802   4.231 -3.0192  1.5607  2.7134
   14MOL   H292 6818   3.070   4.965   4.180  1.1593 -0.8610  0.2038
   14MOL   H293 6819   3.265   4.832   4.106  0.4703  3.3232 -0.4515
   14MOL   H294 6820   3.150   4.742   3.998 -0.9544 -1.4780  3.0682
   14MOL   H295 6821   3.090   4.956   3.890  1.8886  0.1137 -4.3287
   14MOL   H296 6822   3.199   5.038   3.993 -1.3216  0.3473 -0.0813
   14MOL   H297 6823   3.386   4.892   3.886 -0.9657  0.6243  1.4806
   14MOL   H298 6824   3.263   4.823   3.790  1.9074 -0.0230 -0.3429
   14MOL   H299 6825   3.201   5.068   3.732 -0.7511 -2.1155 -1.9820
   14MOL   H300 6826   3.344   5.113   3.812 -2.1733  1.1520 -0.6432
   14MOL   H301 6827   3.351   5.013   3.661  1.0846  1.0185  0.3253
   14MOL   C302 6828   2.898   4.562   3.871 -0.2651  0.2927 -0.1574
   14MOL   C303 6829   2.822   4.482   3.767  0.2523 -0.0081 -0.0441
   14MOL   O304 6830   2.915   4.449   3.664 -0.5001 -0.1380  0.1153
   14MOL   C305 6831   2.975   4.320   3.677  0.2939 -0.3810 -0.0012
   14MOL   C306 6832   3.086   4.303   3.575 -0.2679 -0.0105 -0.3145
   14MOL   C307 6833   3.043   4.324   3.428  0.3930 -0.2162  0.4760
   14MOL   C308 6834   3.156   4.322   3.322 -0.0179 -0.0028 -0.1018
   14MOL   C309 6835   3.111   4.384   3.192  0.4751 -0.1366  0.2491
   14MOL   C310 6836   3.199   4.358   3.071  0.4484  0.4526  0.2378
   14MOL   H311 6837   2.936   4.648   3.816  0.9829  0.1880  0.5174
   14MOL   H312 6838   2.991   4.507   3.885  0.8198  2.1802  0.2950
   14MOL   H313 6839   2.779   4.392   3.811 -0.2822  0.5280  0.5628
   14MOL   H314 6840   2.899   4.243   3.669  1.0728 -1.1208 -0.3989
   14MOL   H315 6841   3.014   4.311   3.778  0.1834 -1.8613 -0.0784
   14MOL   H316 6842   3.144   4.211   3.586 -0.0320  0.1955  0.1834
   14MOL   H317 6843   3.152   4.387   3.594 -1.8553  1.3304 -0.5655
   14MOL   H318 6844   2.980   4.238   3.406  0.2970 -0.4959  1.7866
   14MOL   H319 6845   2.978   4.409   3.405  0.5611 -0.1627  0.1916
   14MOL   H320 6846   3.247   4.370   3.360  0.7501 -0.1467 -1.7400
   14MOL   H321 6847   3.181   4.217   3.307 -1.8797 -0.7135  1.5083
   14MOL   H322 6848   3.012   4.343   3.176  0.8673 -1.5703  1.3545
   14MOL   H323 6849   3.106   4.490   3.219 -0.1748 -0.0947 -0.0339
   14MOL   H324 6850   3.207   4.250   3.059 -1.8680  0.5109 -2.3151
   14MOL   H325 6851   3.160   4.399   2.978 -1.1092 -1.6675 -0.0654
   14MOL   H326 6852   3.297   4.405   3.071  1.3379 -1.3847 -0.4219
   14MOL   C327 6853   2.698   4.552   3.696  0.9050 -0.3774  0.2275
   14MOL   C328 6854   2.624   4.444   3.605  0.3378 -0.0782 -0.4578
   14MOL   O329 6855   2.485   4.455   3.615  0.3605 -0.0877 -0.1192
   14MOL   C330 6856   2.440   4.403   3.743  0.0283 -0.2159  0.2032
   14MOL   C331 6857   2.284   4.382   3.718 -0.4648  0.0484 -0.1519
   14MOL   C332 6858   2.207   4.519   3.697 -0.1067  0.1067  0.0251
   14MOL   C333 6859   2.221   4.615   3.812 -0.1697 -0.3376  0.0759
   14MOL   C334 6860   2.153   4.755   3.787 -0.9767  0.1070 -0.2831
   14MOL   C335 6861   2.181   4.860   3.895 -0.3324  0.1185 -0.6213
   14MOL   H336 6862   2.747   4.641   3.656  1.2885  0.4991  2.5770
   14MOL   H337 6863   2.634   4.584   3.779 -1.4210 -1.4389 -1.1263
   14MOL   H338 6864   2.643   4.341   3.636 -1.9056 -0.3157  0.2455
   14MOL   H339 6865   2.465   4.473   3.823  0.4464 -0.9297  0.7030
   14MOL   H340 6866   2.493   4.312   3.771 -0.3206 -1.0689 -1.8280
   14MOL   H341 6867   2.245   4.334   3.808  1.0805  1.4185  1.2663
   14MOL   H342 6868   2.252   4.310   3.643 -0.2712 -0.3224  0.1184
   14MOL   H343 6869   2.255   4.564   3.610 -1.9859  1.0628 -0.5641
   14MOL   H344 6870   2.103   4.501   3.666  0.1904 -0.6824 -0.5401
   14MOL   H345 6871   2.187   4.565   3.902  1.3454  0.8659  1.3541
   14MOL   H346 6872   2.325   4.637   3.839 -0.0249  0.7004 -1.2522
   14MOL   H347 6873   2.188   4.799   3.694  0.1041  0.7478  0.4223
   14MOL   H348 6874   2.044   4.746   3.780 -1.2569  1.0830  2.5094
   14MOL   H349 6875   2.157   4.819   3.992 -0.8958 -1.5045 -1.4260
   14MOL   H350 6876   2.286   4.889   3.906  0.0534 -1.5753  0.4179
   14MOL   H351 6877   2.129   4.953   3.876 -0.5634 -0.3371 -2.3562
   14MOL   C352 6878   2.665   4.456   3.462  0.1052  0.4457 -0.3064
   14MOL   C353 6879   2.586   4.379   3.350  0.3557 -0.3747  0.1326
   14MOL   O354 6880   2.606   4.237   3.369 -0.0155 -0.4407 -0.1185
   14MOL   C355 6881   2.496   4.168   3.424  1.0306  0.6093 -0.0042
   14MOL   C356 6882   2.382   4.153   3.320 -0.0568 -0.3492 -0.0467
   14MOL   C357 6883   2.251   4.142   3.383  0.0148 -0.1699  0.2815
   14MOL   C358 6884   2.134   4.168   3.281  0.4324 -0.0383 -0.4932
   14MOL   C359 6885   1.997   4.138   3.342  0.1240  0.4262 -0.1143
   14MOL   C360 6886   1.951   4.236   3.451  0.2873  0.2322  1.2511
   14MOL   H361 6887   2.663   4.561   3.436  1.6090  0.5837  0.0511
   14MOL   H362 6888   2.771   4.434   3.443  0.0790  0.1239 -0.1006
   14MOL   H363 6889   2.482   4.408   3.361  1.0360  1.3736  2.3150
   14MOL   H364 6890   2.456   4.231   3.503  1.3280 -0.7922  1.2684
   14MOL   H365 6891   2.539   4.074   3.459  0.1283 -0.2870 -1.2237
   14MOL   H366 6892   2.398   4.061   3.263 -2.3074 -0.9853  0.3033
   14MOL   H367 6893   2.388   4.244   3.260 -1.0468 -0.4784 -0.3457
   14MOL   H368 6894   2.253   4.051   3.444  2.9310 -0.9710 -0.8685
   14MOL   H369 6895   2.242   4.222   3.455 -0.2129 -0.7698  0.9206
   14MOL   H370 6896   2.133   4.266   3.235 -3.0849 -1.0591 -2.7891
   14MOL   H371 6897   2.132   4.100   3.196 -1.5065 -0.5026 -0.1054
   14MOL   H372 6898   1.922   4.133   3.263 -0.7921 -1.7508  0.8283
   14MOL   H373 6899   1.995   4.040   3.390 -1.4625  1.2587  1.5874
   14MOL   H374 6900   1.846   4.223   3.477  0.6348 -1.7158  1.7887
   14MOL   H375 6901   2.019   4.230   3.536  1.3602 -1.3992  0.3180
   14MOL   H376 6902   1.953   4.337   3.412 -0.2690  0.4123  1.6840
   14MOL   C377 6903   2.647   4.414   3.211 -0.3583 -0.6725  0.0892
   14MOL   C378 6904   2.596   4.545   3.140 -0.0815 -0.0566 -0.4609
   14MOL   O379 6905   2.457   4.518   3.100 -0.3523 -0.4778  0.2756
   14MOL   C380 6906   2.362   4.609   3.149  0.2412  0.1361  0.4918
   14MOL   C381 6907   2.236   4.618   3.058  0.8455 -0.2566 -0.5225
   14MOL   C382 6908   2.133   4.502   3.067  0.0762 -0.5614  0.2450
   14MOL   C383 6909   2.007   4.509   2.978  0.1981 -0.7574  0.7701
   14MOL   C384 6910   1.916   4.379   2.998 -0.0060  0.7894  0.6438
   14MOL   C385 6911   1.770   4.401   2.961  1.0351 -0.0918  0.7691
   14MOL   H386 6912   2.755   4.424   3.220 -0.4810 -0.8342  1.9096
   14MOL   H387 6913   2.629   4.328   3.147 -0.4993 -0.4258 -0.1986
   14MOL   H388 6914   2.607   4.632   3.204 -2.9326 -0.2010  0.3014
   14MOL   H389 6915   2.402   4.710   3.160  0.2227  0.1177  0.7242
   14MOL   H390 6916   2.337   4.577   3.250 -3.2794  0.8637 -0.0571
   14MOL   H391 6917   2.257   4.622   2.951  3.9625  0.6078  0.0498
   14MOL   H392 6918   2.187   4.712   3.081  0.4139 -0.5789 -0.1162
   14MOL   H393 6919   2.184   4.408   3.046  0.2144 -0.5181  0.3866
   14MOL   H394 6920   2.093   4.503   3.168 -1.4130  0.3620 -0.3383
   14MOL   H395 6921   1.954   4.599   3.007  1.3934 -0.3969  1.9002
   14MOL   H396 6922   2.027   4.529   2.873 -3.5102 -0.7245 -0.0016
   14MOL   H397 6923   1.955   4.301   2.932  2.0656  0.5005  2.1993
   14MOL   H398 6924   1.907   4.340   3.099 -0.8495 -0.0197  0.2765
   14MOL   H399 6925   1.728   4.453   3.048  5.5000  1.9621  1.8605
   14MOL   H400 6926   1.755   4.449   2.864  1.6875 -3.4196 -1.0323
   14MOL   H401 6927   1.729   4.301   2.966 -0.0543  0.3187  0.2379
   14MOL   C402 6928   2.666   4.573   3.010  0.0935 -0.3556  0.8877
   14MOL   C403 6929   2.633   4.709   2.952  0.2803 -0.6806  1.3377
   14MOL   O404 6930   2.682   4.721   2.812 -0.3586  0.5407 -0.0440
   14MOL   C405 6931   2.582   4.742   2.721 -0.3209 -0.3038 -0.9381
   14MOL   C406 6932   2.645   4.770   2.589 -0.1956 -0.3378  0.5280
   14MOL   C407 6933   2.743   4.885   2.588  0.1325 -0.1800 -0.3140
   14MOL   C408 6934   2.785   4.927   2.447 -0.8622  0.4468 -0.4220
   14MOL   C409 6935   2.912   4.997   2.429  0.1231 -0.2004  0.0193
   14MOL   C410 6936   3.036   4.904   2.434  0.1251 -1.0186 -0.3912
   14MOL   H411 6937   2.622   4.501   2.941  1.3189 -0.9214  0.6918
   14MOL   H412 6938   2.771   4.547   3.005 -0.2259 -1.3438 -0.9850
   14MOL   H413 6939   2.526   4.724   2.955  0.2080 -0.7924 -0.1831
   14MOL   H414 6940   2.504   4.814   2.747 -1.1839 -0.7645 -2.1546
   14MOL   H415 6941   2.538   4.642   2.718  0.8566 -0.8137 -1.5148
   14MOL   H416 6942   2.559   4.786   2.523 -0.9297  0.2352  1.5983
   14MOL   H417 6943   2.687   4.677   2.551 -0.8612 -1.4869  2.4859
   14MOL   H418 6944   2.704   4.975   2.635 -0.7299 -0.4526 -0.5059
   14MOL   H419 6945   2.838   4.850   2.631  1.2318  2.1972 -0.7234
   14MOL   H420 6946   2.785   4.840   2.381 -2.5793 -1.0751  1.5354
   14MOL   H421 6947   2.703   4.988   2.409  0.5449  2.0353 -0.9693
   14MOL   H422 6948   2.910   5.053   2.336 -0.5673  1.1911  0.8472
   14MOL   H423 6949   2.915   5.075   2.506  1.0164 -0.2226  0.0174
   14MOL   H424 6950   3.063   4.863   2.531  0.9247 -0.8840 -0.5499
   14MOL   H425 6951   3.024   4.820   2.365 -2.1343 -1.3104  0.3058
   14MOL   H426 6952   3.117   4.962   2.391  0.1953 -0.5603  0.3547
   14MOL   C427 6953   2.711   4.821   3.027  0.1721  0.0462 -0.0465
   14MOL   C428 6954   2.687   4.967   2.995 -0.2134 -0.2625  0.0996
   14MOL   O429 6955   2.547   5.000   3.012 -0.3842  0.1151 -0.0661
   14MOL   C430 6956   2.503   5.110   2.936  0.0270 -0.1129 -0.6924
   14MOL   C431 6957   2.354   5.137   2.955 -0.4996 -0.4188 -0.5089
   14MOL   C432 6958   2.279   5.018   2.898  0.5240 -0.2083  0.0512
   14MOL   C433 6959   2.124   5.027   2.917  0.1641 -0.3863 -0.5402
   14MOL   C434 6960   2.065   5.151   2.845 -0.8336  0.1566 -0.5799
   14MOL   C435 6961   1.918   5.180   2.878  0.4888  0.8794  0.0739
   14MOL   H436 6962   2.680   4.819   3.131 -0.3261 -0.3442 -0.2015
   14MOL   H437 6963   2.814   4.788   3.010 -1.1868 -4.8647  0.5325
   14MOL   H438 6964   2.705   4.976   2.888 -1.1452 -0.0642 -0.0405
   14MOL   H439 6965   2.531   5.096   2.832 -0.2285  1.4646 -0.9842
   14MOL   H440 6966   2.549   5.203   2.969 -1.3525  0.4442 -0.3099
   14MOL   H441 6967   2.323   5.239   2.933 -2.0605 -0.5316  1.0413
   14MOL   H442 6968   2.333   5.137   3.062  0.4247 -0.9247 -0.3151
   14MOL   H443 6969   2.287   5.023   2.789  0.0848  1.2939  0.0797
   14MOL   H444 6970   2.305   4.921   2.941 -0.2747 -0.5831 -0.2914
   14MOL   H445 6971   2.073   4.944   2.868  1.4615 -1.7499  0.3334
   14MOL   H446 6972   2.098   5.018   3.023  1.0689 -1.8698 -0.4246
   14MOL   H447 6973   2.119   5.243   2.869 -3.0348  0.8561  1.9065
   14MOL   H448 6974   2.081   5.145   2.737  0.2749 -0.2060 -0.4078
   14MOL   H449 6975   1.851   5.094   2.872  4.2233 -2.5250  3.3916
   14MOL   H450 6976   1.905   5.221   2.978  0.6284  2.3514 -0.5098
   14MOL   H451 6977   1.877   5.255   2.811  0.4630  1.9116  1.2246
   14MOL   C452 6978   2.782   5.064   3.070  0.3886  0.2938 -0.3254
   14MOL   C453 6979   2.934   5.042   3.034  0.3668 -0.2834 -0.5172
   14MOL   O454 6980   3.005   5.141   3.113 -0.0383  0.9104  0.1897
   14MOL   C455 6981   3.122   5.089   3.175  1.0993  0.0621  0.1843
   14MOL   C456 6982   3.177   5.203   3.256  0.4566 -0.3484  0.7816
   14MOL   C457 6983   3.312   5.173   3.329 -0.0984 -0.1768  0.0598
   14MOL   C458 6984   3.362   5.297   3.395 -0.3381 -0.1447 -0.0377
   14MOL   C459 6985   3.486   5.271   3.491  0.1068 -0.1558 -0.2302
   14MOL   C460 6986   3.561   5.393   3.536  0.4058  0.0561 -0.5952
   14MOL   H461 6987   2.758   5.170   3.058 -2.1324  0.0274  1.9760
   14MOL   H462 6988   2.770   5.043   3.176 -1.6551  1.1579 -0.3711
   14MOL   H463 6989   2.969   4.943   3.061  0.1468 -0.1263  0.3715
   14MOL   H464 6990   3.195   5.055   3.101 -1.6793 -3.1368 -1.2073
   14MOL   H465 6991   3.101   5.015   3.252  1.4694  0.6467  0.8537
   14MOL   H466 6992   3.105   5.237   3.331 -1.1094  0.0940 -0.8917
   14MOL   H467 6993   3.197   5.282   3.184  1.5803 -0.0026  1.4569
   14MOL   H468 6994   3.293   5.099   3.407  2.7669 -1.8405 -0.7137
   14MOL   H469 6995   3.381   5.119   3.264 -0.8394  0.7006 -1.4756
   14MOL   H470 6996   3.396   5.356   3.310 -1.6788 -0.8278 -1.0596
   14MOL   H471 6997   3.285   5.363   3.435 -0.5002  0.1809 -0.8884
   14MOL   H472 6998   3.451   5.217   3.579  1.2272  0.0341  0.3405
   14MOL   H473 6999   3.547   5.209   3.425  0.6142 -0.9779  1.0050
   14MOL   H474 7000   3.501   5.439   3.614 -0.5349 -1.8682 -0.1615
   14MOL   H475 7001   3.655   5.375   3.589  0.5767  0.7483 -0.6530
   14MOL   H476 7002   3.575   5.471   3.462  0.4430 -0.4551 -1.1271
   14MOL   C477 7003   2.956   5.074   2.885  0.4541  0.3469  0.3062
   14MOL   C478 7004   3.108   5.105   2.855 -0.6606 -0.3534 -0.2619
   14MOL   O479 7005   3.128   5.166   2.729 -0.0933  0.4340  0.2937
   14MOL   C480 7006   3.271   5.192   2.705  0.3782  0.2774  0.0374
   14MOL   C481 7007   3.290   5.264   2.569 -0.0088 -0.4081 -0.1952
   14MOL   C482 7008   3.437   5.294   2.536 -0.3157 -0.1031 -0.4978
   14MOL   C483 7009   3.452   5.355   2.401  0.1836  0.1301  0.4236
   14MOL   C484 7010   3.596   5.407   2.383 -0.2556 -0.1087 -0.0085
   14MOL   C485 7011   3.611   5.507   2.265 -0.1838 -0.3458  0.1715
   14MOL   H486 7012   2.935   4.990   2.820 -0.4439  0.2058  0.7632
   14MOL   H487 7013   2.892   5.156   2.850 -0.3532  0.5986  2.2711
   14MOL   H488 7014   3.140   5.179   2.929  2.0815  0.0863 -1.8232
   14MOL   H489 7015   3.337   5.106   2.709 -2.7883 -2.2078  0.7514
   14MOL   H490 7016   3.309   5.255   2.786  0.2198  0.0651  0.2733
   14MOL   H491 7017   3.245   5.359   2.595 -0.0507 -0.9143  1.6666
   14MOL   H492 7018   3.237   5.203   2.496  1.0430 -0.8760 -0.5849
   14MOL   H493 7019   3.475   5.359   2.615  1.0572 -1.0787 -0.3388
   14MOL   H494 7020   3.500   5.207   2.554 -0.0532 -0.1187 -1.4988
   14MOL   H495 7021   3.429   5.276   2.329  2.6530  0.0456 -0.3249
   14MOL   H496 7022   3.387   5.441   2.386 -0.6210 -0.7919 -1.5065
   14MOL   H497 7023   3.645   5.444   2.474 -1.1768  1.5763 -0.1737
   14MOL   H498 7024   3.656   5.318   2.367 -0.6216 -0.0659 -1.6658
   14MOL   H499 7025   3.595   5.468   2.164 -1.2895 -1.2587  0.6862
   14MOL   H500 7026   3.542   5.591   2.270 -0.9326 -0.8964 -0.6094
   14MOL   H501 7027   3.710   5.549   2.247 -0.3898 -0.2101 -0.6405
   14MOL   H502 7028   3.177   5.021   2.859  0.0431  0.2305  0.0804
   15MOL     C1 7029   1.416   4.053   1.812 -0.4188  0.1823  0.3127
   15MOL     C2 7030   1.478   4.055   1.669  0.0245 -0.0614 -0.2177
   15MOL     O3 7031   1.419   4.156   1.583 -0.1966 -0.0413  0.6427
   15MOL     C4 7032   1.488   4.282   1.588  0.3492  0.3097 -0.3600
   15MOL     C5 7033   1.441   4.364   1.472 -0.2715 -0.3577 -0.0123
   15MOL     C6 7034   1.481   4.300   1.340  0.0556 -0.5628 -0.7270
   15MOL     C7 7035   1.429   4.376   1.221  0.4670  0.4108  0.3813
   15MOL     C8 7036   1.453   4.302   1.086 -0.3368 -0.1453  0.1513
   15MOL     C9 7037   1.429   4.387   0.966 -0.0998 -0.2358 -0.1822
   15MOL    H10 7038   1.459   3.970   1.868  0.4204 -0.9850 -1.9582
   15MOL    H11 7039   1.449   4.136   1.873  2.4233  0.1232 -1.0436
   15MOL    H12 7040   1.585   4.070   1.682  0.0898 -0.6358 -0.0848
   15MOL    H13 7041   1.597   4.280   1.591  0.3585  1.2323  0.0222
   15MOL    H14 7042   1.471   4.341   1.678  0.6569  1.2097 -0.8789
   15MOL    H15 7043   1.479   4.466   1.476 -1.3195  0.0329  0.0044
   15MOL    H16 7044   1.334   4.380   1.481  0.2032  2.7139  1.1512
   15MOL    H17 7045   1.589   4.296   1.327  0.0114  0.1299 -1.3286
   15MOL    H18 7046   1.443   4.198   1.335  0.2523 -0.7269  0.9393
   15MOL    H19 7047   1.324   4.402   1.228  0.1287 -0.8325  0.1009
   15MOL    H20 7048   1.487   4.468   1.215  0.2047  0.5933  0.6751
   15MOL    H21 7049   1.386   4.216   1.083  0.4188 -0.7833  1.3744
   15MOL    H22 7050   1.557   4.270   1.085  0.2129  1.5281  1.7343
   15MOL    H23 7051   1.464   4.343   0.873 -1.3303 -0.5529 -0.4956
   15MOL    H24 7052   1.325   4.404   0.940 -0.8078 -1.2602  1.9035
   15MOL    H25 7053   1.480   4.483   0.978  1.8395 -0.6062 -4.5429
   15MOL    H26 7054   1.308   4.051   1.799 -0.0557 -2.6431 -3.5684
   15MOL    C27 7055   1.443   3.917   1.610  0.0436  0.0088  0.2543
   15MOL    C28 7056   1.517   3.903   1.473 -0.1123 -0.1726 -0.7966
   15MOL    O29 7057   1.659   3.890   1.493  0.4919 -0.1458  0.4085
   15MOL    C30 7058   1.739   3.998   1.444  0.2306  0.3873 -0.1822
   15MOL    C31 7059   1.881   3.986   1.499 -0.0236 -0.3730 -0.0080
   15MOL    C32 7060   1.943   3.857   1.448  0.7460  0.3264 -0.4598
   15MOL    C33 7061   2.078   3.839   1.528  0.1317 -0.4823  0.3485
   15MOL    C34 7062   2.157   3.710   1.486 -0.2777 -0.3144 -0.2406
   15MOL    C35 7063   2.297   3.705   1.550 -0.4037 -0.5077  0.3446
   15MOL    H36 7064   1.473   3.838   1.678 -1.5761 -0.2917  0.6598
   15MOL    H37 7065   1.337   3.900   1.587  0.0477  1.7335 -1.1446
   15MOL    H38 7066   1.499   3.991   1.412  0.5039 -0.4463 -1.3901
   15MOL    H39 7067   1.691   4.092   1.469 -0.2435  0.6261 -1.9300
   15MOL    H40 7068   1.734   3.990   1.336  0.2440 -0.3652 -0.1335
   15MOL    H41 7069   1.882   3.986   1.608 -1.7739  1.7828  0.0567
   15MOL    H42 7070   1.946   4.072   1.481 -0.4455 -0.6338 -3.0562
   15MOL    H43 7071   1.876   3.773   1.465 -0.6070  1.1903 -1.4351
   15MOL    H44 7072   1.964   3.853   1.341  0.1303  0.2864 -0.5791
   15MOL    H45 7073   2.140   3.927   1.515 -2.1845  1.2248  0.5680
   15MOL    H46 7074   2.039   3.826   1.629 -1.2823 -0.8024 -0.2269
   15MOL    H47 7075   2.102   3.617   1.498 -1.6715  0.9007  3.9488
   15MOL    H48 7076   2.178   3.720   1.380 -1.7220  0.1222 -0.5012
   15MOL    H49 7077   2.363   3.791   1.537 -1.1930 -0.0813 -0.9524
   15MOL    H50 7078   2.278   3.695   1.657  2.4029  1.1247  1.0422
   15MOL    H51 7079   2.349   3.617   1.513 -0.5457  0.8000 -3.1179
   15MOL    C52 7080   1.471   3.781   1.384 -0.1800  0.4772  0.4027
   15MOL    C53 7081   1.335   3.786   1.312  0.0908  0.2557  0.0329
   15MOL    O54 7082   1.352   3.811   1.173 -0.1898  0.4896  0.2053
   15MOL    C55 7083   1.413   3.930   1.133  0.6098 -0.1693 -0.0677
   15MOL    C56 7084   1.397   3.935   0.981 -0.0687 -0.6453 -0.6000
   15MOL    C57 7085   1.466   3.829   0.894 -0.3361  0.0963  0.4372
   15MOL    C58 7086   1.618   3.835   0.894 -0.3141 -0.1193 -0.6538
   15MOL    C59 7087   1.688   3.739   0.797 -0.0249 -0.1490  0.0497
   15MOL    C60 7088   1.839   3.715   0.843  0.0551 -0.3133 -0.0858
   15MOL    H61 7089   1.478   3.695   1.450  2.5414  0.6211  0.3915
   15MOL    H62 7090   1.550   3.776   1.308  0.0028 -1.7999  0.7197
   15MOL    H63 7091   1.285   3.876   1.347 -1.3819 -0.7010  0.4594
   15MOL    H64 7092   1.518   3.932   1.161  0.2429 -0.4018  1.3879
   15MOL    H65 7093   1.362   4.014   1.182  2.6882  1.1128 -0.0649
   15MOL    H66 7094   1.410   4.035   0.939  1.4537 -0.8392 -0.6170
   15MOL    H67 7095   1.293   3.924   0.951  0.1936 -0.6946 -1.4956
   15MOL    H68 7096   1.437   3.738   0.946  0.9532  0.1262  1.2180
   15MOL    H69 7097   1.417   3.823   0.797 -0.5609 -1.7099  0.6545
   15MOL    H70 7098   1.657   3.936   0.879 -0.4087 -0.2135 -1.5732
   15MOL    H71 7099   1.652   3.798   0.991  0.0005 -1.3801 -1.2328
   15MOL    H72 7100   1.634   3.645   0.785 -0.1225 -0.0951  0.0681
   15MOL    H73 7101   1.690   3.786   0.698 -0.6386  0.3200  0.2536
   15MOL    H74 7102   1.901   3.804   0.855 -0.8411  0.2132  0.8592
   15MOL    H75 7103   1.844   3.679   0.946  1.6403  1.5361  0.5276
   15MOL    H76 7104   1.894   3.648   0.778  0.8459 -0.9436  1.2116
   15MOL    C77 7105   1.249   3.660   1.338  0.9651 -0.1518 -0.0867
   15MOL    C78 7106   1.095   3.662   1.293 -0.1622  0.2570 -0.5222
   15MOL    O79 7107   1.043   3.537   1.340 -0.4515 -0.5784  0.0125
   15MOL    C80 7108   1.006   3.528   1.481 -0.0148  0.7173 -0.2576
   15MOL    C81 7109   0.992   3.373   1.510 -0.0710  0.5329 -0.0504
   15MOL    C82 7110   0.980   3.335   1.651 -0.1634  0.5011 -0.2946
   15MOL    C83 7111   0.955   3.191   1.675  0.2791 -0.1591  0.0072
   15MOL    C84 7112   0.908   3.151   1.811 -0.4414 -0.0902  0.3627
   15MOL    C85 7113   0.881   3.002   1.826 -0.0787 -0.8829 -0.6427
   15MOL    H86 7114   1.241   3.641   1.445 -1.4875  3.8390  0.5117
   15MOL    H87 7115   1.292   3.569   1.294 -0.3324 -1.1883  0.7333
   15MOL    H88 7116   1.046   3.744   1.344 -1.2367 -0.3267 -0.6143
   15MOL    H89 7117   0.912   3.579   1.502 -1.3039 -1.5960 -0.1861
   15MOL    H90 7118   1.083   3.560   1.550  1.2313  0.1203 -1.3390
   15MOL    H91 7119   1.080   3.327   1.465  0.1409  0.6613  0.2247
   15MOL    H92 7120   0.912   3.336   1.446 -0.4600  1.9784 -0.4076
   15MOL    H93 7121   1.061   3.370   1.714  1.1088  0.3730 -1.8299
   15MOL    H94 7122   0.889   3.385   1.686 -0.5703 -0.3067 -0.1759
   15MOL    H95 7123   0.881   3.161   1.600 -0.0729  0.5011  0.0932
   15MOL    H96 7124   1.046   3.132   1.661  0.7591  0.5635  0.0741
   15MOL    H97 7125   0.980   3.185   1.885  0.1026  0.4459 -0.4011
   15MOL    H98 7126   0.826   3.217   1.839  1.3555  1.3442  2.4492
   15MOL    H99 7127   0.782   2.973   1.792 -0.4263 -1.9031  1.1796
   15MOL   H100 7128   0.961   2.946   1.777 -0.0714 -1.0343 -0.4559
   15MOL   H101 7129   0.882   2.970   1.930 -0.3782  1.6702  0.1672
   15MOL   C102 7130   1.065   3.679   1.143 -0.4079  0.4032 -0.6997
   15MOL   C103 7131   0.933   3.756   1.114 -0.5453  0.0398 -0.2011
   15MOL   O104 7132   0.944   3.809   0.981 -0.3125 -0.4411 -0.0544
   15MOL   C105 7133   0.980   3.944   0.980  0.0668  0.3646 -0.0385
   15MOL   C106 7134   1.018   3.988   0.838  0.2418  0.5605 -0.5249
   15MOL   C107 7135   1.076   4.138   0.831  0.4703  0.1814 -0.1044
   15MOL   C108 7136   1.088   4.198   0.692 -0.8944 -0.0842  0.2624
   15MOL   C109 7137   1.185   4.121   0.602 -0.1526 -0.1271 -0.3785
   15MOL   C110 7138   1.192   4.185   0.462  0.2203 -0.7410  0.1985
   15MOL   H111 7139   1.144   3.740   1.098  1.3392 -0.5776  0.9493
   15MOL   H112 7140   1.056   3.585   1.089 -2.7536 -0.2612  0.8004
   15MOL   H113 7141   0.917   3.840   1.182  1.7076  1.4315 -1.3106
   15MOL   H114 7142   1.064   3.961   1.046  0.6930  0.5709 -0.8712
   15MOL   H115 7143   0.900   4.002   1.026  0.8348  2.9648 -1.8272
   15MOL   H116 7144   0.935   3.973   0.769  0.4661 -0.9076 -0.4778
   15MOL   H117 7145   1.089   3.912   0.807 -0.4359 -1.0521  1.6852
   15MOL   H118 7146   1.010   4.205   0.887  1.5651  1.9743 -0.9070
   15MOL   H119 7147   1.173   4.134   0.880  1.0110  1.1948 -1.0821
   15MOL   H120 7148   0.986   4.207   0.654 -0.3598  2.0788 -0.7263
   15MOL   H121 7149   1.122   4.300   0.709 -0.4415  0.0450 -1.3994
   15MOL   H122 7150   1.281   4.114   0.652 -0.3464 -1.9161 -0.2122
   15MOL   H123 7151   1.157   4.017   0.589 -1.1717  0.2156 -0.9935
   15MOL   H124 7152   1.103   4.168   0.400 -0.1458 -0.0605  0.5373
   15MOL   H125 7153   1.208   4.292   0.473 -3.1472 -0.2887  1.1237
   15MOL   H126 7154   1.273   4.148   0.399 -0.0701  1.1086 -1.3316
   15MOL   C127 7155   0.816   3.647   1.102 -0.4706  0.4662  0.2612
   15MOL   C128 7156   0.675   3.702   1.089  0.2070 -0.7304  0.4371
   15MOL   O129 7157   0.630   3.735   1.215 -0.5437 -0.2205 -0.9290
   15MOL   C130 7158   0.608   3.881   1.238 -0.0842  0.6523 -0.3759
   15MOL   C131 7159   0.538   3.889   1.367  0.2129  0.2394  0.1600
   15MOL   C132 7160   0.395   3.841   1.379 -0.2007  0.1427  0.0222
   15MOL   C133 7161   0.282   3.935   1.327 -0.0844  0.1345  0.1460
   15MOL   C134 7162   0.154   3.855   1.312  0.7465 -0.3373  0.7772
   15MOL   C135 7163   0.052   3.934   1.223  0.2548  0.7148 -0.0054
   15MOL   H136 7164   0.832   3.589   1.011 -0.6094  0.6511  0.1166
   15MOL   H137 7165   0.821   3.588   1.193  0.9024 -1.7315 -1.2118
   15MOL   H138 7166   0.666   3.780   1.012  0.2188 -2.3298 -1.2290
   15MOL   H139 7167   0.558   3.939   1.161  0.6276 -0.6350 -1.8232
   15MOL   H140 7168   0.707   3.926   1.242  0.6305 -0.8563 -1.0417
   15MOL   H141 7169   0.542   3.993   1.400 -2.2944  0.7001 -0.8436
   15MOL   H142 7170   0.598   3.835   1.440 -1.1418  0.7207  1.6421
   15MOL   H143 7171   0.390   3.751   1.318 -1.1505  0.9903 -1.1794
   15MOL   H144 7172   0.372   3.811   1.482  0.8084  1.7631  0.7425
   15MOL   H145 7173   0.268   4.022   1.391 -0.2487  0.7524 -0.7326
   15MOL   H146 7174   0.311   3.978   1.232  1.4437 -1.2983 -0.0685
   15MOL   H147 7175   0.177   3.756   1.271  1.6621 -0.1172  0.7552
   15MOL   H148 7176   0.106   3.850   1.410  1.9988  0.4295  1.4507
   15MOL   H149 7177   0.028   4.030   1.270  1.0060  0.2588  1.3293
   15MOL   H150 7178   0.097   3.966   1.129  1.9360  0.9436  0.8629
   15MOL   H151 7179   7.737   3.885   1.196  0.7250 -0.0745 -0.2116
   15MOL   C152 7180   0.588   3.588   1.035  0.4965  0.6954 -0.2936
   15MOL   C153 7181   0.445   3.635   1.008  0.3052 -0.4893 -0.2342
   15MOL   O154 7182   0.450   3.763   0.944  0.1765 -0.1442 -0.2892
   15MOL   C155 7183   0.329   3.823   0.908 -0.3849 -0.6287  0.3222
   15MOL   C156 7184   0.348   3.977   0.910 -0.7357 -0.9130 -0.2054
   15MOL   C157 7185   0.460   4.025   0.822  0.9564 -0.3791 -0.0099
   15MOL   C158 7186   0.491   4.174   0.848 -0.1813 -0.9983  0.1148
   15MOL   C159 7187   0.565   4.241   0.727 -0.7095 -0.2086  1.3727
   15MOL   C160 7188   0.718   4.200   0.725 -0.2168 -0.0246 -0.0674
   15MOL   H161 7189   0.631   3.559   0.939 -0.4495  0.0456 -0.5419
   15MOL   H162 7190   0.591   3.511   1.112 -1.4780 -0.0979 -0.9599
   15MOL   H163 7191   0.391   3.656   1.100 -0.2203  0.5934 -0.7655
   15MOL   H164 7192   0.248   3.802   0.979 -1.1878 -3.5827 -1.3933
   15MOL   H165 7193   0.296   3.790   0.810  0.9742  2.7612 -1.3353
   15MOL   H166 7194   0.385   3.999   1.010 -0.6097  2.5587 -0.9795
   15MOL   H167 7195   0.250   4.018   0.884  0.7146  1.6014 -1.8156
   15MOL   H168 7196   0.554   3.971   0.835  0.4909 -0.6931  2.2345
   15MOL   H169 7197   0.430   4.013   0.718 -1.8228 -0.6534  0.7631
   15MOL   H170 7198   0.402   4.236   0.863  0.9964  1.1581 -1.5540
   15MOL   H171 7199   0.558   4.169   0.934 -0.8696  4.4933  1.1934
   15MOL   H172 7200   0.508   4.223   0.636  1.3432  1.0375 -0.1946
   15MOL   H173 7201   0.553   4.348   0.741  0.0232  0.2181 -1.0141
   15MOL   H174 7202   0.733   4.099   0.686  1.3063  0.8927 -1.8989
   15MOL   H175 7203   0.776   4.262   0.657 -0.0289 -1.6696 -1.4410
   15MOL   H176 7204   0.761   4.215   0.824 -0.1275  2.6745 -0.4883
   15MOL   C177 7205   0.368   3.522   0.922  0.1944 -0.3948  0.2523
   15MOL   C178 7206   0.373   3.374   0.974 -0.0008 -0.2405 -0.4963
   15MOL   O179 7207   0.267   3.351   1.064  0.1388 -0.4801  0.5766
   15MOL   C180 7208   0.261   3.410   1.190 -0.1004 -0.1130 -0.4728
   15MOL   C181 7209   0.150   3.343   1.268  0.0452  0.1235  0.1545
   15MOL   C182 7210   0.155   3.191   1.267 -0.0535  0.3163 -0.1103
   15MOL   C183 7211   0.068   3.122   1.371  0.0513 -0.1393  0.3837
   15MOL   C184 7212   0.062   2.968   1.345  0.3743 -0.2373 -0.1866
   15MOL   C185 7213   7.771   2.890   1.452 -0.5415  0.4295 -0.4484
   15MOL   H186 7214   0.263   3.551   0.934 -0.4985 -2.3572 -0.9514
   15MOL   H187 7215   0.392   3.546   0.819 -3.0972 -0.9361 -0.7031
   15MOL   H188 7216   0.475   3.347   0.999  0.0548  0.4511  0.0681
   15MOL   H189 7217   0.246   3.518   1.192 -1.9232 -0.3671  1.1387
   15MOL   H190 7218   0.356   3.397   1.243 -0.2705  3.2640  0.7800
   15MOL   H191 7219   0.059   3.365   1.213  0.1093 -0.0047 -0.0008
   15MOL   H192 7220   0.154   3.377   1.372 -0.9344 -2.6674  1.1476
   15MOL   H193 7221   0.120   3.152   1.172 -1.3807  0.2048  0.4174
   15MOL   H194 7222   0.259   3.161   1.278  0.2083  1.6544  1.3301
   15MOL   H195 7223   0.103   3.145   1.472  2.8734 -0.1634 -0.5596
   15MOL   H196 7224   7.753   3.179   1.370  0.9023  1.2646  0.0954
   15MOL   H197 7225   0.007   2.943   1.254 -4.1110  2.2041  1.6985
   15MOL   H198 7226   0.162   2.926   1.331  0.3400 -0.7226  1.0006
   15MOL   H199 7227   7.762   2.784   1.430 -0.8007  0.2142  0.6817
   15MOL   H200 7228   0.054   2.894   1.542  0.7115 -2.7092 -1.0964
   15MOL   H201 7229   7.683   2.944   1.486 -0.2225  2.4432 -2.6612
   15MOL   C202 7230   0.332   3.274   0.870 -0.2026 -0.4020 -1.5816
   15MOL   C203 7231   0.322   3.124   0.906  0.3236 -0.6512 -0.1990
   15MOL   O204 7232   0.448   3.058   0.937  0.0332  0.2314 -0.6452
   15MOL   C205 7233   0.475   3.051   1.070  0.2504 -0.2597 -0.6623
   15MOL   C206 7234   0.610   2.994   1.082 -0.1245  0.2253 -0.0181
   15MOL   C207 7235   0.665   2.997   1.231  0.1433 -0.2413  0.5961
   15MOL   C208 7236   0.806   2.937   1.232  0.7278 -0.4174 -0.8123
   15MOL   C209 7237   0.870   2.968   1.372  0.4546 -0.7569 -0.0654
   15MOL   C210 7238   1.016   2.932   1.396 -0.1855  0.6810 -0.3286
   15MOL   H211 7239   0.239   3.317   0.832 -0.9703 -0.8441 -0.2230
   15MOL   H212 7240   0.404   3.282   0.788 -0.1093 -0.2019 -1.4815
   15MOL   H213 7241   0.249   3.100   0.983  1.8325 -1.6837  0.9372
   15MOL   H214 7242   0.398   2.986   1.112  1.4798 -1.5708 -0.4107
   15MOL   H215 7243   0.470   3.142   1.130 -1.2257 -1.1252  0.5633
   15MOL   H216 7244   0.685   3.031   1.011 -0.6529 -0.4850 -0.9519
   15MOL   H217 7245   0.603   2.886   1.071 -1.9626  0.2110  1.1187
   15MOL   H218 7246   0.659   3.093   1.282 -0.3857  0.0362  0.0279
   15MOL   H219 7247   0.605   2.928   1.290 -1.9540 -0.6256 -1.9191
   15MOL   H220 7248   0.819   2.831   1.213  1.4502 -0.3887 -0.4774
   15MOL   H221 7249   0.863   2.990   1.156  1.0246 -1.9908 -1.6971
   15MOL   H222 7250   0.863   3.076   1.385  1.7208 -0.7098  0.3323
   15MOL   H223 7251   0.807   2.921   1.448  0.2180 -0.9871 -0.3997
   15MOL   H224 7252   1.042   2.828   1.379  1.5163  1.1453 -0.5855
   15MOL   H225 7253   1.084   2.986   1.330  0.6176  0.2869  0.1769
   15MOL   H226 7254   1.047   2.945   1.500  2.3796 -1.7678 -0.7392
   15MOL   C227 7255   0.264   3.043   0.790 -0.0193 -0.5976 -0.1324
   15MOL   C228 7256   0.250   2.892   0.834 -0.1325  0.1835 -0.2554
   15MOL   O229 7257   0.114   2.874   0.873  0.6304 -0.3763 -0.5011
   15MOL   C230 7258   0.088   2.790   0.985 -0.7871  0.6911 -0.4468
   15MOL   C231 7259   7.715   2.778   0.998  0.2017 -0.2789 -0.0185
   15MOL   C232 7260   7.661   2.717   1.126 -0.2022  0.2996  0.2141
   15MOL   C233 7261   7.531   2.640   1.106  0.0955  0.3865  0.1165
   15MOL   C234 7262   7.402   2.727   1.072 -0.8387  0.2223 -0.1539
   15MOL   C235 7263   7.272   2.647   1.041  0.2447  1.0219 -0.1408
   15MOL   H236 7264   0.174   3.089   0.749  1.5863  1.9382 -0.9420
   15MOL   H237 7265   0.339   3.053   0.712  0.1911  1.2295  0.2818
   15MOL   H238 7266   0.320   2.868   0.914  0.4150  3.1250  0.2038
   15MOL   H239 7267   0.116   2.856   1.067  0.3061 -2.3113  1.6853
   15MOL   H240 7268   0.131   2.690   0.982 -0.3694  0.8851 -0.8525
   15MOL   H241 7269   7.681   2.720   0.913  2.7151 -1.1671 -0.4512
   15MOL   H242 7270   7.663   2.873   0.987  1.8492  0.6680  0.1150
   15MOL   H243 7271   7.727   2.643   1.170  1.9926  1.5032 -1.0047
   15MOL   H244 7272   7.633   2.792   1.201 -2.5662 -0.7409  0.4379
   15MOL   H245 7273   7.552   2.560   1.035  3.4726  0.3878  1.0380
   15MOL   H246 7274   7.511   2.583   1.197  2.9615 -2.4766 -0.9686
   15MOL   H247 7275   7.373   2.805   1.143  0.9131  0.1147  0.7132
   15MOL   H248 7276   7.430   2.780   0.980 -1.1956  1.5782  0.5011
   15MOL   H249 7277   7.187   2.701   1.001 -1.3595 -1.1749  0.2311
   15MOL   H250 7278   7.303   2.572   0.968  0.1861  1.2492 -0.4034
   15MOL   H251 7279   7.231   2.591   1.125 -1.6110 -0.2951 -1.8946
   15MOL   C252 7280   0.281   2.786   0.713 -0.0476 -0.2346  0.2353
   15MOL   C253 7281   0.432   2.752   0.691 -0.1521 -0.5658 -0.5669
   15MOL   O254 7282   0.463   2.818   0.565  0.7456 -0.1694 -0.5169
   15MOL   C255 7283   0.599   2.842   0.534  0.7547 -0.2528  0.1458
   15MOL   C256 7284   0.615   2.957   0.440  0.4763 -0.2820 -0.0147
   15MOL   C257 7285   0.582   3.096   0.490 -0.4688 -0.2388 -0.5116
   15MOL   C258 7286   0.594   3.209   0.390  0.5473 -0.5254 -0.0446
   15MOL   C259 7287   0.512   3.343   0.432 -0.1636 -0.3529  0.3671
   15MOL   C260 7288   0.494   3.454   0.326 -0.5179 -0.2739 -0.3525
   15MOL   H261 7289   0.228   2.691   0.723  1.1337 -0.8538  0.6838
   15MOL   H262 7290   0.235   2.811   0.617  1.3685 -2.1260 -0.9683
   15MOL   H263 7291   0.493   2.801   0.768  0.3835 -2.9792  0.6018
   15MOL   H264 7292   0.641   2.750   0.492  1.4141 -1.4863  3.4057
   15MOL   H265 7293   0.652   2.871   0.625 -1.0507 -0.7977  1.3916
   15MOL   H266 7294   0.558   2.945   0.348  0.3370 -0.9267  0.1537
   15MOL   H267 7295   0.720   2.964   0.413  0.7633  1.5216  1.4794
   15MOL   H268 7296   0.476   3.083   0.514 -0.2756  0.1192  0.5929
   15MOL   H269 7297   0.627   3.109   0.588 -0.8920 -0.0987 -0.3341
   15MOL   H270 7298   0.695   3.227   0.355  0.1791  1.0356 -0.3211
   15MOL   H271 7299   0.540   3.179   0.300 -0.5640  3.6109 -0.8381
   15MOL   H272 7300   0.413   3.309   0.463 -0.1613 -0.3132  0.4188
   15MOL   H273 7301   0.553   3.383   0.526 -0.0044 -0.5849  0.3963
   15MOL   H274 7302   0.579   3.520   0.343 -0.6381 -1.1283  4.0381
   15MOL   H275 7303   0.488   3.405   0.229 -1.5107  1.3677 -1.1412
   15MOL   H276 7304   0.406   3.517   0.339 -0.6153 -0.7957  1.7084
   15MOL   C277 7305   0.460   2.597   0.684 -0.0528  0.1076 -0.1215
   15MOL   C278 7306   0.467   2.535   0.824  0.5521  0.4443 -0.1263
   15MOL   O279 7307   0.431   2.403   0.825 -0.1189 -0.2934 -0.0650
   15MOL   C280 7308   0.288   2.377   0.837 -0.1855  0.3023 -0.3166
   15MOL   C281 7309   0.261   2.225   0.867 -0.2045  0.6627  0.0801
   15MOL   C282 7310   0.247   2.137   0.738 -0.3849  0.1067 -0.4934
   15MOL   C283 7311   0.192   1.993   0.743 -1.0198  0.7047 -0.1210
   15MOL   C284 7312   0.202   1.943   0.600  0.2030  0.4274 -0.1430
   15MOL   C285 7313   0.164   1.796   0.586 -0.4854 -0.9293  0.4439
   15MOL   H286 7314   0.383   2.544   0.628  0.5989 -1.6954  0.6667
   15MOL   H287 7315   0.559   2.579   0.641 -0.1486 -1.2213  0.2191
   15MOL   H288 7316   0.400   2.596   0.884  0.9479  2.1756 -1.3909
   15MOL   H289 7317   0.220   2.415   0.760 -1.4154  0.2334  0.7213
   15MOL   H290 7318   0.249   2.422   0.929 -1.0952  2.2299 -1.6054
   15MOL   H291 7319   0.168   2.217   0.924 -0.4827 -1.2990 -0.6169
   15MOL   H292 7320   0.343   2.193   0.930 -0.8723  0.6850  0.9860
   15MOL   H293 7321   0.188   2.202   0.674  0.1027  0.8867 -0.1526
   15MOL   H294 7322   0.344   2.136   0.689  0.6747  2.1681  1.4714
   15MOL   H295 7323   0.252   1.934   0.813 -1.3267  0.7949  0.2209
   15MOL   H296 7324   0.093   1.992   0.789 -0.9432  1.7181  0.0833
   15MOL   H297 7325   0.150   2.002   0.524 -2.3220 -1.3312  0.1796
   15MOL   H298 7326   0.301   1.948   0.554  0.0675  0.2998 -0.4510
   15MOL   H299 7327   0.234   1.734   0.642  1.9404  0.3032 -1.1120
   15MOL   H300 7328   0.064   1.776   0.624  0.1702 -1.6392  1.8022
   15MOL   H301 7329   0.180   1.766   0.483 -0.1410  0.3349  0.1179
   15MOL   C302 7330   0.605   2.557   0.890 -0.7567 -0.1599 -1.1913
   15MOL   C303 7331   0.616   2.497   1.032  0.3820  0.8427  0.2018
   15MOL   O304 7332   0.579   2.587   1.133 -0.4476 -0.6351 -0.2157
   15MOL   C305 7333   0.523   2.538   1.253 -0.4621  0.4238  0.2220
   15MOL   C306 7334   0.426   2.635   1.319 -0.2950  0.3489 -0.4351
   15MOL   C307 7335   0.364   2.585   1.453 -0.4349  0.1507  0.9305
   15MOL   C308 7336   0.462   2.552   1.561 -0.6803 -0.2369  0.0454
   15MOL   C309 7337   0.561   2.664   1.591  0.2336 -0.7670  0.5819
   15MOL   C310 7338   0.679   2.618   1.679 -0.2196 -0.8762 -0.2655
   15MOL   H311 7339   0.685   2.513   0.830 -0.9153 -1.1634 -0.6743
   15MOL   H312 7340   0.627   2.664   0.890 -1.9392  0.1132  1.3136
   15MOL   H313 7341   0.552   2.409   1.031  1.4821  0.0140  0.9475
   15MOL   H314 7342   0.604   2.516   1.323 -0.3220 -0.9832 -0.3487
   15MOL   H315 7343   0.465   2.449   1.227 -0.0245  1.2728 -3.9221
   15MOL   H316 7344   0.343   2.650   1.250  0.2749 -0.8625 -1.4097
   15MOL   H317 7345   0.465   2.736   1.331 -0.6244  0.2956  1.2602
   15MOL   H318 7346   0.294   2.666   1.475 -0.2057  1.1729 -1.8490
   15MOL   H319 7347   0.296   2.502   1.434 -1.1250  1.4372 -2.8503
   15MOL   H320 7348   0.408   2.520   1.651  1.0043  0.4485  1.3279
   15MOL   H321 7349   0.528   2.473   1.527  2.0388  1.5677  0.9852
   15MOL   H322 7350   0.608   2.708   1.504 -4.1475  1.6982 -0.7328
   15MOL   H323 7351   0.508   2.750   1.633 -0.1810 -1.0645  0.6822
   15MOL   H324 7352   0.752   2.697   1.662 -1.9208  0.5893 -0.8914
   15MOL   H325 7353   0.651   2.622   1.785 -0.5555  1.4972 -0.4065
   15MOL   H326 7354   0.720   2.524   1.642  2.0964  0.1067 -0.2752
   15MOL   C327 7355   0.750   2.423   1.068  0.1896  0.0493 -0.0966
   15MOL   C328 7356   0.870   2.504   1.107 -1.0736  0.0075  0.6332
   15MOL   O329 7357   0.955   2.421   1.188  0.0921  0.7027 -0.2681
   15MOL   C330 7358   0.938   2.437   1.331  0.0620 -0.2196 -0.4459
   15MOL   C331 7359   1.052   2.372   1.410  0.3489 -0.3714  0.4397
   15MOL   C332 7360   1.109   2.442   1.535 -0.3194  0.2151  0.7673
   15MOL   C333 7361   1.007   2.447   1.657  0.5454 -0.1145  0.1571
   15MOL   C334 7362   1.080   2.463   1.792 -0.2392  0.4781 -0.9392
   15MOL   C335 7363   0.982   2.518   1.901  0.7483 -0.5815 -0.1191
   15MOL   H336 7364   0.768   2.344   0.995 -1.4628  1.1701 -1.7740
   15MOL   H337 7365   0.717   2.379   1.162  0.0400  0.9267  0.2722
   15MOL   H338 7366   0.836   2.594   1.158  2.3048  0.6533  1.8706
   15MOL   H339 7367   0.847   2.384   1.358  0.4799  0.1385  1.7482
   15MOL   H340 7368   0.930   2.541   1.365  1.8724 -0.6209  1.2750
   15MOL   H341 7369   1.135   2.376   1.340 -2.0833 -0.7930 -2.5589
   15MOL   H342 7370   1.027   2.266   1.414 -2.6842  0.2776  0.5530
   15MOL   H343 7371   1.204   2.395   1.560  0.4391  0.3955 -1.6639
   15MOL   H344 7372   1.145   2.540   1.505 -0.8369  0.5764  1.3011
   15MOL   H345 7373   0.955   2.540   1.636  0.1371 -0.7801 -1.9429
   15MOL   H346 7374   0.930   2.370   1.665  1.8367 -1.5242 -0.7100
   15MOL   H347 7375   1.109   2.363   1.823 -1.7629 -0.3479 -2.1139
   15MOL   H348 7376   1.168   2.526   1.782  0.8955 -0.9795 -0.2242
   15MOL   H349 7377   0.926   2.600   1.855 -0.8949 -1.6586 -0.0794
   15MOL   H350 7378   0.909   2.440   1.916 -0.4783  0.6825  0.6038
   15MOL   H351 7379   1.029   2.555   1.992  2.4474  1.9193 -1.9248
   15MOL   C352 7380   0.958   2.544   0.984  0.1099  0.0965  0.0145
   15MOL   C353 7381   1.071   2.646   1.022 -0.4867  0.0793 -0.0866
   15MOL   O354 7382   1.076   2.740   0.914 -0.4921 -0.4846  0.0183
   15MOL   C355 7383   0.994   2.850   0.927 -0.1175 -0.1934  0.5893
   15MOL   C356 7384   0.954   2.902   0.787 -0.3894 -0.3284 -0.7287
   15MOL   C357 7385   1.075   2.962   0.717 -0.4361 -0.4133 -0.5315
   15MOL   C358 7386   1.043   2.991   0.562  0.2786  0.5169 -0.4626
   15MOL   C359 7387   1.147   3.079   0.490 -0.3850 -0.0234 -0.0366
   15MOL   C360 7388   1.102   3.119   0.351 -0.8348  0.0699 -0.3119
   15MOL   H361 7389   0.998   2.462   0.925  0.9953  0.8279 -0.4120
   15MOL   H362 7390   0.889   2.591   0.914  0.0067  0.0070  0.0561
   15MOL   H363 7391   1.037   2.696   1.112  0.5783  1.9465 -0.6924
   15MOL   H364 7392   1.031   2.935   0.984  0.4869 -0.6864  0.9361
   15MOL   H365 7393   0.902   2.819   0.977  1.2236 -1.9373  2.0404
   15MOL   H366 7394   0.870   2.971   0.788 -1.5985 -1.7711 -1.4931
   15MOL   H367 7395   0.916   2.814   0.736 -0.6739 -0.2080 -0.7271
   15MOL   H368 7396   1.107   3.057   0.760 -1.0063 -1.1143  1.4621
   15MOL   H369 7397   1.164   2.900   0.718  0.0177  0.2405  1.1239
   15MOL   H370 7398   1.021   2.901   0.505  0.8235 -0.5931  1.0452
   15MOL   H371 7399   0.949   3.046   0.551 -0.1034 -0.3139 -1.3601
   15MOL   H372 7400   1.152   3.173   0.544 -0.9666 -0.5376  0.9220
   15MOL   H373 7401   1.250   3.043   0.492 -0.1293  0.6940 -0.2305
   15MOL   H374 7402   1.124   3.039   0.281 -0.0140  0.4033 -0.4326
   15MOL   H375 7403   0.995   3.139   0.355 -1.0328 -0.7194 -1.4739
   15MOL   H376 7404   1.152   3.211   0.322  0.1841  0.1151  1.4710
   15MOL   C377 7405   1.210   2.586   1.037 -0.1321 -0.8870  0.1149
   15MOL   C378 7406   1.332   2.680   1.076 -0.7021 -0.2570 -1.3438
   15MOL   O379 7407   1.439   2.591   1.108  0.0999 -0.1533 -0.2452
   15MOL   C380 7408   1.533   2.582   0.996 -0.0560  0.2676 -0.2697
   15MOL   C381 7409   1.638   2.474   1.042 -0.8804 -0.2862 -0.1541
   15MOL   C382 7410   1.697   2.505   1.185  0.5069 -0.0421 -0.2553
   15MOL   C383 7411   1.786   2.386   1.230  0.0220  0.5146  0.5683
   15MOL   C384 7412   1.841   2.415   1.377  0.5227 -0.2247  0.3385
   15MOL   C385 7413   1.915   2.298   1.435  0.2106  0.0893  0.2712
   15MOL   H386 7414   1.194   2.512   1.115  2.6731 -0.9955  0.6330
   15MOL   H387 7415   1.236   2.528   0.949 -0.5242 -0.4654 -0.2855
   15MOL   H388 7416   1.357   2.756   1.002  2.2925  1.1994  1.0880
   15MOL   H389 7417   1.583   2.677   0.982 -1.5560  1.0718 -0.2062
   15MOL   H390 7418   1.472   2.565   0.908 -0.7578  0.4349  0.1870
   15MOL   H391 7419   1.723   2.455   0.977  0.0661 -0.5855  1.1471
   15MOL   H392 7420   1.576   2.385   1.047  0.8736 -1.8347 -3.8508
   15MOL   H393 7421   1.752   2.598   1.179  0.0932  0.1703 -0.6986
   15MOL   H394 7422   1.612   2.514   1.253 -0.3693  1.1667 -1.5067
   15MOL   H395 7423   1.712   2.307   1.239  1.4001 -1.0540 -1.4465
   15MOL   H396 7424   1.860   2.360   1.154 -2.5831 -1.2732 -1.4188
   15MOL   H397 7425   1.916   2.491   1.360 -0.6047  0.5427 -1.4086
   15MOL   H398 7426   1.757   2.440   1.442  0.1319 -0.4423 -0.0775
   15MOL   H399 7427   1.979   2.337   1.514 -0.3339  0.2178  0.6564
   15MOL   H400 7428   1.854   2.228   1.492  1.4511 -0.1429  1.3484
   15MOL   H401 7429   1.971   2.241   1.361  2.1891 -0.0869  1.8761
   15MOL   C402 7430   1.300   2.755   1.205  0.4710  0.5422  0.5925
   15MOL   C403 7431   1.413   2.850   1.244 -0.2902 -0.1124  0.0531
   15MOL   O404 7432   1.371   2.923   1.360  0.2118 -0.6381 -0.4148
   15MOL   C405 7433   1.451   2.908   1.484  0.7866 -0.1425  0.7044
   15MOL   C406 7434   1.387   3.000   1.586  0.0046 -0.3874 -0.1827
   15MOL   C407 7435   1.396   3.151   1.541  1.1049  0.4054  0.2338
   15MOL   C408 7436   1.364   3.245   1.658 -0.4250  1.0355 -0.1075
   15MOL   C409 7437   1.355   3.388   1.607  0.6273 -0.6412  0.2902
   15MOL   C410 7438   1.348   3.492   1.720 -0.5827 -0.1489  0.4961
   15MOL   H411 7439   1.282   2.686   1.287  0.7032  1.2032  1.1973
   15MOL   H412 7440   1.210   2.811   1.181  0.7570 -0.1956 -2.5060
   15MOL   H413 7441   1.505   2.794   1.262  0.0980 -0.1121 -1.8825
   15MOL   H414 7442   1.550   2.952   1.479 -0.0197  1.7771  1.3236
   15MOL   H415 7443   1.452   2.806   1.522  0.5626 -2.2687 -4.5428
   15MOL   H416 7444   1.440   2.982   1.680  0.8806 -0.0163 -0.5953
   15MOL   H417 7445   1.279   2.990   1.590 -0.0831  0.2201 -0.8896
   15MOL   H418 7446   1.496   3.166   1.501  0.2667  0.9639 -1.6775
   15MOL   H419 7447   1.323   3.177   1.464  0.8492 -1.6483 -0.2525
   15MOL   H420 7448   1.271   3.224   1.711  0.6958 -0.1951  1.4246
   15MOL   H421 7449   1.449   3.236   1.726 -1.6273 -0.3882  1.2304
   15MOL   H422 7450   1.442   3.419   1.550  0.3696  0.3856  0.4489
   15MOL   H423 7451   1.265   3.398   1.546  0.9566  1.6114  0.1267
   15MOL   H424 7452   1.432   3.474   1.787 -0.0488 -0.1298 -0.1591
   15MOL   H425 7453   1.360   3.595   1.688  1.8043 -0.2683  0.9278
   15MOL   H426 7454   1.255   3.492   1.776 -0.2684 -1.6736  1.0470
   15MOL   C427 7455   1.428   2.969   1.144  0.7562  0.0411  0.0073
   15MOL   C428 7456   1.549   3.056   1.179 -0.4286  0.3416  0.3066
   15MOL   O429 7457   1.657   2.966   1.150  0.3074  0.4698  0.3534
   15MOL   C430 7458   1.761   2.963   1.249 -0.2017  1.1615  0.2757
   15MOL   C431 7459   1.862   2.879   1.177  0.1604  0.3199  0.3735
   15MOL   C432 7460   1.975   2.815   1.260  0.1928 -0.5911  0.0746
   15MOL   C433 7461   2.037   2.914   1.363  0.6601  0.2914 -0.6593
   15MOL   C434 7462   2.172   2.868   1.428  0.3878 -0.3640  0.2477
   15MOL   C435 7463   2.287   2.857   1.329 -0.3597  0.4041 -0.2280
   15MOL   H436 7464   1.446   2.933   1.043  1.3941 -0.0906  0.1671
   15MOL   H437 7465   1.330   3.016   1.132  0.5529  0.1356  1.9345
   15MOL   H438 7466   1.542   3.086   1.283  0.2109  0.8106  0.2153
   15MOL   H439 7467   1.726   2.915   1.340  1.2284 -1.1122 -0.3462
   15MOL   H440 7468   1.802   3.058   1.285  2.6497 -0.3318  1.1256
   15MOL   H441 7469   1.910   2.950   1.108 -0.4373 -1.1759 -1.6407
   15MOL   H442 7470   1.811   2.805   1.116  0.3830 -1.6393  2.5011
   15MOL   H443 7471   1.929   2.730   1.310  0.5486 -0.7325  0.1577
   15MOL   H444 7472   2.050   2.778   1.191 -0.4001 -0.2127 -0.7887
   15MOL   H445 7473   2.051   3.015   1.323 -1.2661  0.7779 -0.1756
   15MOL   H446 7474   1.959   2.938   1.435  1.8990 -1.0628  1.1517
   15MOL   H447 7475   2.220   2.935   1.500 -1.0366 -0.2392  1.1202
   15MOL   H448 7476   2.155   2.776   1.484 -1.2139 -1.7734 -2.4632
   15MOL   H449 7477   2.267   2.777   1.258  0.9547 -1.7711  1.7763
   15MOL   H450 7478   2.299   2.948   1.270 -0.1315  1.0794  0.8472
   15MOL   H451 7479   2.377   2.841   1.390 -1.9686  0.3326  2.1859
   15MOL   C452 7480   1.565   3.179   1.086  0.0007  0.8568  0.9757
   15MOL   C453 7481   1.467   3.292   1.113  0.4901  0.0156  0.2586
   15MOL   O454 7482   1.339   3.240   1.068  0.0157  0.0672 -0.2243
   15MOL   C455 7483   1.234   3.300   1.148  0.9089  0.4897 -0.5430
   15MOL   C456 7484   1.099   3.241   1.124  0.6364  0.0665 -0.1769
   15MOL   C457 7485   1.041   3.285   1.000 -0.7011  0.1855 -0.2189
   15MOL   C458 7486   0.899   3.232   0.967  0.3128 -0.0534  0.1013
   15MOL   C459 7487   0.866   3.278   0.822 -0.4727 -0.2011  0.1107
   15MOL   C460 7488   0.714   3.277   0.796 -0.7283  0.2984 -0.1872
   15MOL   H461 7489   1.667   3.213   1.102  0.7017 -0.5507 -0.3155
   15MOL   H462 7490   1.552   3.155   0.980  0.0275  1.6000  0.8026
   15MOL   H463 7491   1.480   3.304   1.221 -0.3462 -1.6763  0.5513
   15MOL   H464 7492   1.235   3.408   1.131  2.7605  0.6764  0.6041
   15MOL   H465 7493   1.252   3.276   1.253  0.0627  0.5570 -0.3773
   15MOL   H466 7494   1.022   3.255   1.199 -1.0276  0.0077 -1.8369
   15MOL   H467 7495   1.113   3.134   1.109  1.5247  0.0656  0.6449
   15MOL   H468 7496   1.045   3.394   0.990 -0.8497  0.3749  1.7328
   15MOL   H469 7497   1.112   3.252   0.925 -1.4237  0.4030 -1.0148
   15MOL   H470 7498   0.910   3.124   0.971  1.6024  0.0650 -0.1563
   15MOL   H471 7499   0.824   3.277   1.033 -0.6183 -0.8323 -0.4166
   15MOL   H472 7500   0.902   3.381   0.819 -0.1979 -0.2712  1.0095
   15MOL   H473 7501   0.911   3.222   0.740  1.0059  0.5299  0.4094
   15MOL   H474 7502   0.693   3.170   0.786 -0.3118  0.2684 -0.8125
   15MOL   H475 7503   0.654   3.321   0.875 -1.4134  0.6686 -0.9072
   15MOL   H476 7504   0.686   3.313   0.697 -1.0595  0.3866 -0.0612
   15MOL   C477 7505   1.497   3.428   1.049 -0.1405  0.2626 -0.4268
   15MOL   C478 7506   1.641   3.480   1.083 -0.1386 -0.2347 -0.2790
   15MOL   O479 7507   1.665   3.490   1.223 -0.5570  0.2361 -0.2531
   15MOL   C480 7508   1.793   3.535   1.257  0.4073 -0.3180  0.3808
   15MOL   C481 7509   1.814   3.500   1.406  0.2255  0.7231 -0.5312
   15MOL   C482 7510   1.801   3.358   1.442 -0.2934 -0.0232  0.5228
   15MOL   C483 7511   1.829   3.331   1.596  0.5953  0.3279 -0.1752
   15MOL   C484 7512   1.793   3.194   1.645 -0.2387  0.0604 -0.6464
   15MOL   C485 7513   1.745   3.199   1.794  0.2719 -0.8460  0.5823
   15MOL   H486 7514   1.485   3.420   0.941  1.7241  0.1008 -0.6248
   15MOL   H487 7515   1.424   3.505   1.076 -1.8907 -1.2725 -0.6763
   15MOL   H488 7516   1.710   3.403   1.048  0.9792  1.1449 -1.1864
   15MOL   H489 7517   1.817   3.639   1.234 -0.7319 -0.2214 -0.4539
   15MOL   H490 7518   1.857   3.463   1.206  1.6614  0.3094  1.0434
   15MOL   H491 7519   1.741   3.553   1.468 -1.2475 -1.4150 -0.3975
   15MOL   H492 7520   1.916   3.528   1.432  0.4404  0.6959 -1.3340
   15MOL   H493 7521   1.698   3.339   1.415 -0.1722  3.0381 -2.4507
   15MOL   H494 7522   1.864   3.296   1.378 -1.3877  0.6523 -1.2445
   15MOL   H495 7523   1.925   3.356   1.641  0.4827  0.4101  0.0168
   15MOL   H496 7524   1.758   3.400   1.641  3.2317  3.7455 -1.1165
   15MOL   H497 7525   1.708   3.159   1.586 -1.5052  1.5591  0.2152
   15MOL   H498 7526   1.880   3.131   1.629 -0.4778 -0.2064 -0.8923
   15MOL   H499 7527   1.735   3.095   1.827 -0.9285 -1.0534 -0.4121
   15MOL   H500 7528   1.820   3.252   1.853 -0.5606 -0.6390  1.4824
   15MOL   H501 7529   1.648   3.247   1.808 -0.6989 -2.6106  0.1323
   15MOL   H502 7530   1.657   3.576   1.034 -0.2124  1.0835  2.1926
   16MOL     C1 7531   0.921   1.094   6.955 -0.2247  0.5522  0.6143
   16MOL     C2 7532   1.072   1.070   6.924  0.0652  0.2178 -0.3936
   16MOL     O3 7533   1.092   0.934   6.914 -0.1175 -0.0330 -0.2250
   16MOL     C4 7534   1.140   0.905   6.787 -0.1906  0.5181 -0.0107
   16MOL     C5 7535   1.171   0.753   6.786 -0.7678  0.0564 -0.0807
   16MOL     C6 7536   1.306   0.719   6.857  0.3446 -0.1350 -0.5118
   16MOL     C7 7537   1.325   0.569   6.875  0.4850 -0.2144 -0.0915
   16MOL     C8 7538   1.437   0.525   6.975  0.2918 -1.1520  0.2217
   16MOL     C9 7539   1.589   0.574   6.954  0.8287  0.2953 -0.2249
   16MOL    H10 7540   0.854   1.075   6.872  0.7157  0.1248 -0.0612
   16MOL    H11 7541   0.887   1.032   7.038 -0.7266 -0.1658 -0.1354
   16MOL    H12 7542   1.103   1.122   6.833  2.4189 -0.4707 -0.0284
   16MOL    H13 7543   1.230   0.959   6.756  0.0710 -0.2692 -0.6310
   16MOL    H14 7544   1.062   0.924   6.714 -0.6160 -1.3644 -0.0668
   16MOL    H15 7545   1.199   0.724   6.684  1.8065 -2.1318  1.1832
   16MOL    H16 7546   1.088   0.701   6.834 -3.5471  3.9484 -0.4561
   16MOL    H17 7547   1.390   0.771   6.811  0.7458 -0.9219 -0.6928
   16MOL    H18 7548   1.288   0.757   6.957  0.8270 -0.1331 -0.4250
   16MOL    H19 7549   1.229   0.527   6.902  0.1253 -0.4549 -1.6654
   16MOL    H20 7550   1.360   0.526   6.781 -1.2890 -1.7630 -0.0509
   16MOL    H21 7551   1.446   0.417   6.991  0.1577 -1.4426 -1.5403
   16MOL    H22 7552   1.405   0.572   7.068 -2.2704 -0.7706 -0.8090
   16MOL    H23 7553   1.666   0.519   7.007 -0.2043 -1.1248 -0.1726
   16MOL    H24 7554   1.618   0.550   6.852 -3.0421 -2.2636 -0.8280
   16MOL    H25 7555   1.604   0.681   6.968 -1.0369  0.4514  0.7487
   16MOL    H26 7556   0.896   1.200   6.967  1.1038  0.7304  2.1363
   16MOL    C27 7557   1.144   1.125   7.045  0.2342 -0.4229 -0.4340
   16MOL    C28 7558   1.298   1.128   7.032 -0.1431  0.9523  0.1416
   16MOL    O29 7559   1.320   1.211   6.916 -0.2283  0.9525  0.0409
   16MOL    C30 7560   1.434   1.173   6.833  0.2113 -0.3997 -0.5854
   16MOL    C31 7561   1.423   1.239   6.695  0.8946  0.3498 -0.0028
   16MOL    C32 7562   1.543   1.207   6.604  0.4556  0.3911  0.0097
   16MOL    C33 7563   1.533   1.292   6.477 -0.7147 -0.0616 -0.4697
   16MOL    C34 7564   1.411   1.266   6.380 -0.5420  0.3911 -1.4104
   16MOL    C35 7565   1.417   1.355   6.259 -0.0388 -0.6531  0.0578
   16MOL    H36 7566   1.099   1.224   7.057 -0.6739 -0.8874  0.0285
   16MOL    H37 7567   1.128   1.070   7.138  2.4431  1.5674  1.2183
   16MOL    H38 7568   1.326   1.023   7.023 -1.4941  0.6255 -0.4375
   16MOL    H39 7569   1.428   1.064   6.823  2.0541 -0.6437  0.7733
   16MOL    H40 7570   1.530   1.197   6.878 -1.1393 -0.2665  2.3370
   16MOL    H41 7571   1.416   1.345   6.718 -0.6994  0.0967  0.7234
   16MOL    H42 7572   1.327   1.218   6.647  1.0104 -0.2082  0.0133
   16MOL    H43 7573   1.643   1.230   6.643  0.2940 -1.2778  1.5003
   16MOL    H44 7574   1.551   1.100   6.581  0.3720  0.4823 -0.4392
   16MOL    H45 7575   1.544   1.391   6.520  1.8971 -1.7002  2.9076
   16MOL    H46 7576   1.621   1.273   6.417 -0.2195  2.3254 -0.5275
   16MOL    H47 7577   1.431   1.162   6.352 -0.1576  0.3507 -0.9861
   16MOL    H48 7578   1.316   1.277   6.430  0.3993 -0.0417  0.5197
   16MOL    H49 7579   1.431   1.461   6.281 -3.8946  0.0059 -0.3467
   16MOL    H50 7580   1.495   1.329   6.188  1.6145  2.9948  0.4194
   16MOL    H51 7581   1.320   1.344   6.211 -0.3935 -5.4432  1.5991
   16MOL    C52 7582   1.363   1.186   7.157 -0.2936 -0.8206 -0.1428
   16MOL    C53 7583   1.514   1.139   7.174  0.2035 -1.0807 -0.2302
   16MOL    O54 7584   1.579   1.248   7.239 -0.0741 -0.0014 -0.0256
   16MOL    C55 7585   1.625   1.350   7.158  0.2288 -0.4043  0.2682
   16MOL    C56 7586   1.706   1.439   7.248 -0.0871  0.3106 -0.2651
   16MOL    C57 7587   1.834   1.368   7.300 -0.1727 -0.2068  0.5512
   16MOL    C58 7588   1.910   1.472   7.390  0.2018  1.0092  0.4489
   16MOL    C59 7589   2.050   1.429   7.422 -0.1134 -0.9066  0.1694
   16MOL    C60 7590   2.064   1.310   7.526 -0.0037  0.3679 -0.1665
   16MOL    H61 7591   1.316   1.165   7.253  1.3268 -1.3702  0.5436
   16MOL    H62 7592   1.357   1.294   7.144  1.6444 -1.0201 -3.1168
   16MOL    H63 7593   1.543   1.127   7.070  1.8560 -1.7040  0.2737
   16MOL    H64 7594   1.541   1.398   7.107 -0.0097 -0.7473  0.3271
   16MOL    H65 7595   1.684   1.313   7.074 -1.7004  0.1658 -1.3791
   16MOL    H66 7596   1.641   1.464   7.331  0.6012 -0.8049  0.6116
   16MOL    H67 7597   1.732   1.528   7.189  0.0634 -0.6058 -1.6099
   16MOL    H68 7598   1.807   1.284   7.364 -1.7537 -0.9488 -1.0420
   16MOL    H69 7599   1.895   1.330   7.218 -2.5629  0.6362 -1.7010
   16MOL    H70 7600   1.920   1.564   7.334 -1.0384  1.6132  1.1805
   16MOL    H71 7601   1.851   1.481   7.482 -2.6829 -1.3265 -1.0604
   16MOL    H72 7602   2.102   1.392   7.333 -0.3976  0.0623 -0.3985
   16MOL    H73 7603   2.102   1.517   7.459  1.5989 -2.7558  2.3091
   16MOL    H74 7604   2.004   1.328   7.615 -0.1636  1.3909 -0.4687
   16MOL    H75 7605   2.039   1.216   7.477 -1.9047  1.9460 -2.3497
   16MOL    H76 7606   2.168   1.296   7.555 -0.4454 -1.9071  0.4008
   16MOL    C77 7607   1.518   1.012   7.256 -0.8167 -0.0286 -0.0645
   16MOL    C78 7608   1.658   0.951   7.289  0.8198 -0.7251 -0.3657
   16MOL    O79 7609   1.696   0.908   7.158 -0.1910 -0.0466  0.3522
   16MOL    C80 7610   1.814   0.969   7.117  0.2664 -0.2418  0.8535
   16MOL    C81 7611   1.871   0.886   7.003 -0.4212  0.1368  0.8333
   16MOL    C82 7612   2.005   0.931   6.948 -0.0816 -0.2851  0.4876
   16MOL    C83 7613   1.995   1.070   6.880 -0.1959 -0.6546  0.1013
   16MOL    C84 7614   2.121   1.124   6.823 -0.1611 -0.8774  0.4933
   16MOL    C85 7615   2.244   1.142   6.916 -0.3017 -0.0426 -0.2050
   16MOL    H86 7616   1.457   0.936   7.207 -0.6481 -2.1984  2.9041
   16MOL    H87 7617   1.467   1.020   7.352 -0.4845 -0.8619  0.1922
   16MOL    H88 7618   1.714   1.027   7.343 -0.7157 -0.7469  1.2945
   16MOL    H89 7619   1.874   0.963   7.208 -0.9488  2.0908  1.8436
   16MOL    H90 7620   1.789   1.072   7.093  3.3545  0.2433 -0.5709
   16MOL    H91 7621   1.805   0.887   6.917  1.6286 -1.1359 -0.7824
   16MOL    H92 7622   1.871   0.779   7.023  0.9027 -0.2664 -1.2033
   16MOL    H93 7623   2.084   0.932   7.023 -0.1074  1.4790  0.5247
   16MOL    H94 7624   2.030   0.857   6.872 -1.0670 -0.8208  0.6853
   16MOL    H95 7625   1.924   1.056   6.799  0.3326 -0.1850 -0.4526
   16MOL    H96 7626   1.950   1.142   6.948 -3.2136 -1.2562 -1.1877
   16MOL    H97 7627   2.146   1.068   6.733 -1.5843  0.0054 -0.4579
   16MOL    H98 7628   2.097   1.226   6.793  1.8505 -0.2996  0.7532
   16MOL    H99 7629   2.218   1.206   7.000 -2.2607 -0.9584 -0.1041
   16MOL   H100 7630   2.276   1.048   6.961 -1.2184  0.3561  1.3278
   16MOL   H101 7631   2.333   1.173   6.860  1.6636  2.6783  4.0493
   16MOL   C102 7632   1.629   0.829   7.380  0.3532 -0.4094  0.2889
   16MOL   C103 7633   1.757   0.765   7.434  0.3949 -0.3854  0.6833
   16MOL   O104 7634   1.821   0.856   7.522  0.4276  0.8105 -0.1482
   16MOL   C105 7635   1.954   0.891   7.494  0.5250 -0.9629 -0.6769
   16MOL   C106 7636   2.021   0.923   7.625 -0.1519  0.3410  0.3919
   16MOL   C107 7637   2.169   0.941   7.628 -0.2279  0.6888  1.2320
   16MOL   C108 7638   2.218   0.963   7.777  0.1168  0.2207 -0.4799
   16MOL   C109 7639   2.357   1.032   0.016  0.5310  0.7027  0.6075
   16MOL   C110 7640   2.378   1.089   0.157  0.1689  0.2062 -0.2641
   16MOL   H111 7641   1.563   0.847   7.465  0.0412 -0.7861  0.1293
   16MOL   H112 7642   1.575   0.752   7.324  0.4861  0.5292 -1.1529
   16MOL   H113 7643   1.819   0.745   7.346 -0.0226  1.3940 -0.0455
   16MOL   H114 7644   1.968   0.986   7.442 -0.6288 -0.0696  0.6178
   16MOL   H115 7645   2.003   0.812   7.437 -1.3764 -1.4845 -1.6473
   16MOL   H116 7646   1.982   0.847   7.693 -0.7977  0.1608 -0.1661
   16MOL   H117 7647   1.967   1.015   7.647 -2.2574 -0.3780 -1.4747
   16MOL   H118 7648   2.208   0.849   7.582 -2.7716  0.6476 -0.9738
   16MOL   H119 7649   2.209   1.016   7.559  1.8924 -2.0430 -0.6556
   16MOL   H120 7650   2.141   1.025   0.043  0.3592 -1.3020  2.1904
   16MOL   H121 7651   2.226   0.866   0.048  1.4818  0.9296  0.7254
   16MOL   H122 7652   2.435   0.962   7.765 -2.0878 -0.7217 -3.4170
   16MOL   H123 7653   2.364   1.122   7.732 -2.5641  1.5492  1.3953
   16MOL   H124 7654   2.362   1.197   0.167  2.9290  0.6627 -0.4277
   16MOL   H125 7655   2.310   1.042   0.229 -0.5091 -1.1274 -1.7560
   16MOL   H126 7656   2.484   1.078   0.180 -0.1518 -0.4807  0.9603
   16MOL   C127 7657   1.740   0.621   7.491 -0.2442 -0.1741 -0.7534
   16MOL   C128 7658   1.862   0.538   7.526  0.7000  0.0639  0.2154
   16MOL   O129 7659   1.911   0.484   7.406 -0.0508 -0.7318  0.5657
   16MOL   C130 7660   2.049   0.502   7.374  0.2610 -0.3341  0.3204
   16MOL   C131 7661   2.086   0.451   7.237 -0.8728 -0.4138  0.1359
   16MOL   C132 7662   2.019   0.509   7.110 -0.1758 -0.5297  0.6401
   16MOL   C133 7663   2.068   0.456   6.972 -0.2771 -0.3545 -0.6895
   16MOL   C134 7664   1.980   0.523   6.866 -0.5363  0.0752  0.4754
   16MOL   C135 7665   2.021   0.486   6.721 -0.9505  0.2219  0.2605
   16MOL   H136 7666   1.673   0.632   7.576  1.6393  0.9499  0.6110
   16MOL   H137 7667   1.690   0.565   7.411  0.0051  1.4785 -2.0918
   16MOL   H138 7668   1.938   0.607   7.561  0.9866  0.1783 -0.6318
   16MOL   H139 7669   2.099   0.446   7.453  0.7501  0.0808  0.3058
   16MOL   H140 7670   2.073   0.607   7.390 -1.5938  0.0339  0.6863
   16MOL   H141 7671   2.060   0.346   7.237  1.4144 -1.0232 -1.1607
   16MOL   H142 7672   2.194   0.446   7.226 -0.7270  0.6698  1.0453
   16MOL   H143 7673   1.911   0.495   7.111 -0.1233 -0.9163  1.1146
   16MOL   H144 7674   2.025   0.618   7.114  0.1379 -0.5029 -0.4374
   16MOL   H145 7675   2.172   0.481   6.955 -0.1263 -1.7063 -1.9170
   16MOL   H146 7676   2.053   0.348   6.966 -1.4204 -0.4337  2.7226
   16MOL   H147 7677   1.877   0.490   6.872 -0.7722  0.4377 -1.3198
   16MOL   H148 7678   1.990   0.631   6.863  1.8006 -0.0957  0.4991
   16MOL   H149 7679   2.129   0.494   6.708 -0.9315 -0.8721 -0.3150
   16MOL   H150 7680   2.003   0.379   6.710 -0.5626  0.2084 -0.2526
   16MOL   H151 7681   1.964   0.537   6.645  0.3252  1.5276  0.1583
   16MOL   C152 7682   1.826   0.418   7.615 -0.3947  0.1614  0.2088
   16MOL   C153 7683   1.852   0.437   7.768 -0.6911 -0.1871  0.1663
   16MOL   O154 7684   1.786   0.562   0.028 -0.2785 -0.0449  0.1438
   16MOL   C155 7685   1.856   0.646   0.113  0.2951 -1.0011  0.3223
   16MOL   C156 7686   1.762   0.764   0.112  0.1645 -0.0992 -0.1605
   16MOL   C157 7687   1.639   0.737   0.192 -0.4136 -0.4357  0.2608
   16MOL   C158 7688   1.540   0.853   0.184  0.0705  0.0146 -0.2232
   16MOL   C159 7689   1.442   0.868   0.303 -0.0851  0.2911  0.4740
   16MOL   C160 7690   1.326   0.953   0.257  0.0674  0.2078 -0.0067
   16MOL   H161 7691   1.726   0.380   7.595  0.0395 -1.3635  0.9094
   16MOL   H162 7692   1.890   0.333   7.591  3.3419  3.2419 -1.2666
   16MOL   H163 7693   1.958   0.455   0.001 -0.4961  1.5758 -3.7245
   16MOL   H164 7694   1.957   0.667   0.076  0.2597 -0.5905  0.4499
   16MOL   H165 7695   1.856   0.609   0.215  1.1211 -2.3732 -0.1727
   16MOL   H166 7696   1.730   0.801   0.015  0.5668  0.6547 -0.0041
   16MOL   H167 7697   1.801   0.850   0.167  0.0060  0.2629 -0.6171
   16MOL   H168 7698   1.586   0.651   0.151 -1.3925  0.5378 -0.5527
   16MOL   H169 7699   1.663   0.721   0.297  2.1171 -1.1620 -0.3912
   16MOL   H170 7700   1.586   0.945   0.150  0.7503 -0.1529  0.2366
   16MOL   H171 7701   1.474   0.824   0.102 -0.4015  0.6638 -0.0859
   16MOL   H172 7702   1.418   0.768   0.340  1.5507 -1.2590 -2.3995
   16MOL   H173 7703   1.485   0.918   0.389 -0.8190 -0.0040  1.0248
   16MOL   H174 7704   1.276   0.987   0.348  2.5301 -0.5003  1.6780
   16MOL   H175 7705   1.352   1.039   0.196 -0.2565 -0.7023 -1.4434
   16MOL   H176 7706   1.251   0.896   0.202 -0.1079  1.1551 -0.7500
   16MOL   C177 7707   1.803   0.318   0.088  0.4729 -0.1103  0.1622
   16MOL   C178 7708   1.865   0.182   0.055  0.3570 -0.2818  0.4262
   16MOL   O179 7709   2.005   0.202   0.045 -0.3241  0.3943  0.7298
   16MOL   C180 7710   2.076   0.110   7.731 -0.3241  0.5856  0.5926
   16MOL   C181 7711   2.209   0.167   7.681  0.7165  0.0385  0.5535
   16MOL   C182 7712   2.295   0.200   0.025 -0.9953  0.6289  0.6387
   16MOL   C183 7713   2.446   0.216   0.012 -0.0291 -0.3240 -0.4314
   16MOL   C184 7714   2.516   0.206   0.150 -0.0578 -0.3635 -0.3161
   16MOL   C185 7715   2.668   0.210   0.158  1.1538  0.7355  0.4388
   16MOL   H186 7716   1.835   0.334   0.191  2.4107 -0.5394 -0.3503
   16MOL   H187 7717   1.695   0.308   0.086  0.0935  3.3985 -0.1853
   16MOL   H188 7718   1.830   0.146   7.737 -0.4044  1.3331  0.0875
   16MOL   H189 7719   2.008   0.100   7.647  0.7419 -1.7195 -0.0298
   16MOL   H190 7720   2.095   0.020   0.011 -0.6043 -1.3313 -2.1894
   16MOL   H191 7721   2.207   0.249   7.609 -2.8358 -2.5905 -2.5397
   16MOL   H192 7722   2.260   0.084   7.631 -0.5335  0.3230 -1.2556
   16MOL   H193 7723   2.264   0.294   0.069 -2.3097 -0.0766  1.2531
   16MOL   H194 7724   2.274   0.132   0.108 -0.1586  0.0685  0.4034
   16MOL   H195 7725   2.494   0.148   7.720 -1.2311  0.1859 -1.7759
   16MOL   H196 7726   2.469   0.316   7.755  1.0487 -0.3418  0.1825
   16MOL   H197 7727   2.487   0.283   0.221 -1.2696 -1.6488  0.6188
   16MOL   H198 7728   2.467   0.124   0.202  1.3499 -1.2965 -0.4287
   16MOL   H199 7729   2.715   0.158   0.242  0.7743 -0.0735  0.1641
   16MOL   H200 7730   2.717   0.149   0.082  0.2777  1.0090 -0.3596
   16MOL   H201 7731   2.704   0.312   0.154  0.2940  1.0152 -0.3292
   16MOL   C202 7732   1.845   0.071   0.167  0.1871 -0.4054 -0.1235
   16MOL   C203 7733   1.702   0.018   0.188  0.0827  0.0902  0.1682
   16MOL   O204 7734   1.712   7.701   0.289  0.4475 -0.4323  0.3367
   16MOL   C205 7735   1.669   7.746   0.420  0.2257  0.4505  0.3310
   16MOL   C206 7736   1.617   7.626   0.507  0.4018  0.3352 -0.0093
   16MOL   C207 7737   1.555   7.674   0.637 -0.3546 -0.5603 -0.0366
   16MOL   C208 7738   1.658   7.680   0.762 -0.3179 -0.4393  0.0692
   16MOL   C209 7739   1.766   0.004   0.742  0.0782  0.4673  0.9077
   16MOL   C210 7740   1.867   0.017   0.862 -0.2691  0.0034  0.1923
   16MOL   H211 7741   1.916   7.770   0.142  2.2065  1.3247 -0.0633
   16MOL   H212 7742   1.886   0.118   0.256  2.1250  0.6083 -1.5032
   16MOL   H213 7743   1.642   0.104   0.219  0.5714  0.0439  1.2922
   16MOL   H214 7744   1.587   0.039   0.415 -0.2769 -0.0874  0.7547
   16MOL   H215 7745   1.750   0.026   0.463  0.2278  0.7253 -0.0452
   16MOL   H216 7746   1.699   7.555   0.518 -0.1020 -0.3645 -0.6617
   16MOL   H217 7747   1.529   7.584   0.458 -1.3909  2.0145  1.6287
   16MOL   H218 7748   1.510   7.774   0.636  1.9773  0.5279 -0.7390
   16MOL   H219 7749   1.480   7.600   0.662 -0.2616 -0.0042  1.9754
   16MOL   H220 7750   1.593   7.697   0.848 -0.6701 -0.9229 -0.0955
   16MOL   H221 7751   1.708   7.588   0.794 -0.9518 -0.5433  0.7881
   16MOL   H222 7752   1.822   7.742   0.659 -0.0263  0.6587  0.7435
   16MOL   H223 7753   1.720   0.097   0.709 -0.8063 -0.3500 -0.1916
   16MOL   H224 7754   1.938   0.086   0.818 -0.0539  0.8622  1.8614
   16MOL   H225 7755   1.822   0.072   0.945  0.6936 -0.2826  0.8988
   16MOL   H226 7756   1.923   7.708   0.895 -0.3894 -0.1725 -0.0627
   16MOL   C227 7757   1.639   7.727   0.065 -0.1222 -0.3634  0.1605
   16MOL   C228 7758   1.502   7.656   0.085 -0.2451 -0.1065 -0.2037
   16MOL   O229 7759   1.417   7.763   0.095  0.8094  0.1443  0.0860
   16MOL   C230 7760   1.319   7.745   0.200  1.1632 -0.6743 -0.4842
   16MOL   C231 7761   1.227   0.093   0.213 -0.0390  0.3220  0.1012
   16MOL   C232 7762   1.305   0.214   0.253 -0.5174  0.1290  0.0600
   16MOL   C233 7763   1.229   0.345   0.254 -0.6965 -0.1508  1.3355
   16MOL   C234 7764   1.314   0.462   0.198  0.7332 -0.4126 -0.3184
   16MOL   C235 7765   1.223   0.586   0.183  0.0051 -0.3895  0.1718
   16MOL   H236 7766   1.631   0.022   7.763  0.8540  0.1945  0.5694
   16MOL   H237 7767   1.704   7.645   0.035 -1.3834 -0.3758 -2.7979
   16MOL   H238 7768   1.498   7.586   0.169  1.2479  1.0377  0.8457
   16MOL   H239 7769   1.366   7.726   0.297  0.0308  0.1363  0.2308
   16MOL   H240 7770   1.253   7.660   0.181  2.1923 -1.5518 -0.1851
   16MOL   H241 7771   1.146   0.080   0.285 -1.1862 -1.0370 -1.3685
   16MOL   H242 7772   1.187   0.107   0.112 -1.6866  0.8868  0.8190
   16MOL   H243 7773   1.372   0.199   0.338  0.7889  2.5914 -0.4578
   16MOL   H244 7774   1.380   0.217   0.174 -0.8254 -2.0520 -0.3431
   16MOL   H245 7775   1.143   0.332   0.188 -1.4738  1.3560  2.0281
   16MOL   H246 7776   1.188   0.366   0.353 -2.3641 -0.4495  0.7252
   16MOL   H247 7777   1.406   0.472   0.255 -0.2899 -2.2020  1.7107
   16MOL   H248 7778   1.345   0.440   0.096  0.2631 -0.1978 -0.5120
   16MOL   H249 7779   1.280   0.671   0.148 -0.2958 -0.3422 -0.2148
   16MOL   H250 7780   1.142   0.577   0.110  2.6285  1.0978 -3.0437
   16MOL   H251 7781   1.188   0.608   0.284  0.1403  2.7564 -0.4193
   16MOL   C252 7782   1.471   7.582   7.729 -0.0767 -0.7730  0.2233
   16MOL   C253 7783   1.333   7.508   7.710 -0.2526 -0.3322 -0.3091
   16MOL   O254 7784   1.349   7.399   7.625  0.1776  0.1744 -0.2121
   16MOL   C255 7785   1.404   7.283   7.696  0.2433 -0.7610  0.5187
   16MOL   C256 7786   1.427   7.164   7.608  0.1596 -0.3695 -0.5159
   16MOL   C257 7787   1.324   7.123   7.511  0.5035  0.6222  0.8609
   16MOL   C258 7788   1.365   7.025   7.400  0.6159  0.3594 -0.2300
   16MOL   C259 7789   1.495   7.046   7.324  0.8458 -0.1167 -0.0515
   16MOL   C260 7790   1.502   6.954   7.201  0.0667  0.1228  0.6749
   16MOL   H261 7791   1.482   7.652   7.647  2.2711 -1.8405 -0.4306
   16MOL   H262 7792   1.553   7.513   7.712  1.6504  0.9767  1.1790
   16MOL   H263 7793   1.301   7.481   0.033  1.1706 -2.1058 -0.3050
   16MOL   H264 7794   1.325   7.263   7.768 -1.0753 -0.9982 -0.9662
   16MOL   H265 7795   1.498   7.299   7.750 -0.1759  1.4881  0.6598
   16MOL   H266 7796   1.450   7.078   7.671  1.1638  0.1185 -0.2037
   16MOL   H267 7797   1.518   7.180   7.549  1.0270 -1.9753  0.3697
   16MOL   H268 7798   1.242   7.082   7.569  1.0494  1.7428  2.4719
   16MOL   H269 7799   1.275   7.203   7.456  2.5973  1.1855 -0.2538
   16MOL   H270 7800   1.363   6.925   7.443 -0.2272  0.9069  1.0136
   16MOL   H271 7801   1.282   7.019   7.330 -0.9768  0.8354  1.5725
   16MOL   H272 7802   1.505   7.151   7.296  0.6128 -0.8828 -3.1820
   16MOL   H273 7803   1.591   7.017   7.367  1.1554 -2.1158 -1.9822
   16MOL   H274 7804   1.412   6.971   7.142 -0.6147 -2.8118  0.7739
   16MOL   H275 7805   1.584   6.991   7.139  0.5418  1.4133  2.0498
   16MOL   H276 7806   1.498   6.845   7.211  4.5920 -0.3449 -1.3406
   16MOL   C277 7807   1.226   7.602   7.647  0.0412  0.3441 -0.3752
   16MOL   C278 7808   1.083   7.551   7.635  0.3449 -0.4784  0.3594
   16MOL   O279 7809   1.017   7.513   7.758 -0.6230  0.0202  0.5768
   16MOL   C280 7810   0.939   7.400   7.746  0.3297  0.5862  1.1078
   16MOL   C281 7811   0.841   7.389   0.091  0.2231 -0.8107 -0.1307
   16MOL   C282 7812   0.740   7.275   0.062 -0.3672 -0.2972  0.4467
   16MOL   C283 7813   0.685   7.206   0.184 -0.4920  0.5865  0.1880
   16MOL   C284 7814   0.607   7.070   0.144 -0.1216 -0.5149 -0.0057
   16MOL   C285 7815   0.561   6.985   0.261 -0.0011  0.1131 -0.5083
   16MOL   H286 7816   1.231   7.704   7.685  0.0092  1.6258 -3.6968
   16MOL   H287 7817   1.276   7.626   7.554  2.4218 -2.6749  0.0227
   16MOL   H288 7818   1.085   7.466   7.566  0.6582  0.5603 -0.9360
   16MOL   H289 7819   0.987   7.302   7.745 -2.0562 -0.6118 -1.4255
   16MOL   H290 7820   0.873   7.415   7.661 -0.6456 -2.5317  1.2783
   16MOL   H291 7821   0.784   7.481   0.098  0.7378 -0.4017 -1.3303
   16MOL   H292 7822   0.882   7.358   0.187  1.6155 -3.8405 -1.6362
   16MOL   H293 7823   0.651   7.303   0.006 -1.3916 -0.5402  1.9266
   16MOL   H294 7824   0.788   7.201   7.777 -2.3571 -0.5978 -0.7448
   16MOL   H295 7825   0.778   7.177   0.233  0.1621  3.1314  0.5255
   16MOL   H296 7826   0.618   7.269   0.243 -0.7772  0.1540  0.3270
   16MOL   H297 7827   0.525   7.102   0.080 -0.1822  2.2117  1.3870
   16MOL   H298 7828   0.672   7.005   0.084 -0.2634 -0.0342 -0.6797
   16MOL   H299 7829   0.531   6.886   0.229 -1.1720  0.1921  0.3270
   16MOL   H300 7830   0.628   6.979   0.347  0.3830 -1.9599 -0.9232
   16MOL   H301 7831   0.471   7.029   0.305  0.5567  0.0364  0.7314
   16MOL   C302 7832   1.010   7.666   7.564  0.4455 -0.1443  0.6166
   16MOL   C303 7833   0.876   7.625   7.491  0.0698 -0.4070  0.2424
   16MOL   O304 7834   0.888   7.502   7.417  0.1899 -0.0498 -0.1225
   16MOL   C305 7835   0.966   7.515   7.294 -0.1158  0.1216  0.2496
   16MOL   C306 7836   1.014   7.373   7.260  0.5493  0.1181 -0.2118
   16MOL   C307 7837   1.103   7.361   7.135 -0.2251 -0.0004 -0.5531
   16MOL   C308 7838   1.127   7.218   7.085  0.2186  0.0335  0.1528
   16MOL   C309 7839   1.177   7.209   6.947 -0.2938 -0.0236 -0.3380
   16MOL   C310 7840   1.193   7.069   6.895  0.2535  0.7781 -0.0335
   16MOL   H311 7841   1.005   7.756   7.625 -0.5814  1.5467 -1.8742
   16MOL   H312 7842   1.077   7.703   7.486  1.0604 -1.3339  0.5702
   16MOL   H313 7843   0.802   7.604   7.568 -0.7574 -0.2266 -0.5018
   16MOL   H314 7844   1.055   7.577   7.292 -0.0318 -0.0549 -2.1448
   16MOL   H315 7845   0.913   7.560   7.210  0.8564 -1.2850 -1.1463
   16MOL   H316 7846   0.919   7.323   7.242  0.4643 -0.2069  1.0817
   16MOL   H317 7847   1.063   7.321   7.343 -0.0974  0.4616  0.3941
   16MOL   H318 7848   1.048   7.412   7.056 -1.1525 -1.7906 -1.0786
   16MOL   H319 7849   1.196   7.413   7.160 -0.6580  0.4677  0.1105
   16MOL   H320 7850   1.193   7.172   7.159  0.1127 -1.2370 -0.5209
   16MOL   H321 7851   1.031   7.169   7.101 -0.4752  0.8265 -1.4249
   16MOL   H322 7852   1.100   7.255   6.885 -1.6394  0.8039  1.8915
   16MOL   H323 7853   1.269   7.267   6.942 -0.0371 -0.2683  1.5549
   16MOL   H324 7854   1.099   7.014   6.909  0.4246  0.7358  0.9701
   16MOL   H325 7855   1.207   7.066   6.787  2.2260 -0.3753  0.2266
   16MOL   H326 7856   1.274   7.013   6.941 -0.6886 -0.6543 -0.0647
   16MOL   C327 7857   0.819   7.746   7.405 -0.7762  0.6292  0.5663
   16MOL   C328 7858   0.750   0.079   7.484  0.5297  0.3919  0.5908
   16MOL   O329 7859   0.769   0.198   7.397  0.1306 -0.7550 -0.3875
   16MOL   C330 7860   0.841   0.299   7.453  0.3156  0.3849 -0.2709
   16MOL   C331 7861   0.885   0.400   7.357 -0.2944 -0.1097 -0.2608
   16MOL   C332 7862   0.919   0.528   7.425  0.6669 -0.2175  0.6240
   16MOL   C333 7863   0.986   0.636   7.341 -0.0177 -0.2711  0.7389
   16MOL   C334 7864   1.131   0.604   7.284  0.5005  1.1705  0.1591
   16MOL   C335 7865   1.201   0.735   7.251  0.6732 -0.0152 -0.2091
   16MOL   H336 7866   0.756   7.711   7.323  0.3797 -1.4959  0.5528
   16MOL   H337 7867   0.903   0.012   7.351 -0.7936 -1.3807 -1.2173
   16MOL   H338 7868   0.807   0.092   7.576 -0.3700  0.4988  1.1393
   16MOL   H339 7869   0.928   0.263   7.508 -0.6273  0.4380  1.2760
   16MOL   H340 7870   0.781   0.350   7.528  0.8926 -1.5216  1.5199
   16MOL   H341 7871   0.812   0.423   7.279 -0.5774  1.2090  0.3746
   16MOL   H342 7872   0.972   0.354   7.311 -1.0338 -0.4536 -1.3364
   16MOL   H343 7873   0.832   0.573   7.471 -0.3866 -0.7445 -0.8278
   16MOL   H344 7874   0.999   0.505   7.497 -1.0124  3.6068  3.9227
   16MOL   H345 7875   0.919   0.651   7.256  0.5450  0.6192  0.4437
   16MOL   H346 7876   0.977   0.734   7.387 -0.4389  0.6062 -1.1650
   16MOL   H347 7877   1.192   0.539   7.347 -1.8413 -0.3695  0.9463
   16MOL   H348 7878   1.122   0.542   7.195 -2.7459  0.3109  0.9950
   16MOL   H349 7879   1.160   0.782   7.161 -0.8361 -0.0108  0.4620
   16MOL   H350 7880   1.211   0.804   7.335  0.1707 -0.9803  0.6492
   16MOL   H351 7881   1.306   0.721   7.227  1.2257  0.6334  1.8008
   16MOL   C352 7882   0.599   0.047   7.522 -0.0547  0.8680  0.4837
   16MOL   C353 7883   0.528   0.143   7.629 -0.2342  0.0513 -0.1854
   16MOL   O354 7884   0.575   0.125   7.764  0.1696  0.1955  0.2384
   16MOL   C355 7885   0.589   7.770   0.030  0.8255 -0.2756 -0.4110
   16MOL   C356 7886   0.614   7.766   0.182 -0.4500 -0.1014  0.1434
   16MOL   C357 7887   0.484   0.035   0.248 -0.3138  0.0332 -0.1123
   16MOL   C358 7888   0.488   0.010   0.399  0.3082  0.0718  0.0210
   16MOL   C359 7889   0.372   0.057   0.484  0.6836  0.6523  0.2977
   16MOL   C360 7890   0.422   0.106   0.623  0.1918 -0.2017  0.4959
   16MOL   H361 7891   0.540   0.047   7.430  1.8912  1.1378 -0.7957
   16MOL   H362 7892   0.604   7.720   7.551  3.0480  0.5845 -0.8406
   16MOL   H363 7893   0.542   0.247   7.601  4.1756  0.2415  2.1982
   16MOL   H364 7894   0.666   7.718   7.752 -0.5301  0.3431 -2.9197
   16MOL   H365 7895   0.499   7.711   0.008 -0.6652  2.3356 -1.5095
   16MOL   H366 7896   0.705   0.042   0.207 -0.3824 -0.3707  0.4830
   16MOL   H367 7897   0.637   7.667   0.222  1.2813  0.9522  1.8268
   16MOL   H368 7898   0.475   0.141   0.225 -0.2435 -0.1569 -1.0451
   16MOL   H369 7899   0.400   7.759   0.204  1.2235 -1.4159 -1.3616
   16MOL   H370 7900   0.495   7.682   0.416  1.2999  0.6325  3.4882
   16MOL   H371 7901   0.581   0.054   0.438 -0.0565 -0.5041  1.5397
   16MOL   H372 7902   0.306   0.125   0.430 -0.8768 -1.6559 -0.8082
   16MOL   H373 7903   0.320   7.743   0.508 -0.3924  1.2366  0.2433
   16MOL   H374 7904   0.467   0.204   0.610 -1.1540  0.1747 -1.5444
   16MOL   H375 7905   0.346   0.115   0.701  0.9806 -2.7987  1.6160
   16MOL   H376 7906   0.494   0.041   0.673 -0.5249 -0.6316  0.9774
   16MOL   C377 7907   0.377   0.132   7.626 -0.7280 -0.2248 -0.1079
   16MOL   C378 7908   0.301   0.243   7.705  0.1459  0.9443  0.2444
   16MOL   O379 7909   0.170   0.182   7.691  0.1724 -0.3902  0.2498
   16MOL   C380 7910   0.135   0.080   0.004  0.0510  0.2820 -0.5091
   16MOL   C381 7911   0.092   0.140   0.138 -0.9210  0.0967 -0.3782
   16MOL   C382 7912   0.063   0.041   0.250  0.4507  0.2115  0.1012
   16MOL   C383 7913   7.768   0.098   0.374 -0.3295  0.4649 -0.0473
   16MOL   C384 7914   7.713   7.761   0.462  0.9641  0.2951 -0.5464
   16MOL   C385 7915   0.043   7.676   0.532 -0.0275 -0.2876  0.8469
   16MOL   H386 7916   0.337   0.142   7.525  0.0230 -0.6891 -0.4542
   16MOL   H387 7917   0.352   0.030   7.657 -0.4592  0.1744  1.4685
   16MOL   H388 7918   0.332   0.244   0.031 -1.0446  0.2023  0.6199
   16MOL   H389 7919   0.189   7.763   0.003 -1.8447 -0.8087 -1.9196
   16MOL   H390 7920   0.050   0.029   7.738  1.3454 -1.4030 -1.0977
   16MOL   H391 7921   7.775   0.191   0.119 -0.4290  1.5936  1.0795
   16MOL   H392 7922   0.170   0.208   0.171 -0.4585 -0.7871  0.3725
   16MOL   H393 7923   7.775   7.748   0.202 -0.7590  0.3943  1.4887
   16MOL   H394 7924   0.151   7.760   0.275 -1.2326 -2.5866 -0.4960
   16MOL   H395 7925   0.053   0.170   0.426  0.6124 -0.5096  0.1594
   16MOL   H396 7926   7.681   0.158   0.348  0.6364  1.8205 -0.2164
   16MOL   H397 7927   7.651   0.025   0.541  0.3097 -2.0580  0.2368
   16MOL   H398 7928   7.655   7.693   0.400 -2.0312  1.2323  1.1249
   16MOL   H399 7929   0.098   7.739   0.602  0.0571  0.7120 -0.0963
   16MOL   H400 7930   0.003   7.590   0.585 -0.0253 -0.1035  1.1434
   16MOL   H401 7931   0.127   7.639   0.473 -1.1701 -0.8699 -0.4331
   16MOL   C402 7932   0.306   0.389   7.653  0.0312 -0.4482 -0.1480
   16MOL   C403 7933   0.198   0.479   7.725 -0.1588  1.0754  0.3209
   16MOL   O404 7934   0.179   0.593   7.656  0.2758 -0.2329  0.0717
   16MOL   C405 7935   0.092   0.575   7.541  0.1600  0.2701  0.0624
   16MOL   C406 7936   0.086   0.702   7.459  0.0782  0.7652  0.0564
   16MOL   C407 7937   0.216   0.764   7.409  0.4735 -0.4128  0.0568
   16MOL   C408 7938   0.187   0.880   7.307 -0.4320  0.5194 -0.1092
   16MOL   C409 7939   0.319   0.939   7.248  0.5526 -0.3226  0.5318
   16MOL   C410 7940   0.298   1.048   7.148  0.2409 -0.1953  0.2694
   16MOL   H411 7941   0.291   0.386   7.545 -2.0484  0.9843  0.0738
   16MOL   H412 7942   0.402   0.439   7.663 -0.5559  0.8462 -0.8466
   16MOL   H413 7943   0.104   0.424   7.736  1.0618 -0.9981  0.5169
   16MOL   H414 7944   7.767   0.551   7.565 -0.1940  2.7878  1.2240
   16MOL   H415 7945   0.114   0.505   7.460 -2.9918  0.3206 -0.9440
   16MOL   H416 7946   0.025   0.774   7.514 -0.0097  0.5085  0.2968
   16MOL   H417 7947   0.013   0.684   7.381 -1.4350  3.9651  0.6697
   16MOL   H418 7948   0.253   0.816   7.498  1.8957  2.0549 -1.9020
   16MOL   H419 7949   0.290   0.694   7.371  1.0674  0.1014  0.2567
   16MOL   H420 7950   0.137   0.836   7.220 -0.3601 -1.8692  1.0195
   16MOL   H421 7951   0.128   0.956   7.358  1.3767 -0.0459  2.8898
   16MOL   H422 7952   0.389   0.982   7.320 -0.7813  3.9188 -0.5397
   16MOL   H423 7953   0.367   0.860   7.191 -1.2495 -1.0810  0.0297
   16MOL   H424 7954   0.240   1.131   7.188  2.6638  1.3852  0.6431
   16MOL   H425 7955   0.386   1.098   7.108 -0.5929  0.7960 -0.3423
   16MOL   H426 7956   0.248   1.006   7.061  1.3487  1.8967 -1.4239
   16MOL   C427 7957   0.231   0.523   0.089  0.0579 -0.2644 -0.2678
   16MOL   C428 7958   0.155   0.636   0.168 -0.4150  0.1492  0.3975
   16MOL   O429 7959   0.037   0.573   0.219 -0.6954 -0.2111 -0.1077
   16MOL   C430 7960   7.700   0.598   0.141 -0.4416  0.2163 -0.2481
   16MOL   C431 7961   7.571   0.591   0.223 -0.9962  0.1074  0.1347
   16MOL   C432 7962   7.444   0.616   0.142 -0.0506  0.0128  0.1105
   16MOL   C433 7963   7.317   0.582   0.223  0.0509  0.2108 -0.0210
   16MOL   C434 7964   7.187   0.629   0.152  0.0523 -0.0319  0.3548
   16MOL   C435 7965   7.062   0.577   0.206  0.6060 -0.9417  0.4270
   16MOL   H436 7966   0.251   0.433   0.149  2.8330  1.2793  1.2593
   16MOL   H437 7967   0.330   0.567   0.073 -0.1431 -0.6262 -2.5555
   16MOL   H438 7968   0.139   0.722   0.103  0.4175 -0.5671 -0.7781
   16MOL   H439 7969   7.687   0.515   0.072 -0.8130  0.3220 -0.3093
   16MOL   H440 7970   7.711   0.689   0.081  0.4336 -1.0925 -2.1395
   16MOL   H441 7971   7.578   0.667   0.301 -1.2065 -2.4584  2.7243
   16MOL   H442 7972   7.569   0.494   0.272 -1.2340 -0.3125 -0.6983
   16MOL   H443 7973   7.439   0.717   0.103 -0.2412 -0.0044  0.0905
   16MOL   H444 7974   7.443   0.551   0.055  3.4397  1.1957 -0.9020
   16MOL   H445 7975   7.307   0.475   0.245 -0.6759  0.7215  2.3084
   16MOL   H446 7976   7.319   0.629   0.321  2.7483 -1.2440  0.6836
   16MOL   H447 7977   7.188   0.738   0.156  1.2369  0.0730 -1.8399
   16MOL   H448 7978   7.192   0.599   0.047  3.5268  2.4399 -0.2634
   16MOL   H449 7979   6.988   0.635   0.150  1.4982  0.1271  0.3550
   16MOL   H450 7980   7.051   0.471   0.181 -0.1323 -0.6533 -0.5184
   16MOL   H451 7981   7.037   0.595   0.310 -1.7788 -1.3923 -0.0218
   16MOL   C452 7982   0.236   0.682   0.295  0.2306 -0.0691 -0.6458
   16MOL   C453 7983   0.353   0.777   0.253  0.7044  0.0629 -0.3562
   16MOL   O454 7984   0.457   0.685   0.252 -0.8326 -0.6742 -0.3928
   16MOL   C455 7985   0.587   0.738   0.233 -0.0471  0.4891  0.4689
   16MOL   C456 7986   0.692   0.621   0.203 -0.2788  0.1042  0.5346
   16MOL   C457 7987   0.703   0.542   0.331  0.5095  0.2382 -0.8530
   16MOL   C458 7988   0.812   0.436   0.329 -0.2487 -0.0323  0.5649
   16MOL   C459 7989   0.774   0.318   0.234 -0.0382 -0.1591  0.2715
   16MOL   C460 7990   0.842   0.326   0.090 -0.0034  0.4934  0.1615
   16MOL   H461 7991   0.167   0.728   0.366 -2.8925 -1.4411 -2.6833
   16MOL   H462 7992   0.277   0.597   0.349  0.8574  1.4883  1.3922
   16MOL   H463 7993   0.347   0.813   0.151 -1.0187  1.8764  0.3395
   16MOL   H464 7994   0.609   0.813   0.308 -0.2696  0.3119  0.7112
   16MOL   H465 7995   0.579   0.795   0.140 -1.8997  0.2294  0.4496
   16MOL   H466 7996   0.780   0.669   0.160  1.9613 -1.9097  2.7600
   16MOL   H467 7997   0.659   0.560   0.119 -1.0812 -0.2940  1.1277
   16MOL   H468 7998   0.723   0.604   0.418  0.2965 -1.2820  0.3107
   16MOL   H469 7999   0.616   0.489   0.371  0.4864  0.4531 -0.6166
   16MOL   H470 8000   0.916   0.459   0.302  0.0816  1.2802  2.7708
   16MOL   H471 8001   0.813   0.412   0.436  0.7881 -0.2399  0.5129
   16MOL   H472 8002   0.820   0.229   0.279  0.7372  1.2262  2.2612
   16MOL   H473 8003   0.668   0.295   0.232 -0.6488  2.5827 -2.0785
   16MOL   H474 8004   0.951   0.332   0.086  0.0701 -1.3210 -1.2115
   16MOL   H475 8005   0.811   0.243   0.028  2.9954 -0.3479 -0.3092
   16MOL   H476 8006   0.809   0.418   0.041 -2.5472 -0.2265  0.4819
   16MOL   C477 8007   0.370   0.900   0.352 -0.1243  0.3098  0.1713
   16MOL   C478 8008   0.437   1.028   0.299 -0.6751  0.2664 -0.4002
   16MOL   O479 8009   0.446   1.118   0.407 -0.5134 -0.4255 -0.1077
   16MOL   C480 8010   0.484   1.249   0.368 -0.0718 -0.2268 -0.3548
   16MOL   C481 8011   0.436   1.341   0.483 -0.1930  0.5184  0.0413
   16MOL   C482 8012   0.498   1.309   0.622  0.1519 -0.5800  1.0018
   16MOL   C483 8013   0.448   1.406   0.731 -0.1180  0.0572 -0.6930
   16MOL   C484 8014   0.481   1.360   0.867  0.1970 -0.9567  0.6724
   16MOL   C485 8015   0.635   1.353   0.895  0.3891 -0.7077 -0.3404
   16MOL   H486 8016   0.270   0.923   0.387  0.4183 -0.3835  2.2683
   16MOL   H487 8017   0.418   0.857   0.440  0.1226 -1.5806 -0.8404
   16MOL   H488 8018   0.533   1.011   0.249  0.0294  3.3152 -0.2062
   16MOL   H489 8019   0.431   1.290   0.281 -0.3365  0.9302  0.3447
   16MOL   H490 8020   0.591   1.244   0.350 -0.5677 -1.4403 -3.3716
   16MOL   H491 8021   0.328   1.339   0.494 -0.2912  0.1099 -0.9000
   16MOL   H492 8022   0.458   1.442   0.449  0.5444  0.3294 -0.0586
   16MOL   H493 8023   0.473   1.206   0.646  0.5125 -0.8924  0.0576
   16MOL   H494 8024   0.606   1.325   0.619 -0.1576  1.5051  0.1998
   16MOL   H495 8025   0.480   1.510   0.720  2.2059 -0.2920  2.0016
   16MOL   H496 8026   0.340   1.402   0.720 -0.2912  0.9896  0.5419
   16MOL   H497 8027   0.428   1.422   0.939 -1.0198 -0.3858 -0.6886
   16MOL   H498 8028   0.440   1.259   0.876  0.2266 -0.9762  0.5852
   16MOL   H499 8029   0.647   1.314   0.996  2.7455 -1.7509 -0.9965
   16MOL   H500 8030   0.675   1.282   0.823 -1.7751 -1.2176 -1.0690
   16MOL   H501 8031   0.690   1.447   0.887  0.8393 -0.9372  0.0354
   16MOL   H502 8032   0.360   1.074   0.237  0.8052  0.0189 -2.4795
   17MOL     C1 8033   6.829   5.088   2.593  0.0711  0.5032 -0.4280
   17MOL     C2 8034   6.865   4.936   2.583 -0.2047  0.7748  0.6446
   17MOL     O3 8035   6.796   4.891   2.471 -0.3816 -0.4206 -0.1717
   17MOL     C4 8036   6.854   4.932   2.346  0.9125  0.2747  0.2166
   17MOL     C5 8037   6.791   4.875   2.224 -0.5580 -0.2103  0.2991
   17MOL     C6 8038   6.658   4.950   2.185  0.0321 -0.3771 -0.0786
   17MOL     C7 8039   6.549   4.857   2.121  0.2922 -0.2863 -0.2893
   17MOL     C8 8040   6.452   4.785   2.218 -0.2557 -0.2135 -0.9329
   17MOL     C9 8041   6.329   4.729   2.143 -0.4920 -0.1212 -0.4847
   17MOL    H10 8042   6.888   5.146   2.522  2.0220  0.5039  1.1205
   17MOL    H11 8043   6.722   5.104   2.583  0.2058  1.2550 -0.6853
   17MOL    H12 8044   6.971   4.928   2.562 -0.5830  1.0003 -1.4227
   17MOL    H13 8045   6.957   4.898   2.349  0.5174 -1.0461 -0.6949
   17MOL    H14 8046   6.854   5.040   2.338  2.5793  0.1958 -0.9653
   17MOL    H15 8047   6.772   4.770   2.245  1.3345 -0.8004 -0.8799
   17MOL    H16 8048   6.857   4.880   2.137  1.2423  1.6547  1.7303
   17MOL    H17 8049   6.626   4.990   2.281  1.8203  1.5996 -0.2479
   17MOL    H18 8050   6.674   5.041   2.126  5.2482 -0.0639  1.5074
   17MOL    H19 8051   6.498   4.917   2.045 -2.4367 -0.6129  1.2342
   17MOL    H20 8052   6.598   4.783   2.057  0.3421 -0.4683 -0.0396
   17MOL    H21 8053   6.409   4.853   2.291 -1.9494 -1.0987 -1.0907
   17MOL    H22 8054   6.504   4.714   2.282  1.8034  4.1103  2.4004
   17MOL    H23 8055   6.272   4.800   2.084  0.1077 -0.6357 -1.7094
   17MOL    H24 8056   6.367   4.649   2.080  2.2580 -0.6735  1.7508
   17MOL    H25 8057   6.257   4.693   2.217  0.2371 -0.3586  0.1099
   17MOL    H26 8058   6.856   5.143   2.684  0.0402  2.8532 -1.8157
   17MOL    C27 8059   6.831   4.858   2.706 -0.3047 -0.2068  0.2564
   17MOL    C28 8060   6.866   4.708   2.670 -0.5612  0.7637  0.2442
   17MOL    O29 8061   7.007   4.713   2.642 -0.4978 -0.0113  0.1991
   17MOL    C30 8062   7.040   4.635   2.528 -0.4791  0.4090 -0.0894
   17MOL    C31 8063   7.193   4.627   2.527 -0.4413  0.6709  0.6089
   17MOL    C32 8064   7.267   4.562   2.645 -1.0916  0.3197 -0.6554
   17MOL    C33 8065   7.423   4.540   2.620  0.6807  0.1465  0.1308
   17MOL    C34 8066   7.501   4.504   2.751 -1.1011  0.3501 -0.0640
   17MOL    C35 8067   7.655   4.500   2.729  0.6053 -0.5676 -0.3982
   17MOL    H36 8068   6.873   4.884   2.803  1.2492  1.4824 -0.8486
   17MOL    H37 8069   6.723   4.863   2.722 -0.6122  0.9061 -1.9741
   17MOL    H38 8070   6.812   4.665   2.585 -1.5946  2.1599  0.1783
   17MOL    H39 8071   7.013   4.688   2.437  0.0949  1.2554  0.2370
   17MOL    H40 8072   6.988   4.539   2.537 -1.7851  1.2151  1.1680
   17MOL    H41 8073   7.238   4.722   2.497  0.0921 -0.0114 -0.7918
   17MOL    H42 8074   7.210   4.563   2.441  1.2465 -1.5201  2.5159
   17MOL    H43 8075   7.266   4.631   2.729 -1.1133  1.3267 -1.4683
   17MOL    H44 8076   7.229   4.463   2.669  1.2778  0.3256  3.5327
   17MOL    H45 8077   7.417   4.473   2.533 -1.7066  0.1365  0.2526
   17MOL    H46 8078   7.466   4.632   2.581  0.3014  0.3548  0.2077
   17MOL    H47 8079   7.483   4.578   2.829  2.3844  1.8419 -0.6228
   17MOL    H48 8080   7.470   4.403   2.779  1.3513 -0.6313 -0.7706
   17MOL    H49 8081   7.689   4.448   2.639 -0.1524  0.4998 -1.3096
   17MOL    H50 8082   7.691   4.603   2.730  0.9758 -0.6879  1.1099
   17MOL    H51 8083   7.703   4.439   2.806 -1.7534  0.0159  1.5965
   17MOL    C52 8084   6.850   4.614   2.790  0.2592  0.1867 -0.5709
   17MOL    C53 8085   6.710   4.554   2.804 -0.5597 -0.1514 -0.7825
   17MOL    O54 8086   6.660   4.474   2.699  0.1517 -0.0700  0.0998
   17MOL    C55 8087   6.563   4.523   2.612  0.0877  0.6152  1.0833
   17MOL    C56 8088   6.521   4.421   2.501  0.8405 -0.7670  0.0089
   17MOL    C57 8089   6.631   4.422   2.393  0.0565 -0.5459  0.2258
   17MOL    C58 8090   6.591   4.336   2.270  0.6405 -0.8818  0.2095
   17MOL    C59 8091   6.699   4.313   2.166 -0.4127  0.2202 -0.3021
   17MOL    C60 8092   6.748   4.431   2.081  0.4821  0.1323 -0.2985
   17MOL    H61 8093   6.885   4.662   2.881  1.2357 -0.4008 -0.6278
   17MOL    H62 8094   6.909   4.525   2.769 -2.6169 -2.4452  2.0360
   17MOL    H63 8095   6.646   4.642   2.796 -2.0581 -1.4302 -2.9682
   17MOL    H64 8096   6.596   4.617   2.566 -0.3157 -0.2726 -1.1192
   17MOL    H65 8097   6.473   4.550   2.666  0.0842  0.4293  1.1680
   17MOL    H66 8098   6.424   4.450   2.460  0.6130 -0.1805  0.9435
   17MOL    H67 8099   6.519   4.322   2.548 -0.8450 -1.0183 -0.5426
   17MOL    H68 8100   6.649   4.523   2.356  1.9872 -0.9162  0.1263
   17MOL    H69 8101   6.727   4.382   2.425 -0.1236 -0.8076  0.4428
   17MOL    H70 8102   6.569   4.233   2.295 -3.5335 -0.6430 -1.9600
   17MOL    H71 8103   6.500   4.387   2.238  0.5097 -2.3893 -1.9093
   17MOL    H72 8104   6.782   4.268   2.221 -0.9242  1.4247  1.4978
   17MOL    H73 8105   6.661   4.237   2.098 -0.1160 -0.5313  0.3633
   17MOL    H74 8106   6.816   4.403   2.000  0.5389  0.0648 -0.2267
   17MOL    H75 8107   6.665   4.475   2.025  2.1122  1.0425 -2.0701
   17MOL    H76 8108   6.793   4.509   2.141  1.9201 -1.8272  1.2202
   17MOL    C77 8109   6.670   4.483   2.935  0.2671 -0.5742 -0.1325
   17MOL    C78 8110   6.522   4.451   2.952 -0.1158 -0.1287  0.1717
   17MOL    O79 8111   6.435   4.567   2.952  0.1431  0.3781 -0.3652
   17MOL    C80 8112   6.430   4.654   3.066 -0.1954 -0.3752  0.0854
   17MOL    C81 8113   6.312   4.748   3.051 -0.7112  0.1933 -0.2014
   17MOL    C82 8114   6.319   4.847   2.923  0.1619  0.0909  0.0082
   17MOL    C83 8115   6.417   4.959   2.946 -0.0896  0.5159  0.8512
   17MOL    C84 8116   6.421   5.063   2.835 -0.3559 -0.5146  0.3180
   17MOL    C85 8117   6.515   5.181   2.878  0.5572  0.4404  0.5193
   17MOL    H86 8118   6.712   4.542   3.017  0.2955  0.7955 -1.1027
   17MOL    H87 8119   6.725   4.390   2.947 -0.5263 -1.0526 -0.1849
   17MOL    H88 8120   6.491   4.390   2.867 -0.7770  0.9526 -0.3742
   17MOL    H89 8121   6.518   4.718   3.065 -0.0808 -0.5328 -0.6627
   17MOL    H90 8122   6.416   4.603   3.161  0.7293 -1.3803 -0.3134
   17MOL    H91 8123   6.276   4.795   3.142 -1.6198  0.0269 -0.4639
   17MOL    H92 8124   6.232   4.678   3.027 -1.4451  0.8611  0.3059
   17MOL    H93 8125   6.345   4.785   2.837 -1.5779 -1.0201  0.2534
   17MOL    H94 8126   6.223   4.894   2.900 -0.1098 -0.2343  0.4809
   17MOL    H95 8127   6.388   5.002   3.042 -2.2934  0.0472  0.4230
   17MOL    H96 8128   6.515   4.920   2.972  0.3553  1.1140  0.1134
   17MOL    H97 8129   6.465   5.019   2.745  1.4832 -0.3224  1.0963
   17MOL    H98 8130   6.322   5.094   2.802 -0.6420  0.7185  2.2706
   17MOL    H99 8131   6.619   5.150   2.891  0.7253 -0.1418 -1.9439
   17MOL   H100 8132   6.532   5.263   2.808  0.1839 -0.8784 -1.1567
   17MOL   H101 8133   6.476   5.220   2.971 -3.3234  0.6165 -1.1010
   17MOL   C102 8134   6.500   4.364   3.072  0.3867 -0.8874  0.0313
   17MOL   C103 8135   6.365   4.291   3.069  0.1703 -0.4128  0.1157
   17MOL   O104 8136   6.375   4.199   2.964 -0.7212  0.2436 -0.3077
   17MOL   C105 8137   6.275   4.098   2.937  0.2542  0.6651 -0.0850
   17MOL   C106 8138   6.326   4.013   2.825  0.7091 -0.6024  0.1785
   17MOL   C107 8139   6.231   3.890   2.805 -0.0349  0.5803  0.2505
   17MOL   C108 8140   6.275   3.809   2.676  0.1950 -0.3320  0.3629
   17MOL   C109 8141   6.178   3.686   2.661 -0.7414  0.8558 -0.1536
   17MOL   C110 8142   6.150   3.637   2.523  0.2529  0.2895 -0.1933
   17MOL   H111 8143   6.574   4.284   3.074  2.4903  1.0141  1.2033
   17MOL   H112 8144   6.514   4.424   3.163  1.7086 -1.5275  0.2638
   17MOL   H113 8145   6.295   4.372   3.049 -0.8803 -1.5717 -1.0117
   17MOL   H114 8146   6.174   4.136   2.925 -1.0009 -2.1037  1.4253
   17MOL   H115 8147   6.267   4.019   3.011 -0.0226  0.0440 -0.7793
   17MOL   H116 8148   6.422   3.980   2.866  0.9632 -2.3733 -1.8049
   17MOL   H117 8149   6.343   4.082   2.742  0.2204  1.3538  1.6600
   17MOL   H118 8150   6.237   3.824   2.891 -1.6504 -0.7684 -0.6329
   17MOL   H119 8151   6.131   3.935   2.800 -0.3950 -0.2451 -0.1307
   17MOL   H120 8152   6.254   3.878   2.595 -1.6935  1.7344  2.5342
   17MOL   H121 8153   6.381   3.781   2.676  1.0837  2.8463  0.6491
   17MOL   H122 8154   6.233   3.606   2.712 -1.1151  1.3636  1.0547
   17MOL   H123 8155   6.083   3.687   2.715  0.0549  0.4221  1.3059
   17MOL   H124 8156   6.089   3.548   2.534  1.8212 -0.7581  0.1995
   17MOL   H125 8157   6.088   3.712   2.473  0.8806  0.1224 -1.2288
   17MOL   H126 8158   6.240   3.621   2.463 -0.3059 -0.2513 -0.8958
   17MOL   C127 8159   6.329   4.221   3.203  0.0196  0.3012 -0.3501
   17MOL   C128 8160   6.305   4.327   3.320 -0.8871  0.4213 -0.9084
   17MOL   O129 8161   6.249   4.253   3.430  0.1168  0.2310  0.1994
   17MOL   C130 8162   6.352   4.197   3.521 -0.4683 -0.2465  0.3047
   17MOL   C131 8163   6.271   4.153   3.642  0.0912 -0.3025  0.2747
   17MOL   C132 8164   6.156   4.058   3.615 -0.2345  0.2584 -0.1296
   17MOL   C133 8165   6.095   3.999   3.748  0.0472  0.5747 -0.3029
   17MOL   C134 8166   5.986   3.900   3.726  0.4096  0.4745  0.2840
   17MOL   C135 8167   5.940   3.823   3.854 -0.2286 -0.4754  0.3045
   17MOL   H136 8168   6.235   4.167   3.194  0.7312 -1.2751  1.3935
   17MOL   H137 8169   6.409   4.150   3.226 -0.4788 -0.0336  0.3420
   17MOL   H138 8170   6.391   4.385   3.353 -2.2559  1.6955  0.4608
   17MOL   H139 8171   6.421   4.276   3.552 -0.1593  0.4781 -2.1253
   17MOL   H140 8172   6.415   4.121   3.475  1.0500  1.2992 -0.2308
   17MOL   H141 8173   6.228   4.237   3.696 -1.3411 -0.7293 -0.1891
   17MOL   H142 8174   6.340   4.104   3.710  0.0438  0.7334  1.0877
   17MOL   H143 8175   6.085   4.117   3.557  0.8659  0.6286 -1.1185
   17MOL   H144 8176   6.201   3.978   3.556  1.4262  1.8981 -1.1522
   17MOL   H145 8177   6.175   3.948   3.802 -1.1993 -1.5014 -0.3608
   17MOL   H146 8178   6.066   4.075   3.820 -1.0762  1.3717 -1.5728
   17MOL   H147 8179   5.897   3.945   3.682  0.1752  0.5675  0.8392
   17MOL   H148 8180   6.028   3.831   3.653 -0.1191  0.3590  0.0891
   17MOL   H149 8181   6.007   3.740   3.878  0.2650 -0.0481  0.4290
   17MOL   H150 8182   5.929   3.880   3.946 -2.8740 -0.6442  0.1391
   17MOL   H151 8183   5.838   3.785   3.846 -0.8732  1.0574  1.0467
   17MOL   C152 8184   6.200   4.443   3.294  0.5631  0.4573  0.4960
   17MOL   C153 8185   6.190   4.552   3.404  0.0240  0.2047  0.5096
   17MOL   O154 8186   6.307   4.633   3.396 -0.5998  0.4658  0.1916
   17MOL   C155 8187   6.351   4.690   3.523 -0.0460 -0.1809  0.0155
   17MOL   C156 8188   6.475   4.784   3.495 -0.0397  0.0798  1.1522
   17MOL   C157 8189   6.434   4.903   3.403 -0.2956  0.5737 -0.1270
   17MOL   C158 8190   6.547   4.996   3.352 -0.0963 -0.0077 -0.9393
   17MOL   C159 8191   6.493   5.128   3.301  0.7499  0.8341 -0.7534
   17MOL   C160 8192   6.604   5.202   3.239  0.1298 -0.5556  0.3713
   17MOL   H161 8193   6.213   4.503   3.204 -2.6699 -0.9104 -0.9804
   17MOL   H162 8194   6.105   4.391   3.277  1.4993 -0.6022 -1.7054
   17MOL   H163 8195   6.187   4.494   3.497  2.5134 -1.1588 -0.2106
   17MOL   H164 8196   6.378   4.612   3.594 -0.9038  0.2637  0.8414
   17MOL   H165 8197   6.263   4.736   3.569  1.1647  3.7720 -1.4344
   17MOL   H166 8198   6.562   4.731   3.457 -0.5979 -2.5749  3.4349
   17MOL   H167 8199   6.501   4.830   3.591 -2.4038  1.0702  1.3729
   17MOL   H168 8200   6.370   4.872   3.320  0.2639 -0.4172 -0.2005
   17MOL   H169 8201   6.361   4.964   3.455 -0.6546 -0.7313  0.9412
   17MOL   H170 8202   6.628   5.003   3.424 -0.2910  0.7927 -0.7926
   17MOL   H171 8203   6.596   4.947   3.268  1.5211  1.6484 -0.9854
   17MOL   H172 8204   6.403   5.110   3.243 -1.2168  0.3689  2.2923
   17MOL   H173 8205   6.461   5.179   3.392 -2.9840 -1.1167 -0.8742
   17MOL   H174 8206   6.681   5.213   3.315 -0.2285 -0.5823  0.7384
   17MOL   H175 8207   6.642   5.165   3.144 -1.2296 -1.3159  0.0995
   17MOL   H176 8208   6.579   5.308   3.226  1.4294 -0.2723  0.1937
   17MOL   C177 8209   6.070   4.644   3.374  0.6407 -0.1956  0.2278
   17MOL   C178 8210   5.927   4.585   3.368  0.2915  0.4533 -0.1464
   17MOL   O179 8211   5.891   4.551   3.503 -0.1816  0.2634 -0.0997
   17MOL   C180 8212   5.937   4.426   3.556 -0.1802  0.5363  0.1200
   17MOL   C181 8213   5.821   4.395   3.651 -0.8150  1.0233 -0.1206
   17MOL   C182 8214   5.840   4.265   3.732 -0.7299  0.3439 -0.9112
   17MOL   C183 8215   5.722   4.251   3.831  0.7825 -0.0635  1.0696
   17MOL   C184 8216   5.728   4.116   3.903  0.2337  0.3812 -0.2720
   17MOL   C185 8217   5.606   4.085   3.980 -0.0870 -0.3086  0.2653
   17MOL   H186 8218   6.072   4.723   3.450  0.4652 -0.2461  0.2834
   17MOL   H187 8219   6.091   4.691   3.278 -2.0927  0.0880 -0.2449
   17MOL   H188 8220   5.912   4.499   3.303  2.0799 -1.7166  2.1895
   17MOL   H189 8221   6.035   4.437   3.604 -0.3624  0.5863  0.4786
   17MOL   H190 8222   5.944   4.353   3.475  2.0826  0.9473 -0.0928
   17MOL   H191 8223   5.734   4.388   3.586 -0.8118 -0.3419  0.0047
   17MOL   H192 8224   5.800   4.478   3.719 -3.0849  1.1724 -0.9320
   17MOL   H193 8225   5.854   4.185   3.659 -1.4822  1.2939 -2.1355
   17MOL   H194 8226   5.930   4.277   3.792 -0.6822 -0.4003 -0.8299
   17MOL   H195 8227   5.722   4.334   3.902  2.5111  1.6697 -0.8667
   17MOL   H196 8228   5.629   4.260   3.775  1.1946 -1.0033  0.2156
   17MOL   H197 8229   5.739   4.031   3.835  1.0959  0.2790 -0.0153
   17MOL   H198 8230   5.806   4.109   3.980  1.3967 -3.1353 -1.6542
   17MOL   H199 8231   5.517   4.090   3.918  1.0775 -0.7739 -1.4745
   17MOL   H200 8232   5.611   3.982   4.017 -1.7885 -1.0600 -1.5080
   17MOL   H201 8233   5.580   4.149   4.064 -1.8236  1.2199 -1.3899
   17MOL   C202 8234   5.818   4.693   3.337  0.0072  0.0437 -0.3922
   17MOL   C203 8235   5.826   4.752   3.195  0.3750  0.9399 -0.2266
   17MOL   O204 8236   5.914   4.864   3.202 -0.4862 -0.2399  0.3513
   17MOL   C205 8237   5.960   4.934   3.078 -0.1472  0.2264 -0.6286
   17MOL   C206 8238   6.056   5.045   3.112 -1.2260  0.3927  0.3625
   17MOL   C207 8239   6.008   5.146   3.215  0.5407  0.5014  0.7222
   17MOL   C208 8240   6.096   5.262   3.245 -0.0942  0.5257  0.0597
   17MOL   C209 8241   6.012   5.379   3.298  0.1370  0.2976 -0.6216
   17MOL   C210 8242   6.102   5.498   3.332 -0.6397 -0.5840  0.4277
   17MOL   H211 8243   5.728   4.635   3.356 -0.0406  0.7403  1.5822
   17MOL   H212 8244   5.815   4.762   3.421 -1.2634 -2.0815  1.3601
   17MOL   H213 8245   5.871   4.684   3.122  2.7686  2.4133 -0.1758
   17MOL   H214 8246   5.873   4.975   3.027 -0.2885  3.6062  2.1816
   17MOL   H215 8247   6.001   4.859   3.010  1.1126  1.0157 -0.7481
   17MOL   H216 8248   6.086   5.091   3.018 -1.8317 -0.3755 -0.2141
   17MOL   H217 8249   6.145   4.992   3.145 -0.5727  0.1630 -1.7294
   17MOL   H218 8250   5.916   5.188   3.176  0.3459  0.8274  1.5175
   17MOL   H219 8251   5.984   5.093   3.308  2.2410 -2.1799 -0.3132
   17MOL   H220 8252   6.181   5.241   3.311  1.3568  0.6638 -1.7201
   17MOL   H221 8253   6.145   5.295   3.153  1.9647  0.5557  1.1298
   17MOL   H222 8254   5.948   5.416   3.218  0.4291  1.0502 -0.5105
   17MOL   H223 8255   5.947   5.336   3.375 -0.0077  1.4049 -0.1089
   17MOL   H224 8256   6.167   5.510   3.246 -1.5759  1.6993  0.0029
   17MOL   H225 8257   6.048   5.591   3.350  1.2029  0.4441  0.8176
   17MOL   H226 8258   6.158   5.462   3.419  0.4839  2.6394  1.1174
   17MOL   C227 8259   5.681   4.797   3.165  0.1048  0.6105  0.5216
   17MOL   C228 8260   5.584   4.674   3.149  0.0983 -0.8237  0.3873
   17MOL   O229 8261   5.452   4.721   3.180 -0.2272 -0.0379  0.0084
   17MOL   C230 8262   5.423   4.700   3.317 -0.3549  0.7674 -0.8361
   17MOL   C231 8263   5.268   4.714   3.317  0.0369  0.8377  0.1411
   17MOL   C232 8264   5.218   4.850   3.273 -0.2699  0.8609 -0.2546
   17MOL   C233 8265   5.071   4.878   3.295 -0.0137 -0.4087  0.3455
   17MOL   C234 8266   4.975   4.815   3.196 -1.0817  0.7278  0.5906
   17MOL   C235 8267   4.831   4.821   3.242 -0.1340 -0.5457  0.9504
   17MOL   H236 8268   5.644   4.865   3.242 -3.0609  0.3118 -0.6493
   17MOL   H237 8269   5.674   4.856   3.074  1.0096 -4.1590 -2.8442
   17MOL   H238 8270   5.602   4.591   3.217  2.5884  0.2677  1.1300
   17MOL   H239 8271   5.468   4.768   3.388  1.3552  1.1339 -2.2337
   17MOL   H240 8272   5.458   4.603   3.350  0.8282  1.0522 -1.2265
   17MOL   H241 8273   5.247   4.693   3.422  1.5497 -0.9677  0.1242
   17MOL   H242 8274   5.217   4.632   3.266  2.2956 -1.3829  1.3291
   17MOL   H243 8275   5.282   4.922   3.325 -0.9257  0.2952  1.3560
   17MOL   H244 8276   5.250   4.856   3.169 -1.1094 -0.3880 -0.5921
   17MOL   H245 8277   5.035   4.843   3.391 -4.3413 -0.3987 -1.1444
   17MOL   H246 8278   5.061   4.987   3.295 -1.0429 -0.4674 -1.7038
   17MOL   H247 8279   4.978   4.861   3.097 -1.5231  0.0190  0.2390
   17MOL   H248 8280   5.003   4.710   3.188  0.0174  1.0682  0.0025
   17MOL   H249 8281   4.777   4.741   3.192 -1.3154 -0.0619  1.4252
   17MOL   H250 8282   4.827   4.809   3.350 -0.0709  0.3336  1.0594
   17MOL   H251 8283   4.787   4.921   3.231 -0.1875 -0.7156 -0.4788
   17MOL   C252 8284   5.564   4.631   3.007 -0.0164 -0.3622  0.3670
   17MOL   C253 8285   5.491   4.499   3.006  0.5943 -1.4069 -0.3925
   17MOL   O254 8286   5.593   4.407   3.044 -0.5630 -0.4360  0.2603
   17MOL   C255 8287   5.563   4.300   3.130 -0.1952 -0.3771  0.0226
   17MOL   C256 8288   5.678   4.200   3.135  0.3778 -0.1311 -0.7046
   17MOL   C257 8289   5.795   4.265   3.205 -0.9113 -1.0081 -0.0353
   17MOL   C258 8290   5.894   4.169   3.271 -0.4623 -0.0047  0.1736
   17MOL   C259 8291   5.923   4.048   3.183  0.0744  0.4110 -0.2704
   17MOL   C260 8292   6.010   3.935   3.249  0.0286  0.0378 -0.1246
   17MOL   H261 8293   5.520   4.711   2.948 -0.0281 -0.3671  0.3690
   17MOL   H262 8294   5.665   4.618   2.967  1.0944  0.2731  2.9009
   17MOL   H263 8295   5.405   4.498   3.074 -0.6637  3.5660 -1.7027
   17MOL   H264 8296   5.483   4.250   3.076  0.5965 -1.2076 -0.3903
   17MOL   H265 8297   5.534   4.320   3.234 -1.5118  0.0371 -0.4076
   17MOL   H266 8298   5.705   4.165   3.035 -2.0004  2.1750 -2.2144
   17MOL   H267 8299   5.637   4.115   3.190 -2.3239 -0.0352 -2.4640
   17MOL   H268 8300   5.849   4.337   3.143 -1.0979  0.8426  1.8902
   17MOL   H269 8301   5.759   4.341   3.274 -2.3007  0.1391 -1.9916
   17MOL   H270 8302   5.982   4.232   3.285  0.7541 -1.1083 -2.1807
   17MOL   H271 8303   5.856   4.148   3.370 -0.2855  1.3706  0.5465
   17MOL   H272 8304   5.830   3.992   3.169  1.1907 -2.1974  2.3030
   17MOL   H273 8305   5.971   4.078   3.089  1.1648 -1.3342 -0.2869
   17MOL   H274 8306   5.947   3.916   3.336  0.3430 -0.6818 -0.0522
   17MOL   H275 8307   6.018   3.848   3.184 -2.3927 -0.6162  0.3940
   17MOL   H276 8308   6.104   3.986   3.270  0.4358  0.2621 -2.3619
   17MOL   C277 8309   5.449   4.473   2.862 -0.5185 -0.1864 -0.5303
   17MOL   C278 8310   5.306   4.542   2.831 -0.2549 -0.4404 -0.5898
   17MOL   O279 8311   5.331   4.681   2.807  0.9477  0.0653 -0.0592
   17MOL   C280 8312   5.236   4.765   2.875  0.3702 -0.4782  0.3011
   17MOL   C281 8313   5.282   4.910   2.877  0.3329 -0.3330  0.4831
   17MOL   C282 8314   5.253   4.985   2.746 -0.7902  0.4180 -0.7520
   17MOL   C283 8315   5.309   5.133   2.740 -0.8972 -0.0521  0.4299
   17MOL   C284 8316   5.245   5.205   2.623  0.5847 -0.3298 -0.0383
   17MOL   C285 8317   5.275   5.158   2.482  0.3633 -0.5588  0.4663
   17MOL   H286 8318   5.524   4.516   2.795  0.6490  0.4900  1.1476
   17MOL   H287 8319   5.432   4.368   2.843 -1.4360 -0.0447 -0.4928
   17MOL   H288 8320   5.233   4.531   2.912 -1.0402 -0.0555 -1.2404
   17MOL   H289 8321   5.242   4.744   2.982  0.1107 -0.2464  0.3617
   17MOL   H290 8322   5.136   4.746   2.837  0.4926 -1.4228  0.4382
   17MOL   H291 8323   5.385   4.938   2.900  0.2953 -0.6579  1.0395
   17MOL   H292 8324   5.224   4.942   2.963  0.5104  1.3919 -0.0056
   17MOL   H293 8325   5.297   4.932   2.661  1.5968  1.1142  0.0054
   17MOL   H294 8326   5.144   4.983   2.734 -0.6090  0.3509 -2.5652
   17MOL   H295 8327   5.282   5.194   2.827 -0.4019  2.3650 -1.0790
   17MOL   H296 8328   5.417   5.138   2.728 -0.8120 -2.3678 -0.1606
   17MOL   H297 8329   5.137   5.201   2.636  0.2576  0.4510 -2.3648
   17MOL   H298 8330   5.270   5.311   2.631 -0.5717 -0.0456 -0.0988
   17MOL   H299 8331   5.245   5.053   2.473  2.1196 -0.9754 -0.7387
   17MOL   H300 8332   5.201   5.205   2.417  1.1421 -2.3560 -1.8167
   17MOL   H301 8333   5.379   5.171   2.454  0.2263  0.1722  0.2793
   17MOL   C302 8334   5.255   4.488   2.693 -0.4506  0.0521  0.0566
   17MOL   C303 8335   5.212   4.338   2.691 -0.2526  0.5758 -0.2365
   17MOL   O304 8336   5.154   4.314   2.567 -0.2960  0.5072  0.3985
   17MOL   C305 8337   5.243   4.274   2.465  0.7805  0.1836  0.2037
   17MOL   C306 8338   5.164   4.288   2.330  0.0677  0.0015 -0.7393
   17MOL   C307 8339   5.275   4.297   2.220 -0.8285  0.6890  0.3820
   17MOL   C308 8340   5.211   4.281   2.081  0.2102 -0.3263  0.8050
   17MOL   C309 8341   5.319   4.280   1.966  0.3118 -0.1207  0.1983
   17MOL   C310 8342   5.258   4.254   1.823 -0.2745  0.2114 -0.8481
   17MOL   H311 8343   5.178   4.556   2.655 -0.8006 -1.7706 -2.6788
   17MOL   H312 8344   5.344   4.489   2.631  0.0632  1.7978  0.7858
   17MOL   H313 8345   5.290   4.263   2.704 -2.8333 -1.6216  3.6144
   17MOL   H314 8346   5.286   4.176   2.482  1.1920  0.3995  0.4248
   17MOL   H315 8347   5.336   4.331   2.470  2.3592 -2.4199  1.4593
   17MOL   H316 8348   5.112   4.382   2.313 -0.0863 -0.1350 -1.0348
   17MOL   H317 8349   5.098   4.205   2.302 -2.1780  1.4590  0.0989
   17MOL   H318 8350   5.326   4.393   2.228  0.6116 -0.0997  0.7953
   17MOL   H319 8351   5.351   4.221   2.234 -1.4375 -0.3189 -1.4548
   17MOL   H320 8352   5.155   4.187   2.074  1.8404 -1.1731 -1.6597
   17MOL   H321 8353   5.135   4.356   2.059 -0.1684 -0.7795  0.5379
   17MOL   H322 8354   5.368   4.377   1.967 -0.2111  0.1449  1.2673
   17MOL   H323 8355   5.399   4.207   1.982  0.3735 -0.4936 -1.7619
   17MOL   H324 8356   5.192   4.167   1.818 -0.1507  0.1656 -1.7958
   17MOL   H325 8357   5.193   4.334   1.786 -2.4106 -1.4974 -0.9088
   17MOL   H326 8358   5.337   4.224   1.755 -2.9454 -0.5319 -3.7516
   17MOL   C327 8359   5.098   4.312   2.788  0.0186  0.8451 -0.4979
   17MOL   C328 8360   5.075   4.159   2.823  0.0262 -0.4945 -0.4762
   17MOL   O329 8361   5.153   4.124   2.939 -0.3832  0.6206 -0.6962
   17MOL   C330 8362   5.279   4.068   2.915  0.8396 -0.5673 -0.2423
   17MOL   C331 8363   5.315   3.971   3.026  0.1955 -0.6551  0.6506
   17MOL   C332 8364   5.427   3.873   2.987 -0.7748  0.6775  0.3439
   17MOL   C333 8365   5.507   3.810   3.109  0.2493  0.7955 -0.0228
   17MOL   C334 8366   5.620   3.711   3.065 -0.2739  0.4221  0.6162
   17MOL   C335 8367   5.715   3.764   2.963 -0.1431 -0.1772 -0.2132
   17MOL   H336 8368   5.008   4.364   2.755 -0.3597 -0.2436 -1.1776
   17MOL   H337 8369   5.114   4.362   2.884  1.7229  1.7980 -1.2516
   17MOL   H338 8370   5.112   4.099   2.740  1.9007  1.7615 -1.3127
   17MOL   H339 8371   5.354   4.146   2.918 -1.2491  1.4387  2.1760
   17MOL   H340 8372   5.282   4.024   2.815  0.3606  1.6831 -1.2697
   17MOL   H341 8373   5.219   3.921   3.041  0.0013 -0.6366 -0.4892
   17MOL   H342 8374   5.354   4.020   3.116 -1.0581  2.1066 -0.2388
   17MOL   H343 8375   5.382   3.786   2.938 -1.3096 -0.1761  2.3006
   17MOL   H344 8376   5.502   3.910   2.918  0.1678  0.2653  1.1270
   17MOL   H345 8377   5.569   3.886   3.157 -0.6105  0.5169  1.5397
   17MOL   H346 8378   5.436   3.754   3.170  0.2299  0.5441 -0.2764
   17MOL   H347 8379   5.683   3.677   3.147  0.4213 -0.7298 -0.3789
   17MOL   H348 8380   5.587   3.613   3.030  0.1169  0.7813 -0.7606
   17MOL   H349 8381   5.734   3.870   2.981  1.2137 -0.2259 -1.2718
   17MOL   H350 8382   5.807   3.706   2.956 -0.6128 -0.9643  0.1462
   17MOL   H351 8383   5.676   3.767   2.862 -3.0351 -1.7496  0.8049
   17MOL   C352 8384   4.925   4.126   2.830 -0.9035  0.2283  0.3688
   17MOL   C353 8385   4.898   3.972   2.841  0.2701  0.4648 -0.3747
   17MOL   O354 8386   4.945   3.913   2.719 -0.7431 -0.3688  0.2369
   17MOL   C355 8387   4.982   3.775   2.725 -0.6149 -0.4348 -0.4106
   17MOL   C356 8388   5.058   3.738   2.603  0.3444  1.1051 -0.3428
   17MOL   C357 8389   5.183   3.826   2.582 -0.2011 -0.0016  0.4810
   17MOL   C358 8390   5.241   3.813   2.450 -0.1614  0.5374 -0.2799
   17MOL   C359 8391   5.389   3.858   2.436  0.2513  0.1415 -0.8462
   17MOL   C360 8392   5.434   3.851   2.296 -0.1481 -0.2019 -0.2072
   17MOL   H361 8393   4.883   4.174   2.919 -0.6899  0.0782  0.5505
   17MOL   H362 8394   4.884   4.169   2.739 -0.8858 -0.7544 -0.1098
   17MOL   H363 8395   4.964   3.922   2.911  0.9694  1.0015 -0.6401
   17MOL   H364 8396   4.894   3.711   2.729 -0.1450 -1.3169 -2.9041
   17MOL   H365 8397   5.043   3.737   2.807 -0.0839  1.2779 -0.0055
   17MOL   H366 8398   4.995   3.740   2.514 -1.5808  0.1817  0.9634
   17MOL   H367 8399   5.094   3.635   2.607 -1.4332  0.4860 -0.1566
   17MOL   H368 8400   5.163   3.931   2.600  1.5061  0.1984  1.3346
   17MOL   H369 8401   5.259   3.791   2.652  1.2323 -0.7181 -1.3831
   17MOL   H370 8402   5.231   3.708   2.423  1.7916  0.4382 -0.6731
   17MOL   H371 8403   5.183   3.865   2.373  1.6329  1.1748 -1.2503
   17MOL   H372 8404   5.392   3.958   2.480 -1.5293  0.5265 -1.5575
   17MOL   H373 8405   5.457   3.801   2.500  0.6761 -0.7133 -2.0460
   17MOL   H374 8406   5.354   3.885   2.231 -0.1422 -1.6514 -1.0038
   17MOL   H375 8407   5.505   3.928   2.264  0.0679  1.4701  4.0553
   17MOL   H376 8408   5.460   3.750   2.263 -0.8155 -0.2433 -0.6087
   17MOL   C377 8409   4.748   3.946   2.870 -0.3350  0.0354 -0.3103
   17MOL   C378 8410   4.714   3.940   3.024  0.2217  0.1707 -0.0540
   17MOL   O379 8411   4.611   3.843   3.063  0.6783 -0.1449 -0.0679
   17MOL   C380 8412   4.667   3.725   3.114 -0.8380 -0.1777  0.0899
   17MOL   C381 8413   4.562   3.610   3.104 -0.3192  0.1761  0.6206
   17MOL   C382 8414   4.528   3.562   2.965 -0.1770  0.1108 -0.8677
   17MOL   C383 8415   4.638   3.474   2.904  0.1356 -0.4876 -0.0672
   17MOL   C384 8416   4.620   3.459   2.752 -0.0093 -0.4166 -0.3051
   17MOL   C385 8417   4.731   3.379   2.684  0.0301 -0.2152 -0.4897
   17MOL   H386 8418   4.681   4.015   2.819 -0.9185 -0.1217  0.2354
   17MOL   H387 8419   4.725   3.846   2.832 -1.3694  1.5839 -4.0507
   17MOL   H388 8420   4.805   3.914   3.078  1.2555 -0.1499 -1.9171
   17MOL   H389 8421   4.679   3.748   3.220 -0.6737 -0.3499  0.1093
   17MOL   H390 8422   4.757   3.697   3.059 -0.4313  0.3470  0.4883
   17MOL   H391 8423   4.471   3.637   3.157 -1.1326  0.5041 -0.9327
   17MOL   H392 8424   4.600   3.525   3.160  0.2427  0.2546  0.3652
   17MOL   H393 8425   4.431   3.513   2.959  0.2118 -0.7742 -0.0518
   17MOL   H394 8426   4.520   3.656   2.912  1.5490  0.2392 -0.9193
   17MOL   H395 8427   4.738   3.514   2.923 -0.7251  0.7193  2.0521
   17MOL   H396 8428   4.624   3.382   2.961 -0.3901  1.1057  2.4451
   17MOL   H397 8429   4.528   3.408   2.723 -1.4055  0.6900  1.9882
   17MOL   H398 8430   4.621   3.558   2.705  3.5882 -0.8243 -1.2418
   17MOL   H399 8431   4.750   3.292   2.745  0.4205  2.5241  3.4901
   17MOL   H400 8432   4.702   3.345   2.584  0.0811 -2.3690  0.2127
   17MOL   H401 8433   4.818   3.446   2.682  0.1927 -0.3421  1.4535
   17MOL   C402 8434   4.655   4.074   3.071 -0.3315 -0.4536 -0.2409
   17MOL   C403 8435   4.647   4.094   3.225  0.1363  0.3279  0.1042
   17MOL   O404 8436   4.564   4.209   3.240  0.1025  0.4804  0.5110
   17MOL   C405 8437   4.490   4.223   3.360  0.5692 -0.1932 -0.1768
   17MOL   C406 8438   4.427   4.362   3.366  0.2337  0.2734  0.1322
   17MOL   C407 8439   4.522   4.481   3.369 -0.4331  0.2152 -0.3293
   17MOL   C408 8440   4.454   4.614   3.341  0.0019  0.1526  0.5070
   17MOL   C409 8441   4.336   4.634   3.429  0.2083 -0.4137 -0.0030
   17MOL   C410 8442   4.380   4.614   3.583  0.4412 -0.3854 -0.3524
   17MOL   H411 8443   4.553   4.090   3.035 -0.6878  1.3460  1.4909
   17MOL   H412 8444   4.713   4.159   3.036  0.4204 -1.0021 -0.3628
   17MOL   H413 8445   4.589   4.011   3.266  0.0473 -0.3232 -1.2904
   17MOL   H414 8446   4.559   4.219   3.445 -0.3954 -0.2856  0.6176
   17MOL   H415 8447   4.418   4.141   3.367  1.9354 -1.4577 -0.8443
   17MOL   H416 8448   4.362   4.359   3.453  0.5570 -2.9855  0.3134
   17MOL   H417 8449   4.360   4.378   3.281  1.1446 -0.4077 -0.7203
   17MOL   H418 8450   4.573   4.488   3.465  2.0267 -0.7837 -1.5389
   17MOL   H419 8451   4.603   4.464   3.299 -0.0051  0.9418 -0.0249
   17MOL   H420 8452   4.524   4.696   3.357 -0.0125  0.8313 -2.6202
   17MOL   H421 8453   4.426   4.623   3.236 -1.3931 -1.5372  0.7065
   17MOL   H422 8454   4.296   4.736   3.423 -2.6996 -1.4956 -0.0529
   17MOL   H423 8455   4.252   4.568   3.409  0.5660 -0.7568 -0.3678
   17MOL   H424 8456   4.476   4.660   3.604  0.6973 -1.1538  0.1730
   17MOL   H425 8457   4.304   4.662   3.646 -0.2729  0.4145 -1.8059
   17MOL   H426 8458   4.387   4.511   3.618  0.0542  0.3116  1.8496
   17MOL   C427 8459   4.786   4.107   3.293  0.2359 -0.2544  0.5105
   17MOL   C428 8460   4.837   3.988   3.381 -0.4846 -0.2574 -0.1141
   17MOL   O429 8461   4.980   3.991   3.395  0.5027 -0.2899 -0.0645
   17MOL   C430 8462   5.048   3.935   3.283  0.6151 -1.1422  0.1284
   17MOL   C431 8463   5.074   3.788   3.289 -0.0979  0.3217 -0.4041
   17MOL   C432 8464   5.178   3.755   3.404  0.0580  0.5034 -0.4461
   17MOL   C433 8465   5.233   3.611   3.415  0.2026 -0.3420 -0.2588
   17MOL   C434 8466   5.328   3.585   3.528 -0.1391 -0.2807  0.8065
   17MOL   C435 8467   5.364   3.438   3.535 -0.4370 -0.0840 -0.2639
   17MOL   H436 8468   4.860   4.126   3.215 -0.5985  0.3741 -0.1290
   17MOL   H437 8469   4.777   4.195   3.356 -0.8660  0.0539 -0.0810
   17MOL   H438 8470   4.806   3.898   3.328  0.0354  0.0971 -1.0293
   17MOL   H439 8471   5.137   3.994   3.258 -0.6841  0.4208 -0.9436
   17MOL   H440 8472   4.993   3.954   3.191 -0.0915 -1.5671  0.4648
   17MOL   H441 8473   5.112   3.745   3.197 -0.4394  0.2496 -0.5105
   17MOL   H442 8474   4.979   3.743   3.316 -0.1053  1.2805  1.2616
   17MOL   H443 8475   5.269   3.815   3.400  0.3895  0.0940  0.7101
   17MOL   H444 8476   5.134   3.774   3.502 -0.4812  0.9056 -0.7632
   17MOL   H445 8477   5.147   3.545   3.428  0.4565 -0.2762  1.9631
   17MOL   H446 8478   5.280   3.583   3.320  1.1428 -0.4208  0.2290
   17MOL   H447 8479   5.417   3.646   3.511  0.8226 -1.9584 -0.2345
   17MOL   H448 8480   5.286   3.602   3.628 -0.9152  3.2030 -0.0443
   17MOL   H449 8481   5.276   3.374   3.542 -1.0442  0.8925  1.0741
   17MOL   H450 8482   5.409   3.408   3.440  0.3651 -0.5597  0.2608
   17MOL   H451 8483   5.429   3.413   3.619 -0.5538 -2.1490 -0.7726
   17MOL   C452 8484   4.787   3.981   3.531  0.3408 -0.3744  0.0445
   17MOL   C453 8485   4.852   3.858   3.614  0.2353 -0.6833  0.2478
   17MOL   O454 8486   4.761   3.745   3.603 -0.7744 -0.2502  0.5690
   17MOL   C455 8487   4.802   3.642   3.514 -0.4171 -0.1324  0.0487
   17MOL   C456 8488   4.702   3.537   3.517 -0.1907  0.0381  0.2113
   17MOL   C457 8489   4.669   3.491   3.656  0.1740  0.2533 -0.1360
   17MOL   C458 8490   4.548   3.389   3.670 -0.2943  0.0678  0.3967
   17MOL   C459 8491   4.533   3.322   3.811  0.5473 -0.1508 -0.1226
   17MOL   C460 8492   4.383   3.293   3.832 -0.6151  0.7453 -0.0141
   17MOL   H461 8493   4.816   4.078   3.573 -0.8110 -0.2661  0.6026
   17MOL   H462 8494   4.680   3.976   3.548  0.0979  0.0635 -1.3086
   17MOL   H463 8495   4.955   3.839   3.587 -0.0645 -2.0750  0.0524
   17MOL   H464 8496   4.900   3.603   3.543  0.5307  1.7711 -0.4249
   17MOL   H465 8497   4.817   3.668   3.409 -0.4953 -2.6370 -0.6113
   17MOL   H466 8498   4.735   3.459   3.449 -0.6325 -0.4218  0.5165
   17MOL   H467 8499   4.609   3.582   3.481 -0.0305  0.4119  0.2638
   17MOL   H468 8500   4.752   3.442   3.707  0.2168  0.1182 -0.3325
   17MOL   H469 8501   4.637   3.581   3.707 -3.5817  1.0672 -3.6703
   17MOL   H470 8502   4.455   3.427   3.628 -1.1432 -0.7981  1.4541
   17MOL   H471 8503   4.576   3.312   3.598  1.7305  0.2409  0.9554
   17MOL   H472 8504   4.591   3.229   3.817 -2.4174 -2.1390 -1.1758
   17MOL   H473 8505   4.564   3.389   3.891 -0.6174  0.4760 -0.1872
   17MOL   H474 8506   4.340   3.233   3.753  1.3049  0.8681 -1.1856
   17MOL   H475 8507   4.370   3.235   3.924 -2.4940  1.0449 -0.0758
   17MOL   H476 8508   4.317   3.380   3.840 -1.6342 -0.0261  0.0147
   17MOL   C477 8509   4.857   3.907   3.762 -0.3240 -0.6397 -0.3605
   17MOL   C478 8510   4.895   3.782   3.844  0.0679 -0.3545 -0.1704
   17MOL   O479 8511   4.872   3.825   3.975 -0.4874 -0.0395  0.7154
   17MOL   C480 8512   4.914   3.729   4.071  0.3136  0.2832 -0.3666
   17MOL   C481 8513   4.840   3.765   4.209  0.4698  0.7203  0.1613
   17MOL   C482 8514   4.883   3.890   4.287  0.0581 -0.1699  0.0009
   17MOL   C483 8515   4.787   3.916   4.412 -0.3759 -0.2431 -0.7574
   17MOL   C484 8516   4.795   4.055   4.475  1.1847 -0.2055 -0.5315
   17MOL   C485 8517   4.769   4.165   4.367 -0.2559 -0.1128 -0.1381
   17MOL   H486 8518   4.935   3.981   3.778 -2.0331  0.8105  1.3514
   17MOL   H487 8519   4.763   3.947   3.798 -1.7291 -1.4062 -3.0305
   17MOL   H488 8520   4.830   3.696   3.824  2.5443 -2.1612 -0.7654
   17MOL   H489 8521   5.021   3.746   4.079  0.0837  2.7119 -1.7403
   17MOL   H490 8522   4.894   3.626   4.043 -3.7631  1.3975 -1.9450
   17MOL   H491 8523   4.868   3.683   4.275 -0.2072  1.9567  2.0398
   17MOL   H492 8524   4.733   3.760   4.187  0.1228 -0.3420  1.9877
   17MOL   H493 8525   4.980   3.865   4.330 -0.1248 -0.2161  0.3868
   17MOL   H494 8526   4.884   3.976   4.219 -1.0731  0.7295  1.0809
   17MOL   H495 8527   4.684   3.900   4.379 -0.5044  0.9983 -0.9477
   17MOL   H496 8528   4.803   3.846   4.495  0.8888  0.4258 -0.4231
   17MOL   H497 8529   4.716   4.058   4.551  1.5274 -1.4064 -0.1191
   17MOL   H498 8530   4.888   4.071   4.529  1.5788  2.8537 -1.9526
   17MOL   H499 8531   4.757   4.265   4.408 -0.0212  0.2547 -0.9468
   17MOL   H500 8532   4.856   4.180   4.302  0.3485  0.5300  0.8206
   17MOL   H501 8533   4.683   4.154   4.300 -0.0722  1.9185 -0.7162
   17MOL   H502 8534   4.995   3.747   3.818 -0.3937 -1.6323 -0.2804
   18MOL     C1 8535   6.349   6.842   0.529  0.3322  0.0053 -0.1625
   18MOL     C2 8536   6.437   6.965   0.500 -0.1269  0.8197 -0.0643
   18MOL     O3 8537   6.573   6.951   0.526  0.4511 -0.0242 -0.0881
   18MOL     C4 8538   6.648   6.932   0.414 -0.3167  0.2568  1.1119
   18MOL     C5 8539   6.794   6.922   0.470 -0.2390 -0.2279  0.2344
   18MOL     C6 8540   6.902   6.909   0.356 -0.1105 -0.2240 -0.3686
   18MOL     C7 8541   7.052   6.904   0.403 -0.1780  0.1885 -0.1432
   18MOL     C8 8542   7.118   7.045   0.397 -0.0029  0.3826 -0.2875
   18MOL     C9 8543   7.053   7.146   0.483  0.2405  0.6982  0.0178
   18MOL    H10 8544   6.347   6.773   0.445  2.8106  0.8571 -0.9306
   18MOL    H11 8545   6.382   6.789   0.619 -0.6952 -1.6611 -0.7219
   18MOL    H12 8546   6.413   6.993   0.397 -1.0072 -0.3725 -0.1847
   18MOL    H13 8547   6.627   7.018   0.351 -1.2111 -0.5297  0.3092
   18MOL    H14 8548   6.612   6.845   0.358  1.3672 -0.4024  1.0104
   18MOL    H15 8549   6.794   6.837   0.539  0.9937 -0.4477 -0.0209
   18MOL    H16 8550   6.813   7.007   0.535 -0.3655 -1.7440  2.3424
   18MOL    H17 8551   6.873   6.820   0.301  0.2328  0.3438 -1.4970
   18MOL    H18 8552   6.891   6.986   0.279 -1.3288 -0.4587 -0.4391
   18MOL    H19 8553   7.061   6.865   0.505  1.1581  1.7687  0.3714
   18MOL    H20 8554   7.108   6.825   0.353  0.0634 -0.3463  0.9421
   18MOL    H21 8555   7.106   7.077   0.293  0.7328 -0.1063 -0.5258
   18MOL    H22 8556   7.224   7.044   0.424 -0.3281  0.6570  1.0370
   18MOL    H23 8557   7.058   7.121   0.589 -1.3765  1.8752  0.3889
   18MOL    H24 8558   7.101   7.242   0.465  1.4969 -0.2121 -1.7276
   18MOL    H25 8559   6.947   7.167   0.469 -0.5000 -1.1195  2.5236
   18MOL    H26 8560   6.244   6.865   0.548 -0.0018 -1.8407  0.3907
   18MOL    C27 8561   6.386   7.086   0.588  0.1110 -0.2737 -0.0534
   18MOL    C28 8562   6.446   7.216   0.543  0.5401 -0.3936 -0.7444
   18MOL    O29 8563   6.353   7.316   0.567 -0.5942 -0.0965 -0.1075
   18MOL    C30 8564   6.233   7.326   0.497 -0.1572 -0.5570  0.4258
   18MOL    C31 8565   6.209   7.472   0.444 -0.2036  0.6522 -0.6392
   18MOL    C32 8566   6.316   7.517   0.346 -0.3230  0.6741 -0.1634
   18MOL    C33 8567   6.273   7.647   0.281 -0.0320 -0.2540  0.2666
   18MOL    C34 8568   6.321   7.775   0.349 -0.4092  0.1110 -0.3042
   18MOL    C35 8569   6.332   0.128   0.272  0.0042  0.7359  1.2295
   18MOL    H36 8570   6.277   7.085   0.582 -0.0207  0.0470  1.8040
   18MOL    H37 8571   6.409   7.066   0.693 -0.3405 -1.6098 -0.2092
   18MOL    H38 8572   6.447   7.208   0.434  2.0718 -1.5368 -0.6665
   18MOL    H39 8573   6.155   7.309   0.571  0.8017 -0.5901  1.4440
   18MOL    H40 8574   6.217   7.252   0.420  0.7931 -0.9250  0.5769
   18MOL    H41 8575   6.206   7.534   0.534 -0.8396  0.6140 -0.6292
   18MOL    H42 8576   6.113   7.478   0.392  0.0362 -0.9894 -1.2888
   18MOL    H43 8577   6.417   7.518   0.386 -0.7813 -1.0373  1.0610
   18MOL    H44 8578   6.314   7.445   0.264 -1.0061  0.1090  0.3423
   18MOL    H45 8579   6.345   7.650   0.200 -0.5576  1.5454 -0.1747
   18MOL    H46 8580   6.175   7.661   0.235  0.9452  1.4201 -1.3748
   18MOL    H47 8581   6.264   0.014   0.440  1.3904 -1.1955  1.0971
   18MOL    H48 8582   6.422   7.754   0.385 -0.5139  1.1665  0.6203
   18MOL    H49 8583   6.417   0.126   0.203 -0.3870  0.9602  0.7400
   18MOL    H50 8584   6.239   0.162   0.227  0.7109  1.8931  0.5945
   18MOL    H51 8585   6.362   0.210   0.338  1.0908 -0.1045  1.7959
   18MOL    C52 8586   6.580   7.244   0.596  0.1691 -0.1110  0.4813
   18MOL    C53 8587   6.639   7.385   0.581  0.5450  0.0913  0.0480
   18MOL    O54 8588   6.627   7.443   0.457 -0.1167  0.1303  0.1739
   18MOL    C55 8589   6.721   7.393   0.358 -0.0590  0.0877  0.4448
   18MOL    C56 8590   6.663   7.445   0.224  0.0116 -0.1611 -0.2029
   18MOL    C57 8591   6.743   7.378   0.108 -0.0102  0.0088  1.0747
   18MOL    C58 8592   6.696   7.234   0.079  0.2754 -0.1873  0.0515
   18MOL    C59 8593   6.770   7.155   7.743  0.0856  0.4558  0.2820
   18MOL    C60 8594   6.675   7.045   7.685 -0.7999 -0.0199  0.2910
   18MOL    H61 8595   6.649   7.183   0.537 -0.8091 -1.0753  0.3266
   18MOL    H62 8596   6.595   7.217   0.701  1.0824 -0.0406  0.3767
   18MOL    H63 8597   6.746   7.377   0.603 -0.0505 -3.1303  2.1844
   18MOL    H64 8598   6.736   7.285   0.349 -0.4965  0.0914 -0.3426
   18MOL    H65 8599   6.815   7.438   0.389  0.1113  0.1210 -0.1194
   18MOL    H66 8600   6.666   7.554   0.217  2.1877 -0.1482  0.6568
   18MOL    H67 8601   6.558   7.417   0.212  0.2742 -0.3579 -2.2008
   18MOL    H68 8602   6.721   7.427   0.014  1.1104  1.1317  1.3894
   18MOL    H69 8603   6.850   7.375   0.131  0.1509 -3.6854  0.1908
   18MOL    H70 8604   6.719   7.171   0.165 -3.3387  0.6097  1.6755
   18MOL    H71 8605   6.590   7.236   0.054  0.6008  2.1421 -1.3340
   18MOL    H72 8606   6.777   7.237   7.672 -1.4839 -0.6657 -1.2369
   18MOL    H73 8607   6.869   7.124   7.774  1.2792  3.6943 -0.1645
   18MOL    H74 8608   6.718   6.993   7.600  1.4167 -0.8084  1.8185
   18MOL    H75 8609   6.650   6.964   7.754 -0.0149  1.8377  2.8660
   18MOL    H76 8610   6.580   7.086   7.653  0.0919  0.2678 -2.0703
   18MOL    C77 8611   6.576   7.482   0.680  0.5551  0.2117  0.0635
   18MOL    C78 8612   6.628   7.626   0.680 -0.0720 -0.0057  0.1156
   18MOL    O79 8613   6.768   7.626   0.717 -0.1199  0.1687 -0.3121
   18MOL    C80 8614   6.860   7.654   0.610 -0.0131  0.4660 -0.5865
   18MOL    C81 8615   7.007   7.619   0.657  0.0348 -0.4329  0.6503
   18MOL    C82 8616   7.106   7.632   0.535  0.2445  0.4647 -0.0392
   18MOL    C83 8617   7.237   7.540   0.543  0.5048  0.2412 -1.3133
   18MOL    C84 8618   7.317   7.554   0.410  0.4330 -0.4872  0.1044
   18MOL    C85 8619   7.438   7.455   0.410  1.5765 -0.4729 -0.3163
   18MOL    H86 8620   6.599   7.441   0.778  2.0237  1.0344  0.0569
   18MOL    H87 8621   6.467   7.478   0.668  0.5961  0.3252 -0.3592
   18MOL    H88 8622   6.602   7.667   0.582 -1.2566  0.6361  0.6765
   18MOL    H89 8623   6.858   7.760   0.585 -1.3941 -0.1039 -3.1081
   18MOL    H90 8624   6.829   7.607   0.516 -0.7829 -0.7784  0.2772
   18MOL    H91 8625   7.010   7.515   0.691 -0.2773 -1.1329 -1.3878
   18MOL    H92 8626   7.031   7.668   0.751  1.0789  0.3270 -0.0080
   18MOL    H93 8627   7.061   7.612   0.438 -1.0288  1.6427  0.3055
   18MOL    H94 8628   7.141   7.735   0.537  0.5296  0.3521  0.8567
   18MOL    H95 8629   7.298   7.573   0.628  0.1535 -2.5047  0.0757
   18MOL    H96 8630   7.223   7.433   0.561 -2.1837  0.5151 -1.5698
   18MOL    H97 8631   7.249   7.538   0.326  0.9170 -1.7052 -0.0692
   18MOL    H98 8632   7.355   7.656   0.405 -1.7363  0.3126 -1.0001
   18MOL    H99 8633   7.509   7.501   0.478  1.5549 -0.8453 -0.0390
   18MOL   H100 8634   7.416   7.353   0.441 -0.5697  0.3273  0.9216
   18MOL   H101 8635   7.473   7.445   0.307 -0.3112  1.0897 -1.1555
   18MOL   C102 8636   6.561   7.716   0.781 -0.4619 -0.0763  0.4994
   18MOL   C103 8637   6.598   0.093   0.771  0.3596  0.2522  1.0145
   18MOL   O104 8638   6.496   0.158   0.702 -0.3887  1.0063  0.4888
   18MOL   C105 8639   6.508   0.300   0.680 -0.7824  1.1824 -0.7450
   18MOL   C106 8640   6.426   0.348   0.565  0.7963  0.3292 -0.3805
   18MOL   C107 8641   6.406   0.496   0.545 -1.1670 -0.0636 -0.6424
   18MOL   C108 8642   6.318   0.533   0.422 -0.5492 -0.5724 -0.0631
   18MOL   C109 8643   6.326   0.683   0.385  0.0422  0.3226 -0.2766
   18MOL   C110 8644   6.231   0.720   0.274  0.2148 -0.0613 -0.0035
   18MOL   H111 8645   6.456   7.714   0.753 -0.2626 -0.7759 -0.2307
   18MOL   H112 8646   6.568   7.670   0.880  0.4243  0.6295  0.7698
   18MOL   H113 8647   6.692   0.092   0.716 -0.5494 -1.1858 -0.5670
   18MOL   H114 8648   6.612   0.333   0.669 -0.5630  0.3547 -1.1604
   18MOL   H115 8649   6.480   0.339   0.778  1.9432 -0.1978  0.6624
   18MOL   H116 8650   6.333   0.292   0.577  0.4834  0.6434 -1.2884
   18MOL   H117 8651   6.483   0.298   0.486  2.7616 -0.8212  1.6927
   18MOL   H118 8652   6.365   0.547   0.632 -0.4058 -0.4708 -0.0414
   18MOL   H119 8653   6.503   0.545   0.542  0.6570 -3.3218  1.9612
   18MOL   H120 8654   6.355   0.473   0.338 -0.0886 -3.0203  1.8151
   18MOL   H121 8655   6.215   0.503   0.440 -0.7774  0.4273  0.2953
   18MOL   H122 8656   6.305   0.739   0.476 -2.3469  0.1669 -0.7130
   18MOL   H123 8657   6.429   0.704   0.354  0.1985 -1.6449 -1.1590
   18MOL   H124 8658   6.239   0.826   0.251 -2.2908  0.5917  1.8935
   18MOL   H125 8659   6.276   0.674   0.187  1.7090  0.7740  0.3026
   18MOL   H126 8660   6.130   0.682   0.287 -0.3771  0.8961 -1.6107
   18MOL   C127 8661   6.611   0.150   0.911  0.3099  0.1234 -0.3854
   18MOL   C128 8662   6.732   0.122   1.001 -0.4544  0.4534 -0.0197
   18MOL   O129 8663   6.693   0.182   1.124 -0.3726 -0.0064  0.2461
   18MOL   C130 8664   6.641   0.088   1.217 -0.0574  0.6200 -0.3731
   18MOL   C131 8665   6.585   0.165   1.337 -1.1538  0.0317  0.7008
   18MOL   C132 8666   6.525   0.074   1.443  0.1389 -0.1269 -0.3869
   18MOL   C133 8667   6.496   0.164   1.559  0.0508 -0.6848 -0.1120
   18MOL   C134 8668   6.425   0.087   1.663  0.3117 -0.4595  0.2511
   18MOL   C135 8669   6.503   7.751   1.737 -0.5856  0.0613  0.1272
   18MOL   H136 8670   6.585   0.253   0.937 -0.5342 -0.5898  1.7595
   18MOL   H137 8671   6.526   0.111   0.966  0.7968 -0.6103 -0.1373
   18MOL   H138 8672   6.748   0.014   1.000  1.4214  0.7216 -0.7523
   18MOL   H139 8673   6.725   0.025   1.243 -1.1822  0.1492  2.2517
   18MOL   H140 8674   6.560   0.029   1.173  1.2714 -1.6503  0.1637
   18MOL   H141 8675   6.517   0.237   1.291  0.4471  0.4863 -1.0545
   18MOL   H142 8676   6.673   0.214   1.379 -0.7260 -0.3745  0.2990
   18MOL   H143 8677   6.433   0.028   1.407 -0.6350 -1.1729  2.7639
   18MOL   H144 8678   6.587   7.766   1.468 -1.6758 -1.2329  0.3909
   18MOL   H145 8679   6.586   0.217   1.591 -2.1534  3.1831  0.0196
   18MOL   H146 8680   6.422   0.238   1.530 -0.1438 -1.8985 -2.8344
   18MOL   H147 8681   6.398   0.162   1.736  0.0400 -1.4393  1.1726
   18MOL   H148 8682   6.333   0.045   1.620  0.3392  0.0861 -0.3585
   18MOL   H149 8683   6.559   7.696   1.661 -0.3513 -0.4588  0.6731
   18MOL   H150 8684   6.581   0.011   1.802  1.3100  1.4018 -2.8746
   18MOL   H151 8685   6.439   7.685   1.796  1.1202 -0.1478  1.7887
   18MOL   C152 8686   6.859   0.189   0.955  0.3663 -0.1110 -0.4326
   18MOL   C153 8687   6.984   0.156   1.037 -0.3148  0.3441  0.2531
   18MOL   O154 8688   7.007   0.017   1.009 -0.2178 -1.1378  0.3074
   18MOL   C155 8689   7.052   7.717   1.110 -0.0696  0.5740 -0.0720
   18MOL   C156 8690   7.082   7.575   1.062  0.1883 -0.1075  0.6978
   18MOL   C157 8691   6.954   7.504   1.014  0.3268  0.4608  0.3669
   18MOL   C158 8692   6.980   7.359   0.958  0.2707 -0.2886 -0.1543
   18MOL   C159 8693   6.860   7.288   0.890 -0.3439 -0.2153  0.8476
   18MOL   C160 8694   6.906   7.178   0.804 -0.0518  0.3521  0.0568
   18MOL   H161 8695   6.889   0.164   0.853  0.6002  0.4741 -0.5117
   18MOL   H162 8696   6.845   0.297   0.961  0.2590 -0.2706  3.5985
   18MOL   H163 8697   6.965   0.164   1.144  0.1876 -1.3953  0.4955
   18MOL   H164 8698   6.975   7.721   1.187 -0.2402 -1.7981 -0.0861
   18MOL   H165 8699   7.136   7.763   1.162 -1.5625  2.0838  1.0336
   18MOL   H166 8700   7.140   7.506   1.123  0.2112 -1.5733 -0.9340
   18MOL   H167 8701   7.145   7.579   0.973  0.8970 -0.9838  1.1532
   18MOL   H168 8702   6.878   7.501   1.092 -1.4923 -0.9693 -1.4082
   18MOL   H169 8703   6.909   7.572   0.941 -0.6357  0.1353  0.6534
   18MOL   H170 8704   7.059   7.365   0.883 -0.7612  0.0114 -1.2348
   18MOL   H171 8705   7.030   7.310   1.042  0.6565 -1.6410 -1.1602
   18MOL   H172 8706   6.780   7.258   0.957  0.6653  0.0973  2.2302
   18MOL   H173 8707   6.818   7.359   0.819  0.8959 -0.6496 -0.3531
   18MOL   H174 8708   6.884   7.079   0.845  1.5028 -1.0918 -2.4490
   18MOL   H175 8709   6.855   7.167   0.708  0.7264 -1.1781 -0.2080
   18MOL   H176 8710   7.012   7.185   0.779 -0.2933  0.8476 -0.8732
   18MOL   C177 8711   7.111   0.241   0.994  0.0209  0.1007  0.4941
   18MOL   C178 8712   7.128   0.372   1.074  0.5556  0.9608  0.3881
   18MOL   O179 8713   7.187   0.332   1.200  0.2462  0.3308 -0.0052
   18MOL   C180 8714   7.098   0.369   1.306  0.2028 -0.1014  0.2378
   18MOL   C181 8715   7.147   0.329   1.443 -0.1479 -0.4563 -0.7462
   18MOL   C182 8716   7.128   0.188   1.479  0.8445  0.4357 -0.3569
   18MOL   C183 8717   6.982   0.134   1.480 -0.2939 -0.1175  0.1257
   18MOL   C184 8718   6.952   0.027   1.584  0.1347  0.4811  0.5281
   18MOL   C185 8719   7.014   7.663   1.552  0.2159 -0.3017  0.4165
   18MOL   H186 8720   7.200   0.178   0.997  0.5207  0.6323 -1.8925
   18MOL   H187 8721   7.092   0.260   0.888  2.3591 -2.1858 -0.4007
   18MOL   H188 8722   7.034   0.426   1.079  0.0065  0.0272  0.2307
   18MOL   H189 8723   6.997   0.339   1.278  1.2765 -1.7207 -2.0722
   18MOL   H190 8724   7.090   0.478   1.300  0.8162 -0.0655 -0.0237
   18MOL   H191 8725   7.111   0.393   1.523 -1.6941 -0.8275 -1.1162
   18MOL   H192 8726   7.253   0.352   1.442 -0.0812 -0.5133  1.4644
   18MOL   H193 8727   7.179   0.129   1.403  0.3272 -0.1519 -0.2543
   18MOL   H194 8728   7.172   0.173   1.578  1.2201  1.6631 -0.3396
   18MOL   H195 8729   6.922   0.222   1.505 -1.7584 -1.2556  0.6475
   18MOL   H196 8730   6.954   0.099   1.381 -4.0157 -0.1120  1.0980
   18MOL   H197 8731   7.001   0.061   1.676 -1.1368  0.5668  1.1909
   18MOL   H198 8732   6.846   0.021   1.609  0.1909  1.2418  0.9683
   18MOL   H199 8733   7.020   7.601   1.641 -3.6731 -0.7279  0.4696
   18MOL   H200 8734   6.947   7.627   1.474 -0.6664  0.7779  0.6567
   18MOL   H201 8735   7.117   7.674   1.520  0.1155  0.4789  0.3417
   18MOL   C202 8736   7.237   0.461   1.015 -0.1731 -0.3576 -0.1704
   18MOL   C203 8737   7.219   0.514   0.866  0.1176  0.2684 -0.4374
   18MOL   O204 8738   7.351   0.559   0.837 -0.3910 -0.2082  0.1205
   18MOL   C205 8739   7.362   0.623   0.713 -0.4310  0.1686  0.9078
   18MOL   C206 8740   7.504   0.646   0.664  0.1930 -0.5780 -0.1925
   18MOL   C207 8741   7.565   0.510   0.662  0.2284  0.1293  0.3052
   18MOL   C208 8742   7.723   0.520   0.620 -0.3349 -0.0795 -0.2503
   18MOL   C209 8743   0.039   0.402   0.631  0.0509  0.6471 -0.0342
   18MOL   C210 8744   0.153   0.406   0.527 -0.2718  0.4317 -0.4193
   18MOL   H211 8745   7.254   0.547   1.079  2.5897 -2.2501  1.7577
   18MOL   H212 8746   7.330   0.404   1.015  0.3102  0.4205  0.9708
   18MOL   H213 8747   7.179   0.441   0.796 -1.1165 -0.7430  1.2763
   18MOL   H214 8748   7.314   0.720   0.725 -1.4598 -0.0976 -0.8166
   18MOL   H215 8749   7.307   0.569   0.635  1.4024 -1.4844  0.6958
   18MOL   H216 8750   7.558   0.707   0.736 -1.8962 -1.8197  2.5348
   18MOL   H217 8751   7.515   0.694   0.567 -2.0800  0.8103  0.1852
   18MOL   H218 8752   7.557   0.471   0.763  0.3835 -0.6947  0.0109
   18MOL   H219 8753   7.517   0.445   0.588  0.2188  0.3795  0.0898
   18MOL   H220 8754   7.716   0.548   0.514 -0.1477  0.7676 -0.0418
   18MOL   H221 8755   7.774   0.607   0.662 -0.7039  1.5371 -2.9615
   18MOL   H222 8756   0.075   0.399   0.734 -0.8619 -5.6503  0.2912
   18MOL   H223 8757   7.753   0.315   0.617  2.2489 -1.0494  0.2894
   18MOL   H224 8758   0.185   0.302   0.534  0.4707  0.6441 -0.5559
   18MOL   H225 8759   0.124   0.422   0.423 -1.4335 -1.1217 -0.3502
   18MOL   H226 8760   0.225   0.482   0.556  2.7231 -0.9762 -3.6985
   18MOL   C227 8761   7.110   0.625   0.879 -0.2424 -0.5139  0.4354
   18MOL   C228 8762   7.024   0.658   0.750 -0.6438  0.1222 -0.1352
   18MOL   O229 8763   6.917   0.570   0.743  0.3402 -0.3400 -0.5659
   18MOL   C230 8764   6.851   0.557   0.623  0.5331 -0.0953  0.2867
   18MOL   C231 8765   6.873   0.406   0.586  1.0385  0.2240  0.1645
   18MOL   C232 8766   6.808   0.373   0.451 -0.3942 -0.3248  0.8239
   18MOL   C233 8767   6.791   0.214   0.432 -0.5284 -0.3070 -0.1277
   18MOL   C234 8768   6.710   0.173   0.311  0.3696  0.4749  0.3163
   18MOL   C235 8769   6.705   0.016   0.297  0.3372 -0.6817  0.5378
   18MOL   H236 8770   7.044   0.590   0.958 -1.6096 -1.3126 -1.0294
   18MOL   H237 8771   7.158   0.715   0.918 -2.2183  1.0825 -0.7360
   18MOL   H238 8772   7.087   0.632   0.665  0.9499  0.9549  0.7601
   18MOL   H239 8773   6.885   0.626   0.547  2.1054  0.0510  1.1018
   18MOL   H240 8774   6.745   0.581   0.630  0.5943  0.1357  0.4424
   18MOL   H241 8775   6.829   0.349   0.668  1.8449 -0.0245  0.4266
   18MOL   H242 8776   6.976   0.374   0.575  0.6930 -0.8210 -0.0707
   18MOL   H243 8777   6.714   0.428   0.447  0.7503  1.6575  0.4092
   18MOL   H244 8778   6.865   0.425   0.373 -1.4641 -0.6603 -0.1963
   18MOL   H245 8779   6.887   0.162   0.431  0.1272  0.9078 -0.9526
   18MOL   H246 8780   6.742   0.167   0.518  0.8967  1.6718  1.8278
   18MOL   H247 8781   6.608   0.209   0.303  0.3841  0.8538  1.7284
   18MOL   H248 8782   6.757   0.221   0.226  1.1035 -0.1744  0.3485
   18MOL   H249 8783   6.807   7.760   0.284  1.4503  2.1733  1.2107
   18MOL   H250 8784   6.662   7.744   0.383  0.6666 -2.5979 -0.4118
   18MOL   H251 8785   6.651   7.765   0.207  0.3531  2.0190 -0.3940
   18MOL   C252 8786   6.972   0.803   0.752 -0.0079 -0.2098  0.0216
   18MOL   C253 8787   7.078   0.908   0.700  0.4470  0.3592 -0.3085
   18MOL   O254 8788   7.017   1.038   0.693 -0.0549 -0.1892  0.4371
   18MOL   C255 8789   7.018   1.112   0.818  0.3495 -0.1575 -0.2892
   18MOL   C256 8790   6.926   1.233   0.806 -0.1511 -0.3686 -0.1635
   18MOL   C257 8791   6.904   1.309   0.938  0.3671  0.8436 -0.5658
   18MOL   C258 8792   6.809   1.430   0.924  0.4594 -0.4767 -0.4931
   18MOL   C259 8793   6.839   1.535   1.032 -0.4308 -0.0637  0.2860
   18MOL   C260 8794   6.776   1.675   1.019  0.4026 -0.4820 -0.4507
   18MOL   H261 8795   6.885   0.811   0.688  0.2017 -0.4928 -0.3041
   18MOL   H262 8796   6.939   0.835   0.850  0.9115 -0.2186  0.3404
   18MOL   H263 8797   7.163   0.901   0.767  0.5354 -0.1571 -0.4761
   18MOL   H264 8798   7.121   1.128   0.852 -0.0528  0.1278  0.8194
   18MOL   H265 8799   6.965   1.047   0.887  0.8282  0.9263  1.1487
   18MOL   H266 8800   6.825   1.205   0.776 -1.1682  1.8117  1.0265
   18MOL   H267 8801   6.965   1.300   0.729  0.1449 -0.8403 -0.4204
   18MOL   H268 8802   6.874   1.245   1.022  1.4133 -2.7228 -2.7838
   18MOL   H269 8803   7.004   1.344   0.963 -0.8110  2.7786  1.7148
   18MOL   H270 8804   6.827   1.486   0.833  2.1189  2.0747  1.3381
   18MOL   H271 8805   6.705   1.401   0.911  0.7110 -1.5900 -0.1673
   18MOL   H272 8806   6.808   1.491   1.127 -1.3665  0.0432  0.0378
   18MOL   H273 8807   6.948   1.534   1.030 -0.4235  1.7622 -1.7663
   18MOL   H274 8808   6.817   1.744   1.093  3.9063 -1.2775 -1.5511
   18MOL   H275 8809   6.796   1.718   0.921  1.8957  1.7891  0.8017
   18MOL   H276 8810   6.672   1.672   1.049  0.1491 -3.5207 -1.4372
   18MOL   C277 8811   7.135   0.881   0.558 -0.1896  0.3366  0.3536
   18MOL   C278 8812   7.242   0.987   0.518  0.6873  0.3799  0.8484
   18MOL   O279 8813   7.358   0.948   0.586  0.3273  0.2876  0.3104
   18MOL   C280 8814   7.429   1.058   0.634 -0.4059 -0.2522 -0.4604
   18MOL   C281 8815   7.533   1.019   0.738 -0.2254  0.5774  0.1565
   18MOL   C282 8816   7.469   0.975   0.873  0.4362  0.3962 -0.4609
   18MOL   C283 8817   7.571   0.929   0.979  0.0999 -0.2303 -0.3422
   18MOL   C284 8818   7.515   0.882   1.111  0.2272 -0.6905  0.0425
   18MOL   C285 8819   7.459   0.740   1.101 -0.3105 -0.0178  0.3311
   18MOL   H286 8820   7.179   0.782   0.550 -1.0284 -0.0508  0.5557
   18MOL   H287 8821   7.049   0.896   0.492  0.3660  0.6200 -0.3203
   18MOL   H288 8822   7.206   1.086   0.548  0.1912  0.7459 -0.8732
   18MOL   H289 8823   7.364   1.132   0.680  0.5856  0.5767 -0.3595
   18MOL   H290 8824   7.480   1.112   0.554 -1.2356  1.6527  0.2497
   18MOL   H291 8825   7.590   1.108   0.764  0.2728 -0.3176  2.2758
   18MOL   H292 8826   7.603   0.942   0.704 -2.0073 -1.4667  1.0079
   18MOL   H293 8827   7.411   1.063   0.901 -4.0080 -1.8940 -2.0376
   18MOL   H294 8828   7.388   0.905   0.852 -0.0512  0.4720  1.1238
   18MOL   H295 8829   7.650   0.861   0.949  1.3091  0.0846  2.0231
   18MOL   H296 8830   7.619   1.026   0.992 -1.6294  1.4055 -4.9023
   18MOL   H297 8831   7.594   0.887   1.186  0.2209 -0.9937  0.0698
   18MOL   H298 8832   7.431   0.942   1.144  1.4368  0.9216  0.2190
   18MOL   H299 8833   7.433   0.711   1.203 -0.4939  0.2369  0.3575
   18MOL   H300 8834   7.362   0.744   1.053 -0.1094  0.9552 -0.0091
   18MOL   H301 8835   7.535   0.666   1.076  0.2046  0.6623 -0.1103
   18MOL   C302 8836   7.284   1.003   0.367  0.0649  0.3956 -0.2665
   18MOL   C303 8837   7.177   1.057   0.263 -0.4453  0.1737 -0.2614
   18MOL   O304 8838   7.070   0.970   0.247 -0.3466  0.1961  0.6858
   18MOL   C305 8839   6.942   1.028   0.233  0.1445 -0.0056 -0.5398
   18MOL   C306 8840   6.843   0.912   0.188  0.3309 -0.3998  0.3014
   18MOL   C307 8841   6.701   0.966   0.153  0.4943  0.7769  0.2425
   18MOL   C308 8842   6.606   0.987   0.268  0.1209  0.2084 -0.1294
   18MOL   C309 8843   6.465   1.030   0.225 -0.1449  0.2037  0.1248
   18MOL   C310 8844   6.390   1.061   0.354 -0.1371 -0.1762 -0.5770
   18MOL   H311 8845   7.370   1.068   0.354  1.3712 -0.8576  1.8877
   18MOL   H312 8846   7.326   0.906   0.339 -0.0705  0.4658 -0.7281
   18MOL   H313 8847   7.146   1.154   0.302 -0.2499  0.2975 -0.4153
   18MOL   H314 8848   6.940   1.108   0.159 -0.4580  0.7525  0.2808
   18MOL   H315 8849   6.922   1.085   0.324  0.2653  1.4438 -1.4032
   18MOL   H316 8850   6.831   0.823   0.250 -1.7891 -0.7441 -0.5311
   18MOL   H317 8851   6.879   0.865   0.096  3.6740 -0.0327  1.3897
   18MOL   H318 8852   6.698   1.062   0.100 -3.0859  0.7095  0.2041
   18MOL   H319 8853   6.672   0.890   0.080  0.5608  0.9760  0.0072
   18MOL   H320 8854   6.599   0.896   0.328  0.0985  0.2453 -0.0767
   18MOL   H321 8855   6.647   1.074   0.317 -0.6565 -0.7499  2.2798
   18MOL   H322 8856   6.456   1.116   0.159  0.5719 -0.9527 -1.4989
   18MOL   H323 8857   6.423   0.947   0.169  2.7425 -1.9455  1.0325
   18MOL   H324 8858   6.371   0.979   0.423  1.8506 -1.8947 -1.9915
   18MOL   H325 8859   6.430   1.143   0.414 -1.9279  1.5989 -1.7352
   18MOL   H326 8860   6.292   1.091   0.316  0.5379  2.4950 -0.3242
   18MOL   C327 8861   7.233   1.075   0.117  0.0500  0.5454 -0.5046
   18MOL   C328 8862   7.307   1.205   0.092  0.0148  0.4471  0.5612
   18MOL   O329 8863   7.369   1.186   7.739 -0.1542  0.7505 -0.2863
   18MOL   C330 8864   7.507   1.156   7.735  0.2630 -0.2072 -0.2701
   18MOL   C331 8865   7.535   1.071   7.616 -0.0438  0.6171  0.1050
   18MOL   C332 8866   7.493   0.928   7.635  0.1672 -0.3335 -0.4415
   18MOL   C333 8867   7.449   0.845   7.512 -0.7659 -0.4334 -0.5944
   18MOL   C334 8868   7.386   0.702   7.521 -0.2774  0.4082 -0.4432
   18MOL   C335 8869   7.496   0.594   7.556  0.6253 -0.2355 -0.2757
   18MOL   H336 8870   7.151   1.088   0.047  0.2896 -0.2813 -0.9376
   18MOL   H337 8871   7.279   0.983   0.082 -0.8320 -0.5044  1.0600
   18MOL   H338 8872   7.376   1.219   0.175 -0.6062  1.4552  0.9047
   18MOL   H339 8873   7.521   1.090   0.043  2.2422  0.1188 -0.3272
   18MOL   H340 8874   7.570   1.245   7.740  0.1531 -0.0875 -1.0355
   18MOL   H341 8875   7.637   1.079   7.578 -0.7148  0.8961 -1.6685
   18MOL   H342 8876   7.476   1.111   7.533  0.0993  2.1584  0.7118
   18MOL   H343 8877   7.563   0.878   7.702  2.6110  3.4024 -0.1051
   18MOL   H344 8878   7.399   0.924   7.689 -1.0567 -0.8617 -2.5423
   18MOL   H345 8879   7.390   0.901   7.439 -0.4195 -0.1471 -0.6575
   18MOL   H346 8880   7.545   0.831   7.462 -0.0510 -0.6195  0.7943
   18MOL   H347 8881   7.304   0.697   7.594 -2.5626 -3.0480 -3.0462
   18MOL   H348 8882   7.334   0.687   7.426 -2.9586  1.5550  0.7984
   18MOL   H349 8883   7.565   0.596   7.471  0.4454  0.5847 -0.4012
   18MOL   H350 8884   7.549   0.595   7.650 -0.0630  1.9972  0.1234
   18MOL   H351 8885   7.448   0.496   7.547 -1.1166  0.6503 -0.9863
   18MOL   C352 8886   7.223   1.331   0.087 -0.3504 -0.0387  0.0355
   18MOL   C353 8887   7.307   1.466   0.101 -0.6276  0.7784  0.2523
   18MOL   O354 8888   7.379   1.477   0.222 -0.0677 -1.0216  0.1765
   18MOL   C355 8889   7.495   1.561   0.226  0.0634  0.6032  0.2598
   18MOL   C356 8890   7.508   1.615   0.367 -0.4587 -0.4947 -0.1457
   18MOL   C357 8891   7.560   1.503   0.459  0.0061 -0.0412  0.4365
   18MOL   C358 8892   7.611   1.551   0.590 -0.0698 -0.4490  0.3949
   18MOL   C359 8893   7.631   1.436   0.691  0.2660  0.6102  0.7356
   18MOL   C360 8894   7.670   1.494   0.826  0.0042 -0.5048  0.1823
   18MOL   H361 8895   7.161   1.327   7.776 -0.5420  1.6048  0.0795
   18MOL   H362 8896   7.156   1.316   0.172 -1.0242  1.1669 -0.2712
   18MOL   H363 8897   7.381   1.448   0.023 -1.2694 -1.3547  0.0811
   18MOL   H364 8898   7.474   1.647   0.162 -2.0207  1.0496  1.4832
   18MOL   H365 8899   7.590   1.519   0.193  0.8372  0.3286  2.7469
   18MOL   H366 8900   7.424   1.670   0.409  0.1970 -0.2121  0.8030
   18MOL   H367 8901   7.589   1.688   0.364  1.4988 -2.5414  1.2671
   18MOL   H368 8902   7.482   1.427   0.465 -0.2213  0.1449 -0.0924
   18MOL   H369 8903   7.643   1.449   0.414  0.0620  1.1639 -0.9650
   18MOL   H370 8904   7.708   1.597   0.569 -0.4277  1.1343  2.0826
   18MOL   H371 8905   7.545   1.625   0.634  0.5750  0.0426  0.5449
   18MOL   H372 8906   7.538   1.380   0.694  0.1987  0.7108  0.4906
   18MOL   H373 8907   7.700   1.357   0.660 -0.1097  0.9141 -0.8863
   18MOL   H374 8908   0.001   1.497   0.832 -0.0323  0.9991  0.1798
   18MOL   H375 8909   7.634   1.596   0.830  0.0910 -0.3876 -1.6007
   18MOL   H376 8910   7.629   1.431   0.905 -1.9496  1.3258  0.6626
   18MOL   C377 8911   7.224   1.591   0.075 -0.3799 -0.2364  0.4338
   18MOL   C378 8912   7.186   1.619   7.705  0.4630  0.8682 -0.3277
   18MOL   O379 8913   7.304   1.638   7.628  0.6623  0.4214  0.2146
   18MOL   C380 8914   7.326   1.543   7.527 -0.1433  0.2554 -0.1644
   18MOL   C381 8915   7.474   1.537   7.490 -0.1024 -0.5603 -0.3052
   18MOL   C382 8916   7.566   1.468   7.589  0.0122 -0.2915 -0.9835
   18MOL   C383 8917   7.712   1.492   7.559  0.8379  0.2935  0.1607
   18MOL   C384 8918   7.778   1.425   7.440 -0.1561  0.2767 -0.3402
   18MOL   C385 8919   0.129   1.496   7.400 -0.4319  0.2048  0.3740
   18MOL   H386 8920   7.131   1.597   0.132 -0.3746 -0.3620  0.4550
   18MOL   H387 8921   7.279   1.681   0.103  0.8206 -1.0050  0.5797
   18MOL   H388 8922   7.117   1.548   7.660 -0.7849  1.0113  1.3313
   18MOL   H389 8923   7.256   1.571   7.448 -1.1319  0.4629  0.7609
   18MOL   H390 8924   7.298   1.443   7.560  0.0770  0.4123  0.5108
   18MOL   H391 8925   7.514   1.636   7.467 -0.1200 -0.5594 -0.3304
   18MOL   H392 8926   7.465   1.489   7.393 -1.2615  0.1218 -0.5346
   18MOL   H393 8927   7.540   1.499   7.690 -0.0592 -0.2360 -1.0187
   18MOL   H394 8928   7.554   1.360   7.579 -1.1554 -0.2409 -0.2809
   18MOL   H395 8929   7.720   1.600   7.549  0.9943  0.1882 -0.9902
   18MOL   H396 8930   7.766   1.462   7.649  0.5360 -0.3313  0.1362
   18MOL   H397 8931   0.000   1.316   7.437  1.0288  0.2999 -0.9171
   18MOL   H398 8932   7.712   1.432   7.353  0.0718  1.8162 -0.4072
   18MOL   H399 8933   0.104   1.601   7.390 -1.0070 -0.1394 -2.0092
   18MOL   H400 8934   0.194   1.486   7.487  0.6297  0.0866 -0.4344
   18MOL   H401 8935   0.175   1.462   7.308 -0.4230  1.3590 -0.0449
   18MOL   C402 8936   7.111   1.747   7.690  0.1076  0.2805 -0.2301
   18MOL   C403 8937   7.049   1.782   7.555 -0.6648 -0.4076 -0.1500
   18MOL   O404 8938   7.090   1.916   7.524 -0.0192 -0.3816  0.1289
   18MOL   C405 8939   7.213   1.919   7.458 -1.6075 -0.0645 -0.5921
   18MOL   C406 8940   7.246   2.069   7.459 -0.3718 -0.4561  1.1521
   18MOL   C407 8941   7.257   2.130   7.603 -0.6403  0.6330 -0.3337
   18MOL   C408 8942   7.303   2.274   7.602  0.1065  0.7594  0.6238
   18MOL   C409 8943   7.451   2.300   7.581  0.1229 -1.5134 -0.3511
   18MOL   C410 8944   7.496   2.445   7.544 -0.6436 -0.5241 -0.2413
   18MOL   H411 8945   7.173   1.832   7.716 -0.4935  0.6238  0.0758
   18MOL   H412 8946   7.041   1.757   7.772  0.4679 -1.8190  0.3582
   18MOL   H413 8947   7.067   1.716   7.470 -1.2808  0.4889 -0.9935
   18MOL   H414 8948   7.202   1.875   7.360 -0.4483  0.5249 -1.0042
   18MOL   H415 8949   7.288   1.867   7.518 -2.7878  0.1044  1.0625
   18MOL   H416 8950   7.170   2.128   7.407  0.5530 -0.6506 -0.4572
   18MOL   H417 8951   7.335   2.081   7.396 -1.1834  0.3243  0.1300
   18MOL   H418 8952   7.156   2.127   7.643 -0.9246 -0.2398 -1.0945
   18MOL   H419 8953   7.314   2.065   7.669  0.7198 -0.0296 -2.0993
   18MOL   H420 8954   7.235   2.342   7.550  0.8641 -0.0052 -1.4193
   18MOL   H421 8955   7.274   2.310   7.701 -1.9306  1.1215 -0.0692
   18MOL   H422 8956   7.517   2.258   7.658 -1.8063 -0.7718  1.7573
   18MOL   H423 8957   7.492   2.251   7.493 -1.1196 -0.8407 -1.3125
   18MOL   H424 8958   7.464   2.510   7.625 -0.9459 -0.4610 -0.4121
   18MOL   H425 8959   7.605   2.446   7.533 -0.6878  2.6744 -0.9102
   18MOL   H426 8960   7.453   2.482   7.450 -0.0025  0.6276 -0.0967
   18MOL   C427 8961   6.892   1.811   7.559  0.2105 -0.3494 -0.3322
   18MOL   C428 8962   6.804   1.690   7.562  0.2224 -0.4173  0.5288
   18MOL   O429 8963   6.823   1.610   7.684 -0.2745  0.1106 -0.3534
   18MOL   C430 8964   6.740   1.494   7.693  0.8065 -0.0856 -0.1904
   18MOL   C431 8965   6.778   1.425   0.041 -0.3617 -0.5317  0.6463
   18MOL   C432 8966   6.702   1.477   0.169  0.0958  0.4580  0.3667
   18MOL   C433 8967   6.724   1.375   0.291 -0.3144 -0.9819 -0.1909
   18MOL   C434 8968   6.701   1.431   0.428 -0.6966  0.4425 -0.1324
   18MOL   C435 8969   6.696   1.320   0.536  0.0613  0.0855  0.4979
   18MOL   H436 8970   6.871   1.881   7.640  2.4677 -0.4459  0.3793
   18MOL   H437 8971   6.867   1.862   7.466  0.8193 -0.3608 -0.5056
   18MOL   H438 8972   6.841   1.625   7.482  0.3356 -1.3521  1.3244
   18MOL   H439 8973   6.767   1.426   7.612  0.2862 -0.9780  0.3671
   18MOL   H440 8974   6.634   1.518   7.685  1.0892  0.8970 -1.1114
   18MOL   H441 8975   6.883   1.444   0.061 -0.4424  2.1249 -1.1732
   18MOL   H442 8976   6.780   1.316   0.041 -0.1641 -0.5340  1.5155
   18MOL   H443 8977   6.750   1.572   0.195 -0.8079  1.0123  0.0428
   18MOL   H444 8978   6.602   1.513   0.149 -0.2589 -0.4683  0.4614
   18MOL   H445 8979   6.662   1.286   0.280 -0.2458 -0.8411 -1.7873
   18MOL   H446 8980   6.823   1.331   0.292 -0.5318 -1.5049  2.1303
   18MOL   H447 8981   6.788   1.491   0.456  1.6631 -2.8321 -0.0545
   18MOL   H448 8982   6.612   1.493   0.428 -2.7779 -2.4105 -0.1563
   18MOL   H449 8983   6.614   1.252   0.513  1.3645 -1.8534  1.4544
   18MOL   H450 8984   6.781   1.252   0.541  1.4042  1.7785  1.2475
   18MOL   H451 8985   6.699   1.368   0.634 -1.0823  0.4846  0.3470
   18MOL   C452 8986   6.661   1.725   7.529 -0.6113  0.3071 -0.4946
   18MOL   C453 8987   6.614   1.650   7.408  0.4879 -0.0770 -0.2226
   18MOL   O454 8988   6.663   1.719   7.299  0.2049  0.2308  0.0268
   18MOL   C455 8989   6.699   1.639   7.181  0.6014 -0.0541 -0.2007
   18MOL   C456 8990   6.761   1.734   7.079 -0.0959  0.3123 -0.4351
   18MOL   C457 8991   6.880   1.817   7.130 -0.1195  0.3363 -0.0051
   18MOL   C458 8992   6.933   1.912   7.031 -0.4563  0.2218  0.2798
   18MOL   C459 8993   7.057   1.984   7.071  0.2629  0.2140 -0.7217
   18MOL   C460 8994   7.106   2.070   6.958 -1.2119 -0.3224  0.2859
   18MOL   H461 8995   6.599   1.708   7.617  1.2637  2.2107  1.2451
   18MOL   H462 8996   6.648   1.832   7.515  0.2706  0.7613  1.8069
   18MOL   H463 8997   6.645   1.546   7.418 -1.6333 -0.7668 -0.6342
   18MOL   H464 8998   6.616   1.577   7.147 -1.0880  1.4076  1.1346
   18MOL   H465 8999   6.789   1.581   7.202 -1.6575 -3.2231  1.1128
   18MOL   H466 9000   6.679   1.796   7.040  0.3427  1.8615  1.0361
   18MOL   H467 9001   6.791   1.686   6.986  1.0926 -0.0911  0.1562
   18MOL   H468 9002   6.866   1.866   7.226  1.6113  0.0587  0.3997
   18MOL   H469 9003   6.965   1.758   7.162 -1.2869 -0.3572  1.8427
   18MOL   H470 9004   6.949   1.849   6.944  0.5564  0.0923  0.5469
   18MOL   H471 9005   6.859   1.982   6.992  0.5333  0.5817 -0.9812
   18MOL   H472 9006   7.040   2.044   7.161  1.1572  0.6630 -0.8458
   18MOL   H473 9007   7.130   1.910   7.103  0.8111  0.1204 -2.1641
   18MOL   H474 9008   7.163   1.996   6.903  1.4303  0.9573  1.2264
   18MOL   H475 9009   7.035   2.127   6.898  0.0512  0.8774 -0.0950
   18MOL   H476 9010   7.190   2.127   6.998 -1.7649 -0.6841  2.0378
   18MOL   C477 9011   6.464   1.658   7.402 -0.5781 -0.4427 -0.3133
   18MOL   C478 9012   6.383   1.593   7.511  0.5865  0.2464 -0.6009
   18MOL   O479 9013   6.423   1.455   7.524  0.0291  0.4375 -0.1846
   18MOL   C480 9014   6.386   1.387   7.639  0.8124  0.0036  0.4680
   18MOL   C481 9015   6.235   1.362   7.660  0.0133 -0.0902  0.1558
   18MOL   C482 9016   6.205   1.279   0.010  0.0151  0.0366  0.3855
   18MOL   C483 9017   6.056   1.244   0.029  0.0293 -0.0249  0.6032
   18MOL   C484 9018   6.045   1.136   0.130 -0.6167 -0.4680 -0.0430
   18MOL   C485 9019   5.907   1.128   0.193  0.1796 -0.1022 -0.0172
   18MOL   H486 9020   6.433   1.762   7.394  1.9417  0.3517 -0.3552
   18MOL   H487 9021   6.425   1.608   7.314  0.9345 -1.3013 -0.5177
   18MOL   H488 9022   6.395   1.643   7.606  0.0235  0.6433 -0.7364
   18MOL   H489 9023   6.410   1.444   7.729  0.3701  0.7446  0.1257
   18MOL   H490 9024   6.445   1.296   7.644 -0.9196 -1.1357  0.1525
   18MOL   H491 9025   6.197   1.312   7.571  0.5588 -0.2409  0.0054
   18MOL   H492 9026   6.189   1.459   7.679  1.1910 -0.0001  2.6965
   18MOL   H493 9027   6.259   1.185   7.774  0.6232 -0.4035  4.9453
   18MOL   H494 9028   6.244   1.319   0.103  0.4714  0.2365  0.1082
   18MOL   H495 9029   6.006   1.336   0.061  0.2066  0.9431 -1.8296
   18MOL   H496 9030   6.013   1.210   7.714 -0.0003  0.6853  0.3539
   18MOL   H497 9031   6.070   1.044   0.076  1.5984  0.5437 -0.7828
   18MOL   H498 9032   6.118   1.144   0.210 -0.9407 -2.1433  0.4498
   18MOL   H499 9033   5.899   1.200   0.274 -1.1027 -1.3445  0.9617
   18MOL   H500 9034   5.837   1.149   0.112  0.7792 -0.2207 -0.5759
   18MOL   H501 9035   5.885   1.030   0.233 -2.4891  0.9919  1.2580
   18MOL   H502 9036   6.278   1.603   7.484  0.9566  1.7071 -1.5410
   19MOL     C1 9037   2.636   2.421   6.587  0.0892 -0.1570  0.1013
   19MOL     C2 9038   2.697   2.339   6.701  0.0459  0.0941 -0.0604
   19MOL     O3 9039   2.680   2.197   6.669  0.2238 -0.3131  0.0024
   19MOL     C4 9040   2.789   2.150   6.588 -0.0770  0.1495  0.5008
   19MOL     C5 9041   2.769   2.011   6.531 -0.0690  0.0646  0.5521
   19MOL     C6 9042   2.767   1.897   6.630  0.0451  0.1077  1.0071
   19MOL     C7 9043   2.780   1.754   6.571  0.5081 -0.1651  0.2580
   19MOL     C8 9044   2.737   1.643   6.673 -0.1590  0.2228  0.7219
   19MOL     C9 9045   2.751   1.505   6.624  0.3155 -0.4134  0.1534
   19MOL    H10 9046   2.654   2.526   6.611 -1.2956  0.2880 -0.7215
   19MOL    H11 9047   2.682   2.410   6.489  0.2205  1.9250 -0.0871
   19MOL    H12 9048   2.803   2.359   6.712 -0.4448  3.7084 -1.3660
   19MOL    H13 9049   2.885   2.160   6.639  1.7043  0.5394 -2.8183
   19MOL    H14 9050   2.796   2.213   6.500 -0.6363 -1.1786 -0.5013
   19MOL    H15 9051   2.854   1.995   6.465  0.4689 -1.1106  1.4989
   19MOL    H16 9052   2.697   2.016   6.449  0.7149  0.6310 -0.1178
   19MOL    H17 9053   2.843   1.910   6.707 -0.2922 -1.9381  1.7056
   19MOL    H18 9054   2.678   1.896   6.693 -1.1050  1.4900 -0.5447
   19MOL    H19 9055   2.720   1.742   6.481 -1.6786  1.5848  1.4204
   19MOL    H20 9056   2.882   1.748   6.534 -0.2840 -0.0362 -1.9856
   19MOL    H21 9057   2.630   1.654   6.689 -0.2378 -0.0646  0.4054
   19MOL    H22 9058   2.798   1.651   6.763 -0.4789  0.9911  0.8744
   19MOL    H23 9059   2.719   1.431   6.698  1.3288 -1.6488 -0.6260
   19MOL    H24 9060   2.693   1.488   6.534 -0.5940 -1.0145  0.8429
   19MOL    H25 9061   2.858   1.489   6.606  0.3948  0.2596 -0.0068
   19MOL    H26 9062   2.529   2.403   6.575 -0.4441  1.5020  2.0689
   19MOL    C27 9063   2.642   2.367   6.843  0.0554  0.5446  0.2025
   19MOL    C28 9064   2.716   2.311   6.961  0.7074  0.7986 -0.6260
   19MOL    O29 9065   2.847   2.361   6.964  0.3770  0.1682  0.3771
   19MOL    C30 9066   2.942   2.258   6.969  0.6158 -0.2956 -0.0591
   19MOL    C31 9067   3.085   2.300   6.925  0.1309 -0.8352  0.3343
   19MOL    C32 9068   3.080   2.353   6.783 -0.5295  0.2073 -0.2791
   19MOL    C33 9069   3.223   2.371   6.735  0.6485 -0.3417  1.1588
   19MOL    C34 9070   3.237   2.433   6.596  0.4693 -0.3652 -0.6108
   19MOL    C35 9071   3.192   2.349   6.477  0.1681  0.5013  0.2320
   19MOL    H36 9072   2.636   2.475   6.858 -0.8964  0.5868 -0.4567
   19MOL    H37 9073   2.542   2.327   6.857  0.9232 -1.3060  1.2321
   19MOL    H38 9074   2.711   2.202   6.971  1.1926  0.8489  0.2079
   19MOL    H39 9075   2.916   2.179   6.899 -1.7104 -2.1334  2.7717
   19MOL    H40 9076   2.929   2.216   7.068  1.3388 -0.3179  0.0306
   19MOL    H41 9077   3.149   2.212   6.933  0.1676 -0.9000 -0.6768
   19MOL    H42 9078   3.135   2.373   6.989  0.0971 -1.9605  1.6732
   19MOL    H43 9079   3.038   2.276   6.719  1.8078 -1.4783  0.1721
   19MOL    H44 9080   3.026   2.448   6.778 -2.4425 -0.8318 -0.0292
   19MOL    H45 9081   3.273   2.437   6.806  0.3006  0.2648  0.8502
   19MOL    H46 9082   3.273   2.274   6.728 -1.1419 -1.2235  0.1583
   19MOL    H47 9083   3.193   2.532   6.607 -0.5449 -0.8831  0.0522
   19MOL    H48 9084   3.345   2.447   6.585  0.4175 -0.5534 -1.3739
   19MOL    H49 9085   3.087   2.372   6.459  0.3706  1.0022 -0.3234
   19MOL    H50 9086   3.234   2.391   6.386  0.1582 -0.3152 -0.1510
   19MOL    H51 9087   3.218   2.244   6.463 -1.2142  0.2987 -0.8652
   19MOL    C52 9088   2.641   2.350   7.095  0.1165  0.4102  0.7741
   19MOL    C53 9089   2.626   2.504   7.115  0.3075  0.1190  0.1875
   19MOL    O54 9090   2.568   2.521   7.248  0.0979 -0.4864  0.7867
   19MOL    C55 9091   2.428   2.536   7.249 -0.6363 -0.4000 -0.8356
   19MOL    C56 9092   2.363   2.540   7.392  0.1555  0.1068 -0.7960
   19MOL    C57 9093   2.404   2.671   7.464  0.4551  0.3753  0.4719
   19MOL    C58 9094   2.357   2.673   7.613  0.0330 -0.5903 -0.4933
   19MOL    C59 9095   2.214   2.728   7.627 -0.4875  0.0070  0.4159
   19MOL    C60 9096   2.210   2.878   7.629 -0.9281 -0.5671 -0.3182
   19MOL    H61 9097   2.695   2.306   7.179 -0.9785 -0.8463  0.8383
   19MOL    H62 9098   2.540   2.308   7.095  0.0216  0.6389  1.2724
   19MOL    H63 9099   2.555   2.536   7.039 -0.0276 -2.6201 -0.6897
   19MOL    H64 9100   2.379   2.460   7.188 -1.7003 -1.0702  0.8359
   19MOL    H65 9101   2.404   2.630   7.198 -1.2934  0.8000  1.6235
   19MOL    H66 9102   2.376   2.444   7.442  1.0482 -0.0429 -1.3034
   19MOL    H67 9103   2.256   2.545   7.375  0.1583 -0.3373 -0.9454
   19MOL    H68 9104   2.511   2.687   7.459  0.6477 -0.6247  1.3966
   19MOL    H69 9105   2.356   2.753   7.410 -0.3200 -0.7582 -0.5971
   19MOL    H70 9106   2.356   2.580   7.671 -3.3384  0.3364  1.0621
   19MOL    H71 9107   2.425   2.727   7.678  1.1737 -1.8002 -0.6447
   19MOL    H72 9108   2.150   2.688   7.549 -1.3935 -0.5416  1.4365
   19MOL    H73 9109   2.174   2.695   7.723  1.4791  0.0438  1.2805
   19MOL    H74 9110   2.126   2.919   7.686 -1.6775 -1.5644 -0.6898
   19MOL    H75 9111   2.299   2.904   7.687 -1.3841  2.7132 -0.9624
   19MOL    H76 9112   2.220   2.932   7.535  0.0344 -0.0124  0.0971
   19MOL    C77 9113   2.749   2.594   7.100 -0.2046  0.1601  0.4673
   19MOL    C78 9114   2.717   2.745   7.108  0.3228 -0.0253  0.2281
   19MOL    O79 9115   2.627   2.774   7.000 -0.6617  0.3326 -0.2252
   19MOL    C80 9116   2.546   2.886   7.015 -0.3589  0.3389  0.2515
   19MOL    C81 9117   2.452   2.888   6.891 -0.4747  0.4108  0.1799
   19MOL    C82 9118   2.346   3.001   6.893  0.3012  0.1891 -0.1767
   19MOL    C83 9119   2.249   3.001   6.772 -0.6362 -0.5019 -0.6916
   19MOL    C84 9120   2.289   3.091   6.655  0.1686  0.8068 -0.3748
   19MOL    C85 9121   2.181   3.064   6.549 -0.4935  0.5655  0.3732
   19MOL    H86 9122   2.795   2.571   7.004 -0.7017 -1.6700  0.6323
   19MOL    H87 9123   2.816   2.555   7.176 -0.8300  0.0271  0.9578
   19MOL    H88 9124   2.683   2.766   7.210  2.0470  0.9016  0.6449
   19MOL    H89 9125   2.608   2.975   7.023  0.3248  0.0380 -1.4667
   19MOL    H90 9126   2.488   2.873   7.106 -0.4737 -0.9584  0.0071
   19MOL    H91 9127   2.406   2.791   6.876  1.9661 -1.1426  2.3785
   19MOL    H92 9128   2.501   2.897   6.794 -0.0611 -0.0047  0.3475
   19MOL    H93 9129   2.283   2.990   6.982  0.6263  0.0964  0.0399
   19MOL    H94 9130   2.399   3.095   6.905 -0.8536  0.9927 -1.2468
   19MOL    H95 9131   2.238   2.896   6.743 -0.1145 -0.8948  0.4906
   19MOL    H96 9132   2.155   3.045   6.804 -0.5415  0.2519 -1.4407
   19MOL    H97 9133   2.275   3.195   6.683  0.4706  0.5919  0.5731
   19MOL    H98 9134   2.386   3.058   6.619  0.3348  0.5409  0.3188
   19MOL    H99 9135   2.194   3.097   6.446  1.9555  1.6246  0.9763
   19MOL   H100 9136   2.139   2.964   6.552  0.6413  0.0486 -0.7577
   19MOL   H101 9137   2.097   3.129   6.575 -0.3674  1.8249 -2.2237
   19MOL   C102 9138   2.847   2.830   7.095 -0.1522 -0.2304 -0.2699
   19MOL   C103 9139   2.931   2.828   7.227  0.3967 -0.0232 -0.1795
   19MOL   O104 9140   3.073   2.808   7.202  0.4453 -0.3111 -0.3553
   19MOL   C105 9141   3.099   2.674   7.195 -0.7472  0.5071 -0.2077
   19MOL   C106 9142   3.242   2.653   7.165  0.4041 -0.4160 -0.0072
   19MOL   C107 9143   3.326   2.698   7.290 -0.8808 -0.2320  0.0371
   19MOL   C108 9144   3.474   2.650   7.279  0.1647 -0.6586  0.8595
   19MOL   C109 9145   3.541   2.638   7.419  0.5829  0.5626  0.4300
   19MOL   C110 9146   3.686   2.587   7.414 -0.2946  0.2587  0.3934
   19MOL   H111 9147   2.905   2.795   7.009 -0.4672 -1.8397  0.1529
   19MOL   H112 9148   2.813   2.931   7.073 -0.9072  0.1679  2.5748
   19MOL   H113 9149   2.896   2.759   7.304 -1.4782 -0.8615 -1.7456
   19MOL   H114 9150   3.039   2.622   7.120  0.8348 -1.5720 -0.0824
   19MOL   H115 9151   3.081   2.625   7.291  0.5661 -0.7646 -0.5865
   19MOL   H116 9152   3.266   2.715   7.078  0.4896  1.5727  1.3935
   19MOL   H117 9153   3.260   2.548   7.145  2.0352 -0.7572  2.9401
   19MOL   H118 9154   3.314   2.806   7.297 -2.6004 -0.3184 -1.1926
   19MOL   H119 9155   3.271   2.665   7.378 -4.1081  2.4323 -0.8760
   19MOL   H120 9156   3.461   2.547   7.246 -0.8566 -0.0049 -0.8326
   19MOL   H121 9157   3.538   2.716   7.221 -1.1826  1.1558  1.3846
   19MOL   H122 9158   3.549   2.735   7.468  0.0132  1.1724 -0.6933
   19MOL   H123 9159   3.481   2.572   7.482  2.7752 -1.8266  0.1207
   19MOL   H124 9160   3.759   2.651   7.365  0.5817 -0.7093  0.4080
   19MOL   H125 9161   3.718   2.573   7.517 -1.0012  0.9386  0.7017
   19MOL   H126 9162   3.689   2.497   7.352  1.5349 -1.2347  2.5827
   19MOL   C127 9163   2.930   2.972   7.288  0.7074  0.3832 -0.1874
   19MOL   C128 9164   2.962   2.968   7.438 -0.0652  0.4760  0.4121
   19MOL   O129 9165   2.854   2.894   7.491 -0.7739 -0.1831 -0.2075
   19MOL   C130 9166   2.894   2.781   7.585 -0.2163  0.8697  0.5821
   19MOL   C131 9167   2.783   2.701   7.649 -0.2473 -0.1671  0.4337
   19MOL   C132 9168   2.822   2.641   0.013 -0.4942 -0.0023  0.9232
   19MOL   C133 9169   2.705   2.577   0.077  0.0394  0.2009 -0.1915
   19MOL   C134 9170   2.737   2.535   0.221 -0.3113  1.1770  0.3437
   19MOL   C135 9171   2.847   2.434   0.247  0.2173 -0.0261 -0.0722
   19MOL   H136 9172   2.989   3.041   7.229  0.8771 -0.0365 -0.5092
   19MOL   H137 9173   2.832   3.020   7.285  0.4603  0.0118  1.3025
   19MOL   H138 9174   3.064   2.932   7.455  0.6046  1.3812 -1.5966
   19MOL   H139 9175   2.939   2.831   7.670  1.3745  0.5747 -0.0692
   19MOL   H140 9176   2.955   2.705   7.537 -0.4740  1.3124 -0.4539
   19MOL   H141 9177   2.746   2.634   7.571 -1.7619 -0.4612  1.3818
   19MOL   H142 9178   2.699   2.770   7.656  1.7863  2.3162  1.0514
   19MOL   H143 9179   2.906   2.573   7.776  0.6489  1.6633 -0.2972
   19MOL   H144 9180   2.876   2.715   0.072  0.6383  1.2969 -1.6983
   19MOL   H145 9181   2.622   2.647   0.078  0.6829  0.9722  0.3449
   19MOL   H146 9182   2.671   2.498   0.010  0.6612  0.4170 -0.7658
   19MOL   H147 9183   2.763   2.627   0.274 -0.1560  2.0215 -1.1651
   19MOL   H148 9184   2.642   2.494   0.255  0.3400 -0.8963 -0.2745
   19MOL   H149 9185   2.851   2.363   0.164  1.3823  2.0021 -1.7739
   19MOL   H150 9186   2.945   2.482   0.253 -0.6614  1.6812  0.9988
   19MOL   H151 9187   2.816   2.386   0.340 -0.4832  0.8192  0.1415
   19MOL   C152 9188   2.945   3.105   7.497  0.4757 -0.1548  0.1005
   19MOL   C153 9189   3.045   3.219   7.457 -0.2057 -0.3049  0.6191
   19MOL   O154 9190   3.007   3.337   7.511  0.1495  0.0574 -0.6295
   19MOL   C155 9191   2.905   3.397   7.428 -0.0397  0.1153 -0.3350
   19MOL   C156 9192   2.873   3.545   7.474 -0.0166 -0.2831  0.1928
   19MOL   C157 9193   2.759   3.618   7.390 -1.1710 -0.3117  0.5824
   19MOL   C158 9194   2.709   3.735   7.469  0.6728 -0.0927 -0.4249
   19MOL   C159 9195   2.585   3.797   7.404  0.1302 -0.0258 -0.1958
   19MOL   C160 9196   2.531   3.919   7.487  0.1028  0.4987 -0.1690
   19MOL   H161 9197   2.844   3.140   7.477  0.4902  0.5557  1.2109
   19MOL   H162 9198   2.963   3.088   7.603 -0.0516 -3.8893 -0.3343
   19MOL   H163 9199   3.042   3.226   7.348 -0.9620 -0.6086  0.6178
   19MOL   H164 9200   2.811   3.347   7.451 -0.3317  1.2770  1.0311
   19MOL   H165 9201   2.911   3.401   7.319  0.8563 -1.6332 -0.3774
   19MOL   H166 9202   2.961   3.602   7.445 -0.0634 -0.8184 -1.0152
   19MOL   H167 9203   2.852   3.553   7.581  1.0128  0.1674  0.3612
   19MOL   H168 9204   2.793   3.647   7.290  1.9806  0.3602  1.7985
   19MOL   H169 9205   2.679   3.553   7.356 -1.6606  1.3536 -1.5214
   19MOL   H170 9206   2.690   3.700   7.571  1.7384 -1.0535 -0.5479
   19MOL   H171 9207   2.791   3.808   7.469 -0.3785  1.1078 -1.3623
   19MOL   H172 9208   2.613   3.833   7.304  1.6218  1.3324  0.6748
   19MOL   H173 9209   2.510   3.722   7.385  0.0365  0.0194 -0.0053
   19MOL   H174 9210   2.513   3.903   7.593  0.0683 -0.6626 -0.3416
   19MOL   H175 9211   2.600   4.004   7.487 -1.8103  2.0992 -1.3308
   19MOL   H176 9212   2.438   3.963   7.450  1.1619  1.7809 -1.3505
   19MOL   C177 9213   3.189   3.191   7.511  0.7177  0.1172  0.8258
   19MOL   C178 9214   3.296   3.273   7.431 -0.0780  1.0305  0.0550
   19MOL   O179 9215   3.274   3.249   7.297 -0.8635 -0.6805 -0.1080
   19MOL   C180 9216   3.329   3.130   7.241  0.6851 -0.4022  1.2526
   19MOL   C181 9217   3.316   3.133   7.086  0.8954  0.6529  0.6425
   19MOL   C182 9218   3.249   3.009   7.016 -0.0753  0.2653 -0.5063
   19MOL   C183 9219   3.264   3.005   6.862  0.0072 -0.0846 -0.1622
   19MOL   C184 9220   3.213   2.884   6.788  0.5545  0.5991  0.4721
   19MOL   C185 9221   3.320   2.763   6.772 -0.9315  0.4485 -0.0425
   19MOL   H186 9222   3.184   3.209   7.618  0.1083 -1.0061  0.9904
   19MOL   H187 9223   3.207   3.085   7.495 -0.6501  0.1286 -1.0246
   19MOL   H188 9224   3.395   3.241   7.462 -0.0502  1.1659  0.1065
   19MOL   H189 9225   3.272   3.042   7.270  1.1724 -1.2675 -0.3602
   19MOL   H190 9226   3.425   3.091   7.276  1.7339 -1.5470 -2.6260
   19MOL   H191 9227   3.419   3.143   7.053  0.9082  1.2614  0.8632
   19MOL   H192 9228   3.280   3.228   7.048 -0.0898 -0.9079 -2.4861
   19MOL   H193 9229   3.289   2.916   7.058 -1.0770 -0.1983 -0.5586
   19MOL   H194 9230   3.145   2.999   7.046 -0.1787  0.7062 -0.7245
   19MOL   H195 9231   3.216   3.096   6.825  1.3794 -0.2014 -2.2832
   19MOL   H196 9232   3.372   3.011   6.849 -0.1355 -1.3066 -2.0612
   19MOL   H197 9233   3.119   2.864   6.839  0.6655  0.2054  0.5257
   19MOL   H198 9234   3.185   2.910   6.686  2.7698 -0.2586 -0.3908
   19MOL   H199 9235   3.400   2.793   6.704 -0.6828  1.9550  0.9021
   19MOL   H200 9236   3.368   2.747   6.868  0.1388  0.3011 -0.5925
   19MOL   H201 9237   3.264   2.670   6.755 -1.8470  0.8148  0.8871
   19MOL   C202 9238   3.281   3.431   7.456 -0.1166  0.0999  0.2703
   19MOL   C203 9239   3.401   3.509   7.391  0.0387 -0.4470 -0.4030
   19MOL   O204 9240   3.426   3.631   7.468  0.2592  0.0475 -0.0730
   19MOL   C205 9241   3.508   3.606   7.581 -0.4527  0.9528  0.3350
   19MOL   C206 9242   3.515   3.737   7.661  0.2092  0.1849 -0.0831
   19MOL   C207 9243   3.650   3.743   7.742  0.0031  0.0503  0.1007
   19MOL   C208 9244   3.648   3.837   0.089 -0.4982  0.5350  0.0824
   19MOL   C209 9245   3.778   3.848   0.171  0.4633  0.0092 -0.1680
   19MOL   C210 9246   3.750   3.931   0.304 -0.2175 -0.2697  0.2889
   19MOL   H211 9247   3.189   3.469   7.413  0.2419 -0.0971 -0.6902
   19MOL   H212 9248   3.268   3.438   7.564 -1.4685  0.3275  0.0951
   19MOL   H213 9249   3.483   3.437   7.401 -0.4263 -0.9309 -0.0498
   19MOL   H214 9250   3.604   3.563   7.554 -0.9853 -0.0574  0.0282
   19MOL   H215 9251   3.472   3.529   7.650  2.2660 -0.5431  0.1802
   19MOL   H216 9252   3.432   3.753   7.730 -0.3167 -1.1137 -0.3972
   19MOL   H217 9253   3.516   3.820   7.590 -1.4522 -0.2219 -0.6117
   19MOL   H218 9254   3.657   3.642   0.004 -3.4343 -0.6548 -0.9080
   19MOL   H219 9255   3.733   3.771   7.677 -1.3170  1.1697 -1.1362
   19MOL   H220 9256   3.625   3.940   0.066 -3.1522  0.4918  2.2555
   19MOL   H221 9257   3.562   3.805   0.148  0.2383 -1.5680  0.0815
   19MOL   H222 9258   3.817   3.750   0.199  1.5437  0.5444  0.2377
   19MOL   H223 9259   3.855   3.896   0.111  0.2776  0.2372 -0.2229
   19MOL   H224 9260   3.653   3.897   0.341 -0.3186 -0.4920 -0.1752
   19MOL   H225 9261   3.821   3.911   0.383 -1.8380 -3.2294  1.0894
   19MOL   H226 9262   3.748   4.037   0.280 -0.9271 -0.4356 -0.4364
   19MOL   C227 9263   3.368   3.553   7.254 -0.1289 -0.4343 -0.8429
   19MOL   C228 9264   3.481   3.550   7.155 -0.1142 -0.6026  0.5550
   19MOL   O229 9265   3.428   3.612   7.037  0.3271  0.1168 -0.1458
   19MOL   C230 9266   3.330   3.532   6.965 -0.2988 -0.0303  0.3538
   19MOL   C231 9267   3.406   3.443   6.865 -0.1345 -0.4522 -0.0706
   19MOL   C232 9268   3.309   3.363   6.775 -0.3095 -0.4766 -0.4420
   19MOL   C233 9269   3.297   3.413   6.622 -0.6431 -0.5657 -0.3114
   19MOL   C234 9270   3.198   3.331   6.540  0.1815  0.1839  0.1562
   19MOL   C235 9271   3.252   3.195   6.507  0.2657 -0.1901  0.3794
   19MOL   H236 9272   3.281   3.493   7.230  0.3129 -0.5749 -2.1343
   19MOL   H237 9273   3.335   3.657   7.261  2.0913  0.2858 -0.6687
   19MOL   H238 9274   3.510   3.447   7.135 -1.8254 -1.4946  2.5536
   19MOL   H239 9275   3.259   3.595   6.911 -0.9261 -1.0643 -0.0543
   19MOL   H240 9276   3.274   3.474   7.039  0.3935 -2.0186 -0.6398
   19MOL   H241 9277   3.474   3.370   6.909 -2.3429 -1.3587  1.9279
   19MOL   H242 9278   3.465   3.509   6.801 -0.2700 -1.1735 -0.9412
   19MOL   H243 9279   3.354   3.264   6.781  1.9043  0.4449 -1.5589
   19MOL   H244 9280   3.214   3.353   6.828  0.4169 -0.0712  0.9720
   19MOL   H245 9281   3.261   3.516   6.614 -2.8198 -1.3163 -0.6982
   19MOL   H246 9282   3.401   3.421   6.592 -0.1728 -0.7909  1.2180
   19MOL   H247 9283   3.103   3.320   6.593  0.6280 -0.5711  0.8126
   19MOL   H248 9284   3.183   3.380   6.444 -0.3941 -0.0813  0.1074
   19MOL   H249 9285   3.181   3.129   6.456 -1.7071 -0.7465  3.7145
   19MOL   H250 9286   3.347   3.203   6.455 -0.2683  0.4268 -0.5177
   19MOL   H251 9287   3.259   3.138   6.599  0.4596 -0.1243  0.4033
   19MOL   C252 9288   3.589   3.649   7.202 -0.1023  0.9020 -0.1154
   19MOL   C253 9289   3.703   3.660   7.094  0.3232 -0.8064 -0.5319
   19MOL   O254 9290   3.775   3.542   7.115  0.2855  0.3512  0.9085
   19MOL   C255 9291   3.765   3.447   7.007  0.1858 -0.9310 -0.1451
   19MOL   C256 9292   3.833   3.317   7.054 -0.1544  0.7229  0.6143
   19MOL   C257 9293   3.752   3.219   7.146 -0.0290 -0.0769  0.4820
   19MOL   C258 9294   3.784   3.069   7.137  0.6249  0.2594  0.0370
   19MOL   C259 9295   3.701   2.967   7.220  0.9713  0.2286 -0.2028
   19MOL   C260 9296   3.692   3.012   7.365 -0.1336  0.8504 -0.4056
   19MOL   H261 9297   3.557   3.753   7.210  1.2371  1.2851  0.3892
   19MOL   H262 9298   3.625   3.619   7.300 -0.1844  3.3652  0.6910
   19MOL   H263 9299   3.657   3.664   6.995 -0.5082  0.4983 -0.1087
   19MOL   H264 9300   3.815   3.485   6.918  1.4679  0.2105  1.0428
   19MOL   H265 9301   3.661   3.420   6.989  0.7734 -3.2510 -0.3088
   19MOL   H266 9302   3.923   3.355   7.101  0.5227 -0.6236  0.4132
   19MOL   H267 9303   3.859   3.255   6.968 -1.3360  1.5236 -0.3421
   19MOL   H268 9304   3.755   3.250   7.251  1.8743  0.7874  0.2041
   19MOL   H269 9305   3.646   3.220   7.124  0.0007 -3.4932 -0.1047
   19MOL   H270 9306   3.781   3.032   7.035  1.7626 -2.4461  0.9380
   19MOL   H271 9307   3.890   3.047   7.154  1.1819  0.3367 -3.1278
   19MOL   H272 9308   3.599   2.961   7.182  0.2968 -2.0986  1.8682
   19MOL   H273 9309   3.746   2.869   7.208  2.2004  0.9697 -2.0393
   19MOL   H274 9310   3.793   3.030   7.404  0.1308  1.9857 -1.6052
   19MOL   H275 9311   3.623   3.094   7.383 -0.5709  0.4018 -0.0176
   19MOL   H276 9312   3.657   2.922   7.417 -1.1696  0.3074 -2.0367
   19MOL   C277 9313   3.812   3.763   7.118  0.1849 -0.5667 -0.0928
   19MOL   C278 9314   3.906   3.789   6.999  0.3939 -0.1921  0.1870
   19MOL   O279 9315   3.939   3.921   6.989 -0.5361 -0.8214 -0.1426
   19MOL   C280 9316   3.838   4.003   6.928  0.6290 -0.2017 -0.0148
   19MOL   C281 9317   3.877   4.152   6.945  0.1865  0.1171 -0.5578
   19MOL   C282 9318   3.993   4.185   6.862 -0.1667 -0.9466 -0.1468
   19MOL   C283 9319   4.033   4.330   6.884 -0.8953  0.4676  0.1305
   19MOL   C284 9320   4.186   4.356   6.850  0.7620  0.6743 -0.3403
   19MOL   C285 9321   4.231   4.493   6.882  0.3234 -0.3954  0.4107
   19MOL   H286 9322   3.766   3.856   7.153  0.0367 -1.0244  0.9456
   19MOL   H287 9323   3.874   3.748   7.206  1.3177  0.9502 -0.6176
   19MOL   H288 9324   3.847   3.755   6.913 -2.0532  1.6364  1.0908
   19MOL   H289 9325   3.744   3.996   6.984  0.8825 -0.9084  0.3220
   19MOL   H290 9326   3.823   3.978   6.823 -2.9679 -0.2396  0.4168
   19MOL   H291 9327   3.907   4.160   7.049 -0.2334  2.6897 -0.5914
   19MOL   H292 9328   3.785   4.209   6.927 -1.5754 -2.3876  0.2924
   19MOL   H293 9329   4.072   4.116   6.889 -0.9873 -1.3618  1.2358
   19MOL   H294 9330   3.971   4.165   6.757 -1.0957 -0.9325  0.0440
   19MOL   H295 9331   3.985   4.398   6.814 -2.4949  0.2803  1.0338
   19MOL   H296 9332   4.007   4.355   6.987 -2.5840  1.9930 -0.6385
   19MOL   H297 9333   4.250   4.284   6.901  0.2358  0.6960  0.3548
   19MOL   H298 9334   4.204   4.340   6.743 -0.3082 -0.4044 -0.3641
   19MOL   H299 9335   4.205   4.526   6.982  1.7211 -0.7610  0.9045
   19MOL   H300 9336   4.338   4.502   6.867 -0.1551  2.4912 -1.6455
   19MOL   H301 9337   4.188   4.548   6.798 -0.0178 -0.2725  0.6636
   19MOL   C302 9338   4.031   3.708   7.006 -0.0294 -0.0904  1.2049
   19MOL   C303 9339   4.139   3.730   6.894 -0.4526  0.7249  0.2907
   19MOL   O304 9340   4.063   3.699   6.776 -0.6226 -0.2101  1.2710
   19MOL   C305 9341   4.063   3.813   6.686 -0.0352  0.0754 -0.9253
   19MOL   C306 9342   3.967   3.773   6.578 -0.1244 -0.4727 -0.0091
   19MOL   C307 9343   3.820   3.758   6.612 -0.4524 -0.5504  0.4517
   19MOL   C308 9344   3.730   3.730   6.484  0.6465 -0.1306  0.5181
   19MOL   C309 9345   3.574   3.725   6.506 -0.7699  0.1209  0.0216
   19MOL   C310 9346   3.506   3.867   6.506 -0.2373 -0.0133 -0.4287
   19MOL   H311 9347   4.093   3.728   7.093 -0.1020  1.4190  0.9194
   19MOL   H312 9348   4.002   3.603   7.007 -3.0782  0.6355 -1.5756
   19MOL   H313 9349   4.172   3.833   6.905  0.8319  0.2673  0.7247
   19MOL   H314 9350   4.168   3.833   6.664  0.5646 -1.9660 -0.0541
   19MOL   H315 9351   4.019   3.903   6.730 -1.0937 -0.9463  0.1495
   19MOL   H316 9352   4.010   3.694   6.517  0.5747 -1.2209  1.4191
   19MOL   H317 9353   3.973   3.851   6.502 -0.0007 -0.4315  0.0420
   19MOL   H318 9354   3.816   3.677   6.684  3.6380 -2.2313 -1.0710
   19MOL   H319 9355   3.793   3.852   6.659  1.7251  1.1539 -1.5679
   19MOL   H320 9356   3.761   3.806   6.411  2.8846  0.1393  1.7100
   19MOL   H321 9357   3.760   3.637   6.436 -3.3320 -0.1748 -2.1484
   19MOL   H322 9358   3.534   3.668   6.421 -0.2384 -1.7336  0.9733
   19MOL   H323 9359   3.547   3.668   6.595  0.0164  0.1827  0.2934
   19MOL   H324 9360   3.520   3.935   6.422  1.1557  0.4930  0.1949
   19MOL   H325 9361   3.398   3.855   6.508 -0.1950 -0.7963 -2.1713
   19MOL   H326 9362   3.522   3.934   6.591 -0.6256 -0.4895  0.0231
   19MOL   C327 9363   4.252   3.635   6.898 -0.6667 -0.1823 -0.0643
   19MOL   C328 9364   4.361   3.646   6.791  0.8947 -0.3134  0.4965
   19MOL   O329 9365   4.433   3.761   6.838  0.6234  0.1278 -0.1611
   19MOL   C330 9366   4.535   3.819   6.761 -0.0687  0.3243  0.2159
   19MOL   C331 9367   4.565   3.969   6.783  0.8236 -1.2014  0.2709
   19MOL   C332 9368   4.656   4.038   6.679 -0.2261 -0.1496  0.0358
   19MOL   C333 9369   4.677   4.189   6.722 -0.3982  0.1517 -1.0648
   19MOL   C334 9370   4.743   4.273   6.611  0.7608 -0.1935 -0.1544
   19MOL   C335 9371   4.768   4.414   6.660 -0.4605 -0.4867 -0.1230
   19MOL   H336 9372   4.219   3.531   6.897  0.5476 -0.5771 -0.3090
   19MOL   H337 9373   4.295   3.645   6.998 -0.7565  1.0964 -0.1463
   19MOL   H338 9374   4.324   3.654   6.689 -0.1301 -0.4463  0.8566
   19MOL   H339 9375   4.520   3.812   6.654 -0.7366 -1.0246  0.3959
   19MOL   H340 9376   4.617   3.749   6.775  0.4535  0.9670  0.3974
   19MOL   H341 9377   4.597   3.986   6.885 -1.1734  0.0165  0.7221
   19MOL   H342 9378   4.464   4.010   6.776  1.1765 -0.2743  0.6085
   19MOL   H343 9379   4.751   3.987   6.663  0.8366  1.9557 -0.5143
   19MOL   H344 9380   4.605   4.032   6.582  1.6751 -0.3941 -0.9862
   19MOL   H345 9381   4.582   4.231   6.757  0.2915  0.8751 -0.0478
   19MOL   H346 9382   4.741   4.180   6.810 -3.4311  2.0565  1.4378
   19MOL   H347 9383   4.833   4.227   6.570 -0.2097 -1.0250 -1.4264
   19MOL   H348 9384   4.673   4.281   6.527 -0.4267 -0.3201  0.8126
   19MOL   H349 9385   4.784   4.406   6.768 -0.3533  0.0356 -0.0990
   19MOL   H350 9386   4.855   4.462   6.616  0.6492 -0.6931  1.7537
   19MOL   H351 9387   4.682   4.481   6.651  0.4662  0.7383 -0.0745
   19MOL   C352 9388   4.454   3.517   6.796  0.3523  0.3281  0.0922
   19MOL   C353 9389   4.413   3.403   6.694  0.4810  0.6213 -0.0183
   19MOL   O354 9390   4.270   3.373   6.722  0.3839 -0.2130 -0.7404
   19MOL   C355 9391   4.167   3.385   6.621 -0.1562  0.2555  0.8099
   19MOL   C356 9392   4.025   3.373   6.665 -0.1644  0.0539 -0.2030
   19MOL   C357 9393   3.985   3.225   6.673  0.7605 -0.4817  0.4187
   19MOL   C358 9394   3.835   3.201   6.686  0.3350  0.2011 -0.0093
   19MOL   C359 9395   3.784   3.052   6.695  0.6932  0.1263 -0.1288
   19MOL   C360 9396   3.627   3.052   6.677 -0.2496  0.4073 -0.6252
   19MOL   H361 9397   4.558   3.540   6.771  0.7767 -2.8916 -1.4428
   19MOL   H362 9398   4.453   3.458   6.887 -2.7238 -0.6010 -0.4986
   19MOL   H363 9399   4.413   3.443   6.592  2.7952 -1.0578 -0.7037
   19MOL   H364 9400   4.193   3.331   6.530  0.2787  0.3153  0.8988
   19MOL   H365 9401   4.189   3.488   6.594  1.7095 -0.4951 -0.6131
   19MOL   H366 9402   3.965   3.422   6.588 -0.3207  3.3598  1.9267
   19MOL   H367 9403   4.022   3.432   6.756  2.0115 -0.7320  0.4065
   19MOL   H368 9404   4.022   3.154   6.598  1.7690 -0.3012  0.7385
   19MOL   H369 9405   4.032   3.195   6.766  0.7774  2.2835  1.3356
   19MOL   H370 9406   3.786   3.250   6.770  0.3151  0.4727 -0.1788
   19MOL   H371 9407   3.783   3.246   6.602  0.8021 -0.1868 -0.5118
   19MOL   H372 9408   3.831   2.978   6.631  4.1197  0.6480  1.6438
   19MOL   H373 9409   3.819   3.011   6.790 -0.1486 -0.4313 -0.0593
   19MOL   H374 9410   3.586   2.952   6.683  0.9262 -0.0550 -0.1876
   19MOL   H375 9411   3.570   3.113   6.748 -1.6710 -1.4038 -0.1692
   19MOL   H376 9412   3.605   3.089   6.577  1.9956 -0.0300 -1.3006
   19MOL   C377 9413   4.489   3.270   6.708  0.4877  0.2993  0.3450
   19MOL   C378 9414   4.478   3.157   6.598  0.2724 -0.1271 -0.2645
   19MOL   O379 9415   4.491   3.025   6.656 -0.1809 -0.1801  0.1671
   19MOL   C380 9416   4.376   2.979   6.734 -0.4048  0.3485 -0.8266
   19MOL   C381 9417   4.266   2.929   6.636  0.5721  0.4834  0.1319
   19MOL   C382 9418   4.297   2.795   6.561  0.1149 -0.2206 -0.6739
   19MOL   C383 9419   4.207   2.785   6.437  0.5983  0.0943  0.0811
   19MOL   C384 9420   4.206   2.635   6.378 -0.0135 -0.3414 -0.0866
   19MOL   C385 9421   4.170   2.609   6.233  0.0298 -0.8301  0.4528
   19MOL   H386 9422   4.594   3.289   6.728  0.9480 -2.6357  1.0167
   19MOL   H387 9423   4.463   3.228   6.805  0.6186  0.3522  0.4029
   19MOL   H388 9424   4.379   3.174   6.554 -0.1947 -0.7731  0.5363
   19MOL   H389 9425   4.331   3.047   6.806 -0.2086  0.6970 -1.0335
   19MOL   H390 9426   4.406   2.893   6.793 -1.5119 -0.8058 -1.9152
   19MOL   H391 9427   4.260   3.016   6.570  1.3298 -0.3962 -1.1277
   19MOL   H392 9428   4.173   2.897   6.682 -0.7518  0.9927 -2.1002
   19MOL   H393 9429   4.403   2.787   6.537  0.4578 -0.8397  0.9213
   19MOL   H394 9430   4.283   2.717   6.636  2.5883  1.1838  1.3095
   19MOL   H395 9431   4.106   2.808   6.469 -0.1900 -0.5230 -1.8909
   19MOL   H396 9432   4.247   2.851   6.360 -0.2815  0.9668  0.3567
   19MOL   H397 9433   4.303   2.589   6.393 -0.6817 -1.1047  2.1438
   19MOL   H398 9434   4.150   2.569   6.444 -1.6744  3.0416  2.0562
   19MOL   H399 9435   4.074   2.645   6.197  1.5372  2.0196 -0.8783
   19MOL   H400 9436   4.241   2.642   6.157  0.5129  0.0712  1.2840
   19MOL   H401 9437   4.166   2.501   6.222 -1.2676 -0.7792  0.3098
   19MOL   C402 9438   4.603   3.170   6.501  0.5913 -0.7241  0.1745
   19MOL   C403 9439   4.601   3.086   6.369  0.5101 -0.9489 -0.7443
   19MOL   O404 9440   4.736   3.046   6.343  0.4857  0.1863 -0.7847
   19MOL   C405 9441   4.768   2.916   6.380  0.0169 -0.7403  0.3110
   19MOL   C406 9442   4.895   2.867   6.330 -0.1675  0.0477  0.5252
   19MOL   C407 9443   4.954   2.737   6.390 -0.7616  0.1810  0.1427
   19MOL   C408 9444   5.080   2.690   6.308 -1.0305  0.2588  0.1196
   19MOL   C409 9445   5.163   2.588   6.386 -0.0579 -0.5698  0.4459
   19MOL   C410 9446   5.099   2.451   6.401 -0.4806 -0.2706 -0.2709
   19MOL   H411 9447   4.686   3.138   6.564  0.9533  0.5047  0.3323
   19MOL   H412 9448   4.631   3.274   6.487 -0.2910 -0.6569 -1.1685
   19MOL   H413 9449   4.539   2.999   6.391 -0.8280 -0.4614 -2.4645
   19MOL   H414 9450   4.696   2.839   6.352  0.4833 -1.0777  0.0397
   19MOL   H415 9451   4.766   2.915   6.489 -2.6964  1.2273  0.3352
   19MOL   H416 9452   4.974   2.942   6.324  1.3320 -1.6025 -1.2215
   19MOL   H417 9453   4.873   2.859   6.224  0.7803 -0.0544  0.3331
   19MOL   H418 9454   4.976   2.748   6.496 -4.9788  1.6714  0.9483
   19MOL   H419 9455   4.869   2.672   6.369 -1.0139  1.1885 -2.1016
   19MOL   H420 9456   5.048   2.655   6.210  2.2231 -0.1668 -0.8327
   19MOL   H421 9457   5.148   2.774   6.303 -0.7262 -0.0940 -2.0079
   19MOL   H422 9458   5.266   2.589   6.352 -0.9986 -3.0759 -2.6628
   19MOL   H423 9459   5.183   2.626   6.487  1.8398 -0.7259  0.1414
   19MOL   H424 9460   5.017   2.457   6.473 -0.1347 -0.4152  0.1305
   19MOL   H425 9461   5.067   2.397   6.312 -0.7206 -1.2885  0.4288
   19MOL   H426 9462   5.172   2.381   6.440  1.1449  0.6557 -1.5888
   19MOL   C427 9463   4.541   3.150   6.247 -0.4445 -0.5028 -0.3832
   19MOL   C428 9464   4.528   3.055   6.127 -0.7625 -0.3856 -0.0798
   19MOL   O429 9465   4.408   3.099   6.069  0.3427 -0.2396  0.4021
   19MOL   C430 9466   4.289   3.028   6.098  0.1932 -0.0599 -1.1874
   19MOL   C431 9467   4.179   3.082   6.005  1.0717  0.1751  0.3156
   19MOL   C432 9468   4.054   3.000   6.022  0.0984  0.1031 -0.2027
   19MOL   C433 9469   4.007   2.999   6.165 -0.2085 -0.0346 -0.3209
   19MOL   C434 9470   3.862   2.933   6.191  0.3540 -0.0316  0.4218
   19MOL   C435 9471   3.816   2.950   6.338  0.3143 -0.1885  0.3185
   19MOL   H436 9472   4.444   3.183   6.282 -0.0803  0.8141 -0.5745
   19MOL   H437 9473   4.603   3.235   6.217 -1.7400  0.0451 -1.5579
   19MOL   H438 9474   4.523   2.953   6.163 -0.5224 -0.4760 -0.3085
   19MOL   H439 9475   4.269   3.025   6.205  2.7123 -2.5891 -0.7336
   19MOL   H440 9476   4.298   2.920   6.085 -1.5867 -0.2991 -0.5783
   19MOL   H441 9477   4.217   3.086   5.903  1.6355  2.5683  0.5875
   19MOL   H442 9478   4.162   3.188   6.026 -0.4903 -0.1045  0.5228
   19MOL   H443 9479   3.968   3.037   5.966 -0.0331  0.7997  0.4543
   19MOL   H444 9480   4.079   2.897   5.993 -1.5465  0.1593 -1.9447
   19MOL   H445 9481   4.072   2.942   6.231  0.3516  0.3870 -0.5016
   19MOL   H446 9482   3.993   3.100   6.204 -1.2252  0.7896 -2.7239
   19MOL   H447 9483   3.790   2.984   6.127 -2.0081 -1.8434  1.5610
   19MOL   H448 9484   3.854   2.826   6.169 -0.7290  0.1304 -0.0100
   19MOL   H449 9485   3.789   3.055   6.355 -0.9443 -0.6803  1.4350
   19MOL   H450 9486   3.738   2.888   6.382 -0.5016  1.2327  0.9032
   19MOL   H451 9487   3.903   2.923   6.399  0.2446 -0.5450  0.2574
   19MOL   C452 9488   4.632   3.090   6.025 -0.1963 -0.3829  0.2286
   19MOL   C453 9489   4.633   2.991   5.902 -0.3941 -0.7439  0.2443
   19MOL   O454 9490   4.708   2.879   5.938 -0.1183  0.3171 -0.1237
   19MOL   C455 9491   4.674   2.763   5.872 -0.5396  0.0592  0.2158
   19MOL   C456 9492   4.735   2.644   5.938 -0.0281  0.7154 -0.2624
   19MOL   C457 9493   4.654   2.611   6.064  0.2466 -0.2959 -0.7901
   19MOL   C458 9494   4.702   2.490   6.145 -0.0072  0.2955  0.7159
   19MOL   C459 9495   4.604   2.446   6.255 -0.4290  0.2042  0.1373
   19MOL   C460 9496   4.601   2.531   6.379  0.2397 -0.1848 -0.2618
   19MOL   H461 9497   4.603   3.188   5.987 -1.7255 -1.1706 -0.6693
   19MOL   H462 9498   4.734   3.103   6.062 -0.7882  0.7181  1.5136
   19MOL   H463 9499   4.533   2.951   5.885 -0.2735 -2.2067  2.7044
   19MOL   H464 9500   4.720   2.766   5.773 -2.3797  1.0022 -0.6548
   19MOL   H465 9501   4.566   2.751   5.858 -0.6864 -1.0052  2.1120
   19MOL   H466 9502   4.843   2.649   5.945  0.2582  1.7583 -4.1224
   19MOL   H467 9503   4.724   2.559   5.870 -2.7232 -0.5980  1.6981
   19MOL   H468 9504   4.641   2.696   6.131  0.2902  0.4237 -1.6924
   19MOL   H469 9505   4.553   2.583   6.032  1.2247 -2.5504 -2.0083
   19MOL   H470 9506   4.726   2.413   6.072  0.9543  1.2617 -0.0134
   19MOL   H471 9507   4.803   2.518   6.174  0.8472  1.8398 -3.3284
   19MOL   H472 9508   4.503   2.432   6.216 -0.7694 -1.7898  1.6472
   19MOL   H473 9509   4.627   2.346   6.291 -2.1101 -0.6442 -1.0678
   19MOL   H474 9510   4.701   2.530   6.424  0.1967 -1.9124 -0.2057
   19MOL   H475 9511   4.556   2.629   6.361 -0.0803 -0.5666 -1.5865
   19MOL   H476 9512   4.529   2.496   6.452 -1.0529  2.7819 -0.0329
   19MOL   C477 9513   4.691   3.058   5.775 -0.1784 -0.4960  0.2452
   19MOL   C478 9514   4.840   3.081   5.788 -1.0801  0.3944  0.3492
   19MOL   O479 9515   4.881   3.157   5.672  0.0448 -0.7363  0.2632
   19MOL   C480 9516   4.864   3.299   5.690  0.2910 -0.1759 -0.0913
   19MOL   C481 9517   4.974   3.369   5.615  0.3839  0.0167  0.2436
   19MOL   C482 9518   4.976   3.339   5.462  0.7423 -0.0733  0.6883
   19MOL   C483 9519   5.090   3.398   5.380  0.2643  0.1190  0.5250
   19MOL   C484 9520   5.081   3.394   5.227 -0.2441  0.4563  0.2049
   19MOL   C485 9521   5.214   3.433   5.170 -0.2571  0.0952 -0.6740
   19MOL   H486 9522   4.669   2.995   5.689  0.0257  0.3120 -0.4025
   19MOL   H487 9523   4.640   3.151   5.749 -0.3570 -1.4241 -2.9468
   19MOL   H488 9524   4.876   3.123   5.882 -1.6225  1.9342 -0.1180
   19MOL   H489 9525   4.866   3.340   5.791 -1.1934  2.2641 -0.9929
   19MOL   H490 9526   4.762   3.330   5.665  0.7537  1.2941 -0.1920
   19MOL   H491 9527   5.066   3.331   5.659  0.6712  1.3217  0.7867
   19MOL   H492 9528   4.971   3.476   5.631  0.2249  0.0284  0.1421
   19MOL   H493 9529   4.968   3.232   5.443 -0.9745  0.2339 -0.4628
   19MOL   H494 9530   4.881   3.382   5.428  0.1035 -1.7553  0.2787
   19MOL   H495 9531   5.108   3.501   5.412  0.5267  0.3092 -0.2281
   19MOL   H496 9532   5.180   3.339   5.397  0.1670 -1.1275 -2.9063
   19MOL   H497 9533   5.051   3.291   5.210  0.1223  0.2758  0.6487
   19MOL   H498 9534   4.995   3.453   5.194 -1.4302 -1.5395 -0.3642
   19MOL   H499 9535   5.247   3.529   5.210 -2.8036  0.3436  0.9220
   19MOL   H500 9536   5.277   3.345   5.180 -1.6776 -0.6573  2.1068
   19MOL   H501 9537   5.206   3.433   5.061  1.6164  2.7772 -0.8508
   19MOL   H502 9538   4.893   2.988   5.771  0.1242  1.0531  0.4711
   20MOL     C1 9539   6.140   3.540   3.318 -0.1015 -0.6938 -0.1224
   20MOL     C2 9540   6.268   3.625   3.307  0.0045 -0.5536  0.2793
   20MOL     O3 9541   6.347   3.556   3.211 -0.2487  1.0657  0.2159
   20MOL     C4 9542   6.324   3.607   3.081 -0.3560 -0.0451  0.1957
   20MOL     C5 9543   6.384   3.498   2.984  0.1635  0.3138  0.2437
   20MOL     C6 9544   6.303   3.376   2.971  0.1609 -0.3692 -0.1968
   20MOL     C7 9545   6.369   3.271   2.878  0.9891 -0.1248 -0.3615
   20MOL     C8 9546   6.341   3.306   2.727  0.1061  0.8161 -0.5162
   20MOL     C9 9547   6.198   3.261   2.686  0.3188  0.0714 -0.0821
   20MOL    H10 9548   6.094   3.529   3.221 -0.0375 -0.0957 -0.2232
   20MOL    H11 9549   6.170   3.438   3.344 -1.8919 -1.0104  0.7458
   20MOL    H12 9550   6.252   3.727   3.272  1.5889 -1.7351 -4.2762
   20MOL    H13 9551   6.386   3.695   3.064  0.5465 -0.6820  0.1291
   20MOL    H14 9552   6.221   3.630   3.056  0.6211  2.3026 -1.7989
   20MOL    H15 9553   6.480   3.474   3.029  1.2517  0.7704 -1.7798
   20MOL    H16 9554   6.405   3.538   2.885 -1.4916  1.3040  0.2641
   20MOL    H17 9555   6.294   3.334   3.071  0.0048  0.3269  0.0885
   20MOL    H18 9556   6.198   3.393   2.946 -0.6037 -2.7991  1.2686
   20MOL    H19 9557   6.476   3.265   2.896  0.6841 -1.2341  1.2155
   20MOL    H20 9558   6.322   3.176   2.905  0.4025  0.1338 -0.4675
   20MOL    H21 9559   6.416   3.251   2.670  0.1007 -0.5217  0.7266
   20MOL    H22 9560   6.369   3.409   2.706  0.9941  1.0256  1.5561
   20MOL    H23 9561   6.124   3.301   2.755 -0.3032 -2.9884  1.0820
   20MOL    H24 9562   6.184   3.283   2.580 -1.4091  0.7016  0.2574
   20MOL    H25 9563   6.201   3.152   2.690  2.5695  0.1549  1.4706
   20MOL    H26 9564   6.074   3.589   3.390 -0.1971  0.8613 -1.2653
   20MOL    C27 9565   6.346   3.628   3.441 -0.2534  0.0753 -0.4271
   20MOL    C28 9566   6.489   3.691   3.445  0.0335  0.6908  0.7779
   20MOL    O29 9567   6.516   3.717   3.586  0.0740  0.3010  0.0585
   20MOL    C30 9568   6.494   3.854   3.635  0.3282  0.1448  0.7939
   20MOL    C31 9569   6.546   3.861   3.779 -0.3598  0.2073 -0.0525
   20MOL    C32 9570   6.694   3.849   3.783 -0.7497  0.2528  0.2317
   20MOL    C33 9571   6.752   3.865   3.920  0.1444 -0.1891 -0.3060
   20MOL    C34 9572   6.904   3.884   3.924 -0.5748  0.1560  0.4534
   20MOL    C35 9573   6.952   3.864   4.065  0.3308  0.6618 -0.5525
   20MOL    H36 9574   6.273   3.675   3.506  1.2114  1.2731  0.3666
   20MOL    H37 9575   6.349   3.527   3.483  1.8222  0.4065  0.2679
   20MOL    H38 9576   6.508   3.784   3.391  0.1641  1.4302  2.0834
   20MOL    H39 9577   6.388   3.882   3.631 -0.0651 -1.4322 -0.2279
   20MOL    H40 9578   6.538   3.928   3.567 -0.6682 -0.1523 -0.2009
   20MOL    H41 9579   6.496   3.782   3.834  1.2025 -0.2387  0.7388
   20MOL    H42 9580   6.503   3.956   3.812 -3.2919 -0.0588 -2.8225
   20MOL    H43 9581   6.737   3.761   3.735 -0.6130  1.1320 -1.2906
   20MOL    H44 9582   6.729   3.932   3.721  0.0279 -0.9673 -1.0028
   20MOL    H45 9583   6.711   3.958   3.960 -1.9681  0.3717 -3.5636
   20MOL    H46 9584   6.715   3.784   3.982 -1.2697  0.1384 -0.7095
   20MOL    H47 9585   6.955   3.806   3.868  0.8905  0.4487  1.3401
   20MOL    H48 9586   6.944   3.976   3.883 -0.0730  0.9196  2.6000
   20MOL    H49 9587   6.928   3.761   4.091 -1.8703  1.8505  2.2889
   20MOL    H50 9588   7.060   3.876   4.079  0.0755 -0.9533  3.3077
   20MOL    H51 9589   6.897   3.938   4.122  0.3476  1.2358 -1.2674
   20MOL    C52 9590   6.593   3.584   3.398  0.5232  0.3182 -0.3222
   20MOL    C53 9591   6.737   3.628   3.358  0.5819 -0.3671  0.4794
   20MOL    O54 9592   6.728   3.738   3.274  0.3165 -0.6453  0.7429
   20MOL    C55 9593   6.717   3.719   3.137  0.2948 -0.0308 -0.1816
   20MOL    C56 9594   6.734   3.856   3.069 -0.2438 -0.7269  0.3190
   20MOL    C57 9595   6.717   3.862   2.917 -0.6293 -0.0881  0.5434
   20MOL    C58 9596   6.736   4.008   2.862  0.5171  0.7379 -0.4143
   20MOL    C59 9597   6.695   4.007   2.712 -0.5447 -0.1553  0.0353
   20MOL    C60 9598   6.726   4.141   2.650 -0.0032 -0.0168  0.6570
   20MOL    H61 9599   6.552   3.524   3.316  1.1679 -0.5458 -0.0077
   20MOL    H62 9600   6.604   3.513   3.479 -1.0511  1.1824  0.6628
   20MOL    H63 9601   6.798   3.545   3.322 -0.6385 -1.2954  0.5052
   20MOL    H64 9602   6.623   3.665   3.126 -0.0888  0.5215  0.3632
   20MOL    H65 9603   6.795   3.651   3.104 -0.0115 -0.9761  1.0184
   20MOL    H66 9604   6.829   3.907   3.083 -0.6295 -0.3214  1.5281
   20MOL    H67 9605   6.665   3.925   3.117  1.1000 -0.3244  1.7197
   20MOL    H68 9606   6.784   3.788   2.873  1.3245  0.6657  2.1448
   20MOL    H69 9607   6.616   3.830   2.889  0.0077  0.2034 -2.2355
   20MOL    H70 9608   6.673   4.078   2.918 -0.3821 -1.4049  1.3158
   20MOL    H71 9609   6.836   4.045   2.883 -0.3102  2.4235  0.6597
   20MOL    H72 9610   6.749   3.926   2.665  3.8447  1.4736  2.0006
   20MOL    H73 9611   6.589   3.979   2.714 -0.2702 -1.2999 -0.8231
   20MOL    H74 9612   6.681   4.215   2.716  0.4003  1.4806 -0.7126
   20MOL    H75 9613   6.831   4.170   2.658 -0.1111 -0.1122  2.5760
   20MOL    H76 9614   6.683   4.165   2.553  2.2423 -1.4422 -0.7385
   20MOL    C77 9615   6.820   3.681   3.478 -0.4536  1.4453  0.0810
   20MOL    C78 9616   6.968   3.722   3.441 -0.4963 -0.0920 -0.4524
   20MOL    O79 9617   7.027   3.598   3.408  0.0758 -0.0833 -0.4640
   20MOL    C80 9618   7.079   3.581   3.280  0.2259  0.9573 -0.4191
   20MOL    C81 9619   7.195   3.481   3.281 -0.8543 -0.0880  0.3885
   20MOL    C82 9620   7.236   3.425   3.142 -0.4478  0.4219 -0.4921
   20MOL    C83 9621   7.370   3.336   3.144  0.1158  0.2453  0.3003
   20MOL    C84 9622   7.394   3.287   2.998 -0.2002  0.0895 -0.2862
   20MOL    C85 9623   7.528   3.224   2.985 -0.8320 -0.2972 -0.6689
   20MOL    H86 9624   6.824   3.614   3.564  2.2724  1.2469 -0.1708
   20MOL    H87 9625   6.769   3.768   3.520 -2.4416  0.9682 -1.2648
   20MOL    H88 9626   6.964   3.803   3.368  1.8733  0.8600  0.4059
   20MOL    H89 9627   7.106   3.682   3.248  1.6270  0.5795 -0.4608
   20MOL    H90 9628   6.995   3.544   3.221  0.7230  0.9970 -1.1623
   20MOL    H91 9629   7.156   3.396   3.336 -1.3722  1.0615  1.8454
   20MOL    H92 9630   7.288   3.518   3.326  0.1795 -1.9145 -0.1914
   20MOL    H93 9631   7.154   3.364   3.104  1.0875 -1.9975  0.0135
   20MOL    H94 9632   7.244   3.509   3.073  1.9375 -0.7228 -1.6551
   20MOL    H95 9633   7.450   3.397   3.185  0.1157  0.4710 -0.0346
   20MOL    H96 9634   7.352   3.258   3.218 -0.7008  0.1131 -0.0283
   20MOL    H97 9635   7.317   3.216   2.967  0.9715 -1.4043  0.1842
   20MOL    H98 9636   7.394   3.374   2.932 -2.4182  0.6955  0.4753
   20MOL    H99 9637   7.527   3.139   3.055  0.1827 -0.9893 -1.4770
   20MOL   H100 9638   7.556   3.178   2.890  1.8024 -0.8856  0.3485
   20MOL   H101 9639   7.610   3.288   3.016 -0.3488 -0.3371 -1.8542
   20MOL   C102 9640   7.025   3.783   3.572 -0.0111  0.1852  0.1808
   20MOL   C103 9641   7.170   3.823   3.554 -0.8352  0.1160  0.3743
   20MOL   O104 9642   7.169   3.937   3.461  0.6823  0.2191 -0.1248
   20MOL   C105 9643   7.258   3.915   3.352  0.1287  0.6406 -0.1472
   20MOL   C106 9644   7.237   4.020   3.247 -0.1065 -1.0700 -0.5844
   20MOL   C107 9645   7.098   4.004   3.187  0.1035 -0.2439  0.9476
   20MOL   C108 9646   7.085   4.103   3.071  0.0507 -0.8383 -0.1339
   20MOL   C109 9647   7.068   4.250   3.116 -0.8033  0.3664 -0.0153
   20MOL   C110 9648   7.073   4.341   2.991  0.4588 -0.1864  0.5607
   20MOL   H111 9649   6.962   3.868   3.598 -0.7156 -0.0263 -0.8284
   20MOL   H112 9650   7.004   3.707   3.646  2.3518  0.3992  1.1162
   20MOL   H113 9651   7.220   3.735   3.514  0.6918  0.4324  1.5054
   20MOL   H114 9652   7.243   3.815   3.311 -0.6877  0.9400 -0.6040
   20MOL   H115 9653   7.359   3.932   3.388  0.4841 -0.5338 -0.5938
   20MOL   H116 9654   7.314   4.013   3.170  1.7009 -2.1611  1.2887
   20MOL   H117 9655   7.259   4.117   3.290  0.5225 -1.3477 -0.2699
   20MOL   H118 9656   7.095   3.907   3.137 -0.0004 -0.4005  1.2545
   20MOL   H119 9657   7.020   4.015   3.262 -0.5871 -2.4034  0.5899
   20MOL   H120 9658   7.173   4.092   3.008  0.2296  0.3387 -0.0942
   20MOL   H121 9659   7.011   4.076   2.995  3.4137  0.0645 -3.9001
   20MOL   H122 9660   6.976   4.265   3.172 -1.8078 -0.8527 -1.2867
   20MOL   H123 9661   7.146   4.281   3.185 -2.0307 -1.0890  2.0802
   20MOL   H124 9662   7.173   4.340   2.947  1.2793 -0.6578  2.3643
   20MOL   H125 9663   7.007   4.313   2.909 -1.5223 -0.4717  2.2056
   20MOL   H126 9664   7.051   4.446   3.011 -0.5211 -0.1985 -0.3697
   20MOL   C127 9665   7.228   3.863   3.694  0.3688 -0.3255  0.3858
   20MOL   C128 9666   7.383   3.842   3.708 -0.6243 -0.0855  0.5020
   20MOL   O129 9667   7.413   3.704   3.707  0.1882  0.3556  0.3023
   20MOL   C130 9668   7.472   3.648   3.581  0.3311 -0.4458  0.4282
   20MOL   C131 9669   7.492   3.496   3.584 -0.3056  0.0248  0.0441
   20MOL   C132 9670   7.566   3.445   3.455  0.2372  0.2631  0.3232
   20MOL   C133 9671   7.590   3.293   3.459  0.1124  0.1967 -0.1232
   20MOL   C134 9672   7.681   3.238   3.341  0.2044  0.2696 -0.1867
   20MOL   C135 9673   0.026   3.318   3.328 -0.4055  0.2540  0.0694
   20MOL   H136 9674   7.195   3.960   3.731  0.3605  0.2735 -1.1692
   20MOL   H137 9675   7.180   3.799   3.768  0.3330 -1.1168 -0.3231
   20MOL   H138 9676   7.442   3.898   3.635  2.8668 -3.2827  0.7108
   20MOL   H139 9677   7.563   3.706   3.570  0.3847  0.2116  3.6918
   20MOL   H140 9678   7.417   3.670   3.489 -1.3855 -1.1463  1.2516
   20MOL   H141 9679   7.390   3.460   3.589 -1.0983  2.4105  1.9899
   20MOL   H142 9680   7.556   3.490   3.672  0.6641  1.6124 -0.5261
   20MOL   H143 9681   7.492   3.464   3.377  3.2575  1.1903 -2.4569
   20MOL   H144 9682   7.654   3.503   3.426 -1.1548  1.2824 -2.0062
   20MOL   H145 9683   7.619   3.255   3.557  2.2626  0.2465 -0.7148
   20MOL   H146 9684   7.492   3.246   3.458 -0.2452  0.9518 -0.9212
   20MOL   H147 9685   7.712   3.135   3.358  1.6648  1.1812  3.2736
   20MOL   H148 9686   7.634   3.243   3.243  0.3642  0.6081 -0.2460
   20MOL   H149 9687   0.007   3.418   3.286  2.0130  0.5116 -0.4522
   20MOL   H150 9688   0.066   3.323   3.429  0.4235  1.4958 -0.3028
   20MOL   H151 9689   0.097   3.266   3.264  1.2090  0.1655  1.9116
   20MOL   C152 9690   7.428   3.892   3.848  0.0468 -0.1451  0.1411
   20MOL   C153 9691   7.571   3.941   3.845  0.1298 -0.1033 -0.0122
   20MOL   O154 9692   7.590   4.062   3.768 -0.2624 -0.6826  0.0148
   20MOL   C155 9693   7.717   4.078   3.699  0.1275  0.1058 -0.2957
   20MOL   C156 9694   7.690   4.181   3.584 -0.1042 -0.5252  0.1398
   20MOL   C157 9695   7.676   4.328   3.636 -0.1916  0.5129  0.8309
   20MOL   C158 9696   7.651   4.431   3.526 -0.6555  0.4133  0.1105
   20MOL   C159 9697   7.626   4.578   3.575  0.5770 -0.2648  0.3289
   20MOL   C160 9698   7.641   4.685   3.469 -0.2048  0.1912 -0.1265
   20MOL   H161 9699   7.372   3.985   3.862 -0.5071 -0.3741 -0.5445
   20MOL   H162 9700   7.407   3.816   3.924  0.2557 -0.5724 -0.2251
   20MOL   H163 9701   7.636   3.859   3.818  1.3565  0.1803  1.9679
   20MOL   H164 9702   7.746   3.982   3.655 -2.4670 -0.5349 -0.7167
   20MOL   H165 9703   0.025   4.111   3.756  0.9465 -0.3256 -1.2612
   20MOL   H166 9704   7.596   4.151   3.537 -1.2268  2.2755  0.5206
   20MOL   H167 9705   7.768   4.172   3.509 -1.9540  0.9780 -2.0351
   20MOL   H168 9706   7.593   4.323   3.707 -2.1765 -0.4452 -1.4738
   20MOL   H169 9707   7.767   4.355   3.689  0.8917 -1.4312  0.0211
   20MOL   H170 9708   7.734   4.435   3.456 -1.2213  2.1092 -0.5103
   20MOL   H171 9709   7.573   4.398   3.457  0.6742  0.5930 -1.5094
   20MOL   H172 9710   7.522   4.574   3.608  1.4970 -0.2560  3.4356
   20MOL   H173 9711   7.683   4.596   3.667 -0.3144 -1.0663  1.0500
   20MOL   H174 9712   7.568   4.667   3.391 -0.2930  1.9413 -0.4704
   20MOL   H175 9713   7.615   4.785   3.503 -1.0166  0.5278 -1.6946
   20MOL   H176 9714   7.739   4.684   3.421  1.1370  1.6254  2.4542
   20MOL   C177 9715   7.621   3.972   3.994  0.3710  0.4914  0.7010
   20MOL   C178 9716   7.643   3.851   4.087  0.7476 -0.2504 -0.0961
   20MOL   O179 9717   7.745   3.768   4.014  0.0054  0.4097  0.3326
   20MOL   C180 9718   7.731   3.624   4.021  0.2767 -0.0095  0.2125
   20MOL   C181 9719   7.761   3.577   3.879  0.4554 -0.0563  0.3905
   20MOL   C182 9720   0.131   3.587   3.828 -0.4834 -0.5441  0.3129
   20MOL   C183 9721   0.140   3.569   3.678  0.9080 -0.2165  0.2165
   20MOL   C184 9722   0.288   3.595   3.630 -0.2068  0.2407  0.3661
   20MOL   C185 9723   0.330   3.536   3.499  0.0878 -0.6138  0.0974
   20MOL   H186 9724   7.706   4.037   3.979 -0.6752  1.5961 -0.5871
   20MOL   H187 9725   7.542   4.036   4.033  0.4801  0.3014  1.2298
   20MOL   H188 9726   7.546   3.802   4.093  1.2390 -0.9607  4.3997
   20MOL   H189 9727   7.629   3.599   4.049  0.4951 -1.3557 -0.1767
   20MOL   H190 9728   0.027   3.579   4.087  1.3293  1.5752  0.1465
   20MOL   H191 9729   7.688   3.625   3.814  2.1551  1.6937 -0.2787
   20MOL   H192 9730   7.745   3.469   3.874 -0.0452  0.1161 -3.1044
   20MOL   H193 9731   0.183   3.679   3.853  0.5685 -1.3757  1.2899
   20MOL   H194 9732   0.189   3.501   3.863 -2.2920 -2.3134 -0.9084
   20MOL   H195 9733   0.103   3.468   3.659 -0.7304  0.3782  0.1977
   20MOL   H196 9734   0.064   3.624   3.623 -0.2490 -0.5675  1.4479
   20MOL   H197 9735   0.304   3.702   3.616  0.3041  0.1191 -0.0270
   20MOL   H198 9736   0.353   3.571   3.715 -0.7207 -0.5740  0.5365
   20MOL   H199 9737   0.426   3.574   3.464  0.3172 -0.7679  0.5620
   20MOL   H200 9738   0.345   3.428   3.511 -2.0087 -0.8292  0.9872
   20MOL   H201 9739   0.255   3.560   3.424  0.0496  1.7363  0.8653
   20MOL   C202 9740   7.694   3.889   4.229  0.8807  0.3598 -0.5154
   20MOL   C203 9741   7.581   3.896   4.334 -0.1927 -0.0177  0.8533
   20MOL   O204 9742   7.485   3.995   4.286 -0.3123 -0.1029  0.2748
   20MOL   C205 9743   7.351   3.947   4.280  0.0167 -0.1789  0.0142
   20MOL   C206 9744   7.251   4.062   4.255  0.0601  0.1524  0.3412
   20MOL   C207 9745   7.294   4.179   4.172 -0.2028 -0.2894 -0.4208
   20MOL   C208 9746   7.181   4.277   4.126  0.1607 -0.4909 -0.3285
   20MOL   C209 9747   7.059   4.206   4.074  0.6644  0.3680 -0.4263
   20MOL   C210 9748   6.974   4.305   4.004  0.6462 -0.5953 -0.1508
   20MOL   H211 9749   7.762   3.810   4.260  1.7602  0.7353 -1.4926
   20MOL   H212 9750   7.752   3.980   4.239  2.5628 -1.0333  3.2505
   20MOL   H213 9751   7.535   3.798   4.350 -1.2794 -0.0023 -1.8695
   20MOL   H214 9752   7.318   3.888   4.365 -2.0847  2.0075  0.7607
   20MOL   H215 9753   7.353   3.894   4.185  0.1719  1.9277 -1.1891
   20MOL   H216 9754   7.239   4.105   4.354  2.5013  1.6612  0.0062
   20MOL   H217 9755   7.153   4.022   4.227 -0.1387 -0.0407  1.3116
   20MOL   H218 9756   7.369   4.230   4.232  1.1621 -1.9327 -0.6615
   20MOL   H219 9757   7.351   4.142   4.086  0.6828  1.5135 -0.6396
   20MOL   H220 9758   7.159   4.346   4.208  0.5738  2.6175 -2.7421
   20MOL   H221 9759   7.225   4.334   4.045  2.2015  0.9274  1.6951
   20MOL   H222 9760   7.080   4.122   4.009 -1.0126  0.2130 -0.8036
   20MOL   H223 9761   7.009   4.162   4.160  2.1367  1.4274  1.0049
   20MOL   H224 9762   6.948   4.391   4.065 -0.9792 -1.6926  0.7382
   20MOL   H225 9763   7.030   4.343   3.918 -0.5726  0.2350 -0.5935
   20MOL   H226 9764   6.879   4.259   3.977 -0.0494  0.5385  0.3714
   20MOL   C227 9765   7.619   3.950   4.472 -0.1137  0.0522  0.1949
   20MOL   C228 9766   7.702   3.856   4.560  0.3548  0.5626 -0.2830
   20MOL   O229 9767   0.053   3.853   4.498 -0.2908  0.5068  0.4750
   20MOL   C230 9768   0.115   3.728   4.503  0.0600  1.3139  0.0485
   20MOL   C231 9769   0.267   3.731   4.458 -0.0649  0.4078 -1.0241
   20MOL   C232 9770   0.374   3.779   4.558 -0.1799 -0.1466 -0.3619
   20MOL   C233 9771   0.519   3.755   4.512  0.2259 -0.3460  0.0479
   20MOL   C234 9772   0.613   3.821   4.610  0.5651 -0.5622  0.4537
   20MOL   C235 9773   0.759   3.819   4.567 -0.2728  0.6545 -0.1199
   20MOL   H236 9774   7.671   4.046   4.474  3.3874 -1.7828  1.7188
   20MOL   H237 9775   7.530   3.978   4.528 -0.8093 -0.4093 -0.6669
   20MOL   H238 9776   7.659   3.756   4.554  2.2008 -0.6440  4.1628
   20MOL   H239 9777   0.066   3.663   4.430  1.0453 -0.4266  0.8862
   20MOL   H240 9778   0.105   3.683   4.602  1.8927  1.2369  0.2180
   20MOL   H241 9779   0.268   3.808   4.380  1.6124  0.3592 -1.0651
   20MOL   H242 9780   0.305   3.634   4.426  0.1754  0.2613 -0.2785
   20MOL   H243 9781   0.356   3.886   4.567 -1.0973 -0.3613  0.4559
   20MOL   H244 9782   0.356   3.738   4.657 -2.1121  1.8872  0.1789
   20MOL   H245 9783   0.539   3.649   4.499 -0.3810 -0.6562  1.5209
   20MOL   H246 9784   0.536   3.794   4.412 -1.1489 -0.4969 -0.2598
   20MOL   H247 9785   0.579   3.923   4.628  0.8408 -0.0021 -2.0751
   20MOL   H248 9786   0.600   3.777   4.709  3.5501 -1.2520  0.5772
   20MOL   H249 9787   0.796   3.718   4.551  2.8489  1.9993 -1.7125
   20MOL   H250 9788   0.777   3.867   4.472  1.9554 -0.4513 -0.2753
   20MOL   H251 9789   0.828   3.856   4.643  1.6159 -2.0489 -0.4421
   20MOL   C252 9790   7.716   3.900   4.711  0.2733  0.0178 -0.2345
   20MOL   C253 9791   7.603   3.857   4.808  0.2047  0.6465 -0.1380
   20MOL   O254 9792   7.635   3.920   4.933 -0.0656 -0.0219 -0.4674
   20MOL   C255 9793   7.549   4.029   4.980 -0.6381 -0.2377 -0.1161
   20MOL   C256 9794   7.568   4.043   5.128  0.2963 -0.3084 -0.2271
   20MOL   C257 9795   7.548   3.907   5.208 -0.0328 -0.0477 -0.0801
   20MOL   C258 9796   7.505   3.935   5.355 -0.5140  0.2587  0.3747
   20MOL   C259 9797   7.512   3.805   5.433  0.4216 -0.0734  0.1456
   20MOL   C260 9798   7.435   3.817   5.570 -0.6487 -0.3581 -0.1696
   20MOL   H261 9799   0.035   3.866   4.748  0.8455  0.9278 -0.8698
   20MOL   H262 9800   7.737   4.007   4.720  0.7791 -0.0427 -0.6263
   20MOL   H263 9801   7.507   3.897   4.776  0.2162  1.7278  1.1220
   20MOL   H264 9802   7.442   4.018   4.959 -0.8825  1.7126 -0.0258
   20MOL   H265 9803   7.578   4.126   4.941 -0.4504  1.0671  3.1003
   20MOL   H266 9804   7.498   4.116   5.168 -0.4502 -0.0659 -1.9093
   20MOL   H267 9805   7.670   4.077   5.149  0.0932  0.2873 -0.2122
   20MOL   H268 9806   7.467   3.853   5.159  1.9296 -1.6948 -1.6071
   20MOL   H269 9807   7.647   3.862   5.204  0.3292  0.5652  1.4175
   20MOL   H270 9808   7.573   4.013   5.387 -0.5436  0.8158 -0.8941
   20MOL   H271 9809   7.415   3.996   5.354  0.4949  1.7771 -0.3227
   20MOL   H272 9810   7.470   3.726   5.370  0.6481  1.3083 -1.7731
   20MOL   H273 9811   7.612   3.772   5.462  0.7536  0.1382 -0.7598
   20MOL   H274 9812   7.424   3.729   5.633 -2.1385 -1.2860 -1.7087
   20MOL   H275 9813   7.499   3.889   5.621  2.1808 -1.5131 -1.9807
   20MOL   H276 9814   7.334   3.855   5.555 -0.9617 -0.0403  2.5281
   20MOL   C277 9815   7.609   3.703   4.831  0.4600 -0.1428  0.4420
   20MOL   C278 9816   7.499   3.635   4.917 -0.6745  0.2234  0.1478
   20MOL   O279 9817   7.378   3.669   4.849  0.2926  0.3149  0.1782
   20MOL   C280 9818   7.279   3.741   4.923 -0.3312 -0.0424 -0.4364
   20MOL   C281 9819   7.173   3.810   4.841  0.3085 -0.4376  1.2557
   20MOL   C282 9820   7.108   3.721   4.737 -0.0521 -0.1653 -0.2403
   20MOL   C283 9821   7.004   3.790   4.649  0.6405 -0.0556  0.5351
   20MOL   C284 9822   6.962   3.729   4.514  0.1059 -0.3477  0.4082
   20MOL   C285 9823   6.842   3.807   4.450 -0.3396 -0.5199  0.0220
   20MOL   H286 9824   7.610   3.651   4.735 -2.9738  1.0556 -0.2793
   20MOL   H287 9825   7.703   3.667   4.873  1.3328 -0.7136 -1.9109
   20MOL   H288 9826   7.503   3.680   5.017 -0.4252 -1.1797  0.7905
   20MOL   H289 9827   7.333   3.810   4.986  1.8132 -0.3559 -1.8736
   20MOL   H290 9828   7.237   3.658   4.980  1.9317 -2.2267 -1.8052
   20MOL   H291 9829   7.228   3.891   4.794 -2.3509  1.3685  1.1598
   20MOL   H292 9830   7.094   3.863   4.894  0.4672  1.1970 -0.0949
   20MOL   H293 9831   7.191   3.692   4.671  0.6368  0.9653  0.1318
   20MOL   H294 9832   7.075   3.627   4.783  1.1662 -0.6912 -0.4247
   20MOL   H295 9833   6.917   3.807   4.712  0.9811  1.3852  0.6364
   20MOL   H296 9834   7.043   3.890   4.633 -1.1588  0.4920 -0.6269
   20MOL   H297 9835   7.043   3.725   4.441 -0.3768  0.4652 -0.1800
   20MOL   H298 9836   6.934   3.629   4.544 -0.1063 -0.9150 -1.6431
   20MOL   H299 9837   6.768   3.814   4.530 -0.5987 -2.5621  0.0003
   20MOL   H300 9838   6.863   3.912   4.435 -1.1324 -0.1614  1.3421
   20MOL   H301 9839   6.794   3.774   4.358  2.5706 -1.1464 -1.3246
   20MOL   C302 9840   7.506   3.482   4.928  0.7298  0.9572 -0.5824
   20MOL   C303 9841   7.623   3.432   5.007 -0.1415  0.4266  0.9007
   20MOL   O304 9842   7.733   3.437   4.918 -0.3122  0.1810 -0.1533
   20MOL   C305 9843   0.084   3.417   4.965 -0.2364 -0.4344 -0.2557
   20MOL   C306 9844   0.161   3.347   4.852  0.2223 -0.7927  0.1541
   20MOL   C307 9845   0.141   3.193   4.839 -0.0964 -0.0734  0.4236
   20MOL   C308 9846   0.220   3.119   4.948 -0.3962 -0.1667  0.1761
   20MOL   C309 9847   0.204   2.976   4.952  0.3757  0.0799  0.2804
   20MOL   C310 9848   0.078   2.937   5.021 -0.5234 -0.0488  0.3289
   20MOL   H311 9849   7.420   3.448   4.985  0.6752 -0.3365 -1.4073
   20MOL   H312 9850   7.499   3.444   4.826 -2.5907  1.9754 -0.8146
   20MOL   H313 9851   7.645   3.494   5.094  1.2615 -0.0171  0.8727
   20MOL   H314 9852   0.096   3.371   5.063 -2.8274  0.0402  0.3222
   20MOL   H315 9853   0.117   3.519   4.984  0.6748 -0.7694 -0.0235
   20MOL   H316 9854   0.268   3.367   4.846  0.1270  0.3756  2.0227
   20MOL   H317 9855   0.132   3.397   4.760 -0.3609  0.2547  0.9007
   20MOL   H318 9856   0.036   3.177   4.864  0.3192 -0.0862  2.2592
   20MOL   H319 9857   0.152   3.157   4.737  0.5438  0.6439  0.2322
   20MOL   H320 9858   0.320   3.135   4.909  0.1249 -0.4392  1.3655
   20MOL   H321 9859   0.216   3.154   5.051  0.3086 -0.5481  0.3363
   20MOL   H322 9860   0.224   2.932   4.854 -1.2599  1.2435 -0.6116
   20MOL   H323 9861   0.277   2.926   5.015  0.9714  0.2881 -0.2429
   20MOL   H324 9862   0.069   2.828   5.029  2.8982 -0.2988  1.3647
   20MOL   H325 9863   0.078   2.963   5.127  1.0023  0.3839  0.2285
   20MOL   H326 9864   7.769   2.982   4.974  0.4556  1.1448 -0.3829
   20MOL   C327 9865   7.598   3.283   5.052 -0.1597  0.0815  0.5310
   20MOL   C328 9866   7.520   3.269   5.190  0.3504  0.2542  0.5269
   20MOL   O329 9867   7.400   3.342   5.178 -0.1761  0.0328 -0.8843
   20MOL   C330 9868   7.328   3.370   5.295 -0.8355 -0.0859  0.0910
   20MOL   C331 9869   7.188   3.421   5.250 -0.3624 -0.2635 -0.3881
   20MOL   C332 9870   7.114   3.322   5.164  0.6767 -0.3257  0.1865
   20MOL   C333 9871   6.975   3.367   5.115  0.4287 -0.4362 -0.6098
   20MOL   C334 9872   6.919   3.276   5.014 -0.8143  0.3732  0.0102
   20MOL   C335 9873   6.973   3.286   4.868 -0.3144 -1.0538  0.3692
   20MOL   H336 9874   7.688   3.222   5.042  0.2521  0.4510  1.8974
   20MOL   H337 9875   7.549   3.238   4.966 -0.0267 -0.3643  0.6897
   20MOL   H338 9876   7.572   3.319   5.271  0.4683  1.5061 -0.2883
   20MOL   H339 9877   7.380   3.459   5.329 -0.4527  0.1592 -1.1259
   20MOL   H340 9878   7.321   3.280   5.357 -2.1746 -0.2037 -0.2107
   20MOL   H341 9879   7.205   3.518   5.202 -0.8888 -0.4355 -0.9263
   20MOL   H342 9880   7.132   3.427   5.344 -0.0321  1.0538 -0.2626
   20MOL   H343 9881   7.178   3.303   5.077  0.2046 -0.4579 -0.1346
   20MOL   H344 9882   7.110   3.231   5.223  0.6360 -1.5644 -1.6792
   20MOL   H345 9883   6.906   3.364   5.200  1.3846  0.5661  0.2204
   20MOL   H346 9884   6.977   3.465   5.069 -0.6431 -0.7245 -1.2626
   20MOL   H347 9885   6.945   3.175   5.044  1.3091  0.4922 -1.2969
   20MOL   H348 9886   6.812   3.299   5.016 -0.9011 -0.0760  0.4678
   20MOL   H349 9887   7.080   3.269   4.856 -0.3027  0.4394 -1.8702
   20MOL   H350 9888   6.930   3.214   4.798 -0.5011  1.2546 -1.9655
   20MOL   H351 9889   6.946   3.377   4.814 -0.9513 -2.8160 -2.3924
   20MOL   C352 9890   7.504   3.119   5.231 -0.8350  0.3168 -0.2630
   20MOL   C353 9891   7.551   3.084   5.376 -0.0863 -0.3991  0.0134
   20MOL   O354 9892   7.681   3.127   5.371 -0.5790  0.2091  0.7283
   20MOL   C355 9893   7.727   3.191   5.494 -0.3014 -0.1783 -0.2259
   20MOL   C356 9894   0.105   3.214   5.492  0.1985  0.1419  0.6255
   20MOL   C357 9895   0.132   3.330   5.401  0.0071  0.0600  0.1976
   20MOL   C358 9896   0.276   3.377   5.399 -0.4498 -0.0500 -0.0279
   20MOL   C359 9897   0.298   3.508   5.306 -0.6932 -0.5135  0.2617
   20MOL   C360 9898   0.215   3.632   5.331  0.0831 -0.1731 -0.6204
   20MOL   H361 9899   7.398   3.105   5.214 -0.7578 -1.0450  0.3367
   20MOL   H362 9900   7.558   3.052   5.163  0.5422 -0.1467  1.2617
   20MOL   H363 9901   7.487   3.128   5.453 -0.9597 -0.8744 -0.4336
   20MOL   H364 9902   7.711   3.124   5.578  1.3291 -1.0006 -0.5510
   20MOL   H365 9903   7.662   3.277   5.511 -2.1943 -1.7615  0.8289
   20MOL   H366 9904   0.155   3.120   5.469  1.2708  0.8880 -0.1697
   20MOL   H367 9905   0.139   3.255   5.586  2.8715  0.6156 -0.5065
   20MOL   H368 9906   0.099   3.305   5.300  0.6715 -2.5277  0.5805
   20MOL   H369 9907   0.079   3.420   5.431  2.4326  1.6484 -0.1794
   20MOL   H370 9908   0.294   3.407   5.502 -1.5284 -0.3751  0.2582
   20MOL   H371 9909   0.333   3.291   5.365 -1.2304 -2.1617  3.6824
   20MOL   H372 9910   0.403   3.534   5.321 -0.3112 -1.0246 -1.4758
   20MOL   H373 9911   0.286   3.484   5.201  1.8551  1.4979 -0.5456
   20MOL   H374 9912   0.109   3.607   5.326  0.1131 -0.7118  1.1970
   20MOL   H375 9913   0.233   3.672   5.430  2.7526 -0.0699 -1.1274
   20MOL   H376 9914   0.227   3.710   5.255  1.3438  0.1685 -0.0680
   20MOL   C377 9915   7.568   2.933   5.396  0.2649 -0.4576 -0.3432
   20MOL   C378 9916   7.437   2.854   5.427 -0.7652 -0.1802 -0.0112
   20MOL   O379 9917   7.391   2.910   5.550  0.0579 -0.3253 -0.6949
   20MOL   C380 9918   7.254   2.914   5.591  0.2122 -0.4305 -0.4945
   20MOL   C381 9919   7.186   3.042   5.531 -0.9662 -0.1386 -0.2946
   20MOL   C382 9920   7.044   3.056   5.572 -0.7907  0.3355 -0.4926
   20MOL   C383 9921   6.966   3.181   5.523  0.1900  0.4690 -0.3135
   20MOL   C384 9922   6.814   3.163   5.542 -0.4926 -0.5493  0.3408
   20MOL   C385 9923   6.739   3.293   5.517 -0.1265  0.5180  0.3036
   20MOL   H386 9924   7.620   2.880   5.316  1.8339 -0.2045  0.4828
   20MOL   H387 9925   7.636   2.910   5.478 -0.6430 -0.8382  0.3134
   20MOL   H388 9926   7.353   2.881   5.364 -1.5458 -1.0528  0.6219
   20MOL   H389 9927   7.240   2.921   5.699 -0.4720 -0.8106 -0.5526
   20MOL   H390 9928   7.207   2.820   5.562  0.0293  0.0615 -1.8368
   20MOL   H391 9929   7.198   3.037   5.423 -1.2527 -3.1014 -0.2329
   20MOL   H392 9930   7.234   3.129   5.575 -1.3303  1.1476 -2.3678
   20MOL   H393 9931   6.988   2.971   5.534 -2.0079  1.6564 -1.7554
   20MOL   H394 9932   7.035   3.044   5.680 -1.7456 -2.0286 -0.8199
   20MOL   H395 9933   6.995   3.277   5.565 -2.1923  1.1384 -0.1233
   20MOL   H396 9934   6.988   3.181   5.416  0.7580  1.3630 -0.2002
   20MOL   H397 9935   6.776   3.085   5.477 -0.3342 -0.1436 -0.2372
   20MOL   H398 9936   6.794   3.127   5.643  0.4570 -1.4118  0.2202
   20MOL   H399 9937   6.638   3.271   5.481  0.7522 -0.6874 -1.4746
   20MOL   H400 9938   6.734   3.354   5.607 -3.0554 -1.3227  1.4771
   20MOL   H401 9939   6.789   3.350   5.439 -0.2517  2.8265  1.8728
   20MOL   C402 9940   7.455   2.706   5.447  0.5728 -0.3351  1.0227
   20MOL   C403 9941   7.454   2.640   5.308 -0.7991 -0.3765 -0.7234
   20MOL   O404 9942   7.317   2.630   5.257  0.0641 -0.6196  0.8192
   20MOL   C405 9943   7.301   2.627   5.116  0.1352 -0.3119 -0.3403
   20MOL   C406 9944   7.145   2.603   5.112  0.0073  0.1309  0.3899
   20MOL   C407 9945   7.056   2.718   5.178 -0.2876  0.0816  0.2080
   20MOL   C408 9946   6.909   2.704   5.142 -0.1667 -0.5738 -0.4411
   20MOL   C409 9947   6.816   2.798   5.221 -0.0874 -0.7378  0.3206
   20MOL   C410 9948   6.785   2.939   5.165 -0.0186 -0.3791  0.4457
   20MOL   H411 9949   7.383   2.659   5.513 -0.4126  1.7197  1.4563
   20MOL   H412 9950   7.553   2.697   5.495  2.4787  2.1851 -2.2129
   20MOL   H413 9951   7.515   2.701   5.241 -0.7136  1.0836  0.6552
   20MOL   H414 9952   7.370   2.554   5.073 -0.4280 -0.3950 -1.1124
   20MOL   H415 9953   7.341   2.723   5.085  2.5651 -0.5621  1.8307
   20MOL   H416 9954   7.120   2.507   5.158  0.4835  0.2457  0.9008
   20MOL   H417 9955   7.119   2.592   5.007  2.1071  0.6699 -0.2066
   20MOL   H418 9956   7.075   2.717   5.285 -0.4200 -0.9736  0.2325
   20MOL   H419 9957   7.091   2.817   5.150  2.0277 -1.0339 -1.0320
   20MOL   H420 9958   6.903   2.730   5.036  1.0679  0.1748 -0.3427
   20MOL   H421 9959   6.869   2.603   5.148 -1.3215 -0.1574 -0.9662
   20MOL   H422 9960   6.724   2.739   5.225 -0.6699  0.0648 -1.0963
   20MOL   H423 9961   6.850   2.795   5.325  1.5624 -0.6802 -0.2072
   20MOL   H424 9962   6.726   2.989   5.242 -1.2445 -0.6231 -0.3139
   20MOL   H425 9963   6.873   2.994   5.133  0.3661 -1.6081 -0.6463
   20MOL   H426 9964   6.718   2.943   5.079  0.9426 -0.5896 -0.3245
   20MOL   C427 9965   7.500   2.492   5.315  0.3175 -0.7429  0.9008
   20MOL   C428 9966   7.623   2.460   5.404 -0.8375  0.0163  0.3002
   20MOL   O429 9967   7.656   2.323   5.399 -0.3724 -0.1960  0.2973
   20MOL   C430 9968   7.584   2.243   5.486  0.7960 -0.3759 -0.5409
   20MOL   C431 9969   7.647   2.107   5.500 -0.0919 -0.4120 -1.0690
   20MOL   C432 9970   7.687   2.045   5.364 -0.4140 -0.0828 -0.2313
   20MOL   C433 9971   7.767   1.918   5.372  0.5278 -0.3217 -0.5443
   20MOL   C434 9972   0.015   1.844   5.243 -1.1661 -0.1593 -0.1868
   20MOL   C435 9973   7.674   1.803   5.166  0.3467  0.1509  0.5959
   20MOL   H436 9974   7.421   2.431   5.360  0.8066 -2.3749 -0.3899
   20MOL   H437 9975   7.516   2.449   5.216 -0.9249 -0.0007  0.3695
   20MOL   H438 9976   7.606   2.497   5.505 -1.7474 -0.2636  0.2592
   20MOL   H439 9977   7.479   2.236   5.455 -0.0496  0.6391  1.9578
   20MOL   H440 9978   7.570   2.288   5.584  1.9375  0.7830 -0.9015
   20MOL   H441 9979   7.587   2.031   5.550  1.2781 -0.1672  0.9909
   20MOL   H442 9980   7.737   2.116   5.561  0.2418 -2.2763 -1.2604
   20MOL   H443 9981   7.595   2.031   5.306 -2.3873 -1.8409  3.1961
   20MOL   H444 9982   7.743   2.109   5.296  2.1545 -0.4135  1.5339
   20MOL   H445 9983   0.088   1.943   5.407 -0.3679 -0.9320  2.5857
   20MOL   H446 9984   7.726   1.856   5.451 -1.5887  0.8040 -0.7134
   20MOL   H447 9985   0.074   1.919   5.190  0.9094 -2.5741 -1.3876
   20MOL   H448 9986   0.081   1.761   5.267 -0.5597  0.2277 -0.5113
   20MOL   H449 9987   7.672   1.840   5.064  0.3066  1.0644  0.9215
   20MOL   H450 9988   7.656   1.696   5.180  2.4099 -0.4180 -0.9259
   20MOL   H451 9989   7.585   1.852   5.206 -0.7874 -1.5549  0.2031
   20MOL   C452 9990   7.743   2.548   5.363 -0.3042 -0.1718  0.0621
   20MOL   C453 9991   0.098   2.518   5.435  0.2347 -0.1496 -0.1181
   20MOL   O454 9992   0.073   2.559   5.570 -0.1487  0.8127 -0.4465
   20MOL   C455 9993   0.079   2.449   5.669 -0.0787  0.2148 -0.0204
   20MOL   C456 9994   0.180   2.496   5.777  0.5469 -0.1789 -0.0096
   20MOL   C457 9995   0.198   2.386   5.880  0.6828 -0.7294  0.5911
   20MOL   C458 9996   0.295   2.435   5.998 -0.2041 -0.3612  0.8235
   20MOL   C459 9997   0.287   2.330   6.113  0.1658  0.1620 -0.3441
   20MOL   C460 9998   0.340   2.386   6.245 -0.2056  0.3229  0.3107
   20MOL   H461 9999   7.759   2.528   5.257  1.1506  0.5377  0.1391
   20MOL   H46210000   7.724   2.654   5.374 -0.4683 -0.4160  2.5234
   20MOL   H46310001   0.111   2.411   5.420  2.4215 -0.2190  1.9894
   20MOL   H46410002   0.107   2.352   5.628  0.0329 -0.1898  0.9985
   20MOL   H46510003   7.760   2.446   5.718  0.3512  2.1291  1.0087
   20MOL   H46610004   0.146   2.584   5.831  0.5680  0.9729 -1.8074
   20MOL   H46710005   0.269   2.524   5.719  0.9536 -1.0540  0.1972
   20MOL   H46810006   0.100   2.353   5.916 -0.2546 -2.5361 -3.3677
   20MOL   H46910007   0.241   2.294   5.841  1.6707  0.5910 -1.5095
   20MOL   H47010008   0.397   2.450   5.965 -1.3315 -0.0412 -2.6511
   20MOL   H47110009   0.263   2.532   6.036 -1.7572 -0.9186  0.9741
   20MOL   H47210010   0.186   2.290   6.113 -0.6564  2.1913 -0.2257
   20MOL   H47310011   0.358   2.253   6.082  0.4768 -0.1446  1.0903
   20MOL   H47410012   0.446   2.411   6.242 -0.1334 -0.0729 -0.8415
   20MOL   H47510013   0.291   2.473   6.287  1.3881  1.4162 -0.0191
   20MOL   H47610014   0.347   2.318   6.329  0.6174 -0.2556 -0.2099
   20MOL   C47710015   0.216   2.587   5.372  0.7059 -0.4665 -0.1529
   20MOL   C47810016   0.229   2.733   5.390 -0.4490 -0.4969  0.2256
   20MOL   O47910017   0.326   2.781   5.294  1.0487  0.4177 -0.2793
   20MOL   C48010018   0.362   2.916   5.325 -0.6291  0.1903 -0.1866
   20MOL   C48110019   0.497   2.918   5.391  1.2264 -0.5605 -0.2835
   20MOL   C48210020   0.505   3.035   5.490  0.6559 -0.0510  0.6963
   20MOL   C48310021   0.642   3.046   5.567  0.0606 -0.0797 -0.3351
   20MOL   C48410022   0.624   3.172   5.664 -0.0805 -0.0504  0.0198
   20MOL   C48510023   0.742   3.213   5.747  0.5460  0.2612  0.7002
   20MOL   H48610024   0.305   2.544   5.418  2.4926  0.7640 -2.3573
   20MOL   H48710025   0.221   2.559   5.267  1.1843 -1.7256  0.1883
   20MOL   H48810026   0.133   2.785   5.384 -0.6406 -1.0375 -2.0954
   20MOL   H48910027   0.289   2.965   5.389 -0.6223  2.2787 -1.7230
   20MOL   H49010028   0.360   2.967   5.228 -1.3368  1.8992  0.7016
   20MOL   H49110029   0.573   2.923   5.313  0.7894 -0.0694 -0.6767
   20MOL   H49210030   0.515   2.823   5.443  0.4877  0.4761  1.9147
   20MOL   H49310031   0.498   3.128   5.434 -2.8154  0.3319  1.6699
   20MOL   H49410032   0.419   3.026   5.556 -1.7094  2.6300 -1.9037
   20MOL   H49510033   0.656   2.953   5.622  1.5668  0.6418  0.5366
   20MOL   H49610034   0.731   3.064   5.506  1.0339  0.1511  1.1320
   20MOL   H49710035   0.605   3.264   5.609  0.7363  0.4510  0.5703
   20MOL   H49810036   0.543   3.149   5.733 -0.9032  0.9939 -0.5845
   20MOL   H49910037   0.764   3.123   5.805 -1.5840  0.4663  1.8550
   20MOL   H50010038   0.824   3.240   5.680  0.8164 -3.7033 -0.6868
   20MOL   H50110039   0.709   3.288   5.819  2.0070  0.7425  0.8871
   20MOL   H50210040   0.265   2.748   5.491  0.1390 -1.9842  0.2569
   21MOL     C110041   6.119   3.054   4.015  0.5152  0.6405 -0.3005
   21MOL     C210042   6.149   3.050   4.170  0.9368 -0.9548  0.7193
   21MOL     O310043   6.287   3.051   4.190  0.0241 -0.2738  0.0332
   21MOL     C410044   6.347   3.171   4.212 -0.2875  0.6225 -0.1017
   21MOL     C510045   6.501   3.150   4.213  0.4676  0.2233 -0.2642
   21MOL     C610046   6.561   3.273   4.283 -0.2805 -0.3224 -0.0635
   21MOL     C710047   6.706   3.253   4.324 -0.2751  0.0457  0.0496
   21MOL     C810048   6.763   3.387   4.391 -0.6505  1.0955 -0.0834
   21MOL     C910049   6.884   3.351   4.472 -0.2471 -0.9517  0.2526
   21MOL    H1010050   6.011   3.048   4.002  0.5706  1.4353 -1.1710
   21MOL    H1110051   6.167   3.137   3.962  0.7556  0.8510  0.2356
   21MOL    H1210052   6.098   3.133   4.219  0.8238  1.1259 -2.7133
   21MOL    H1310053   6.310   3.222   4.301  1.0880  1.6730 -0.1082
   21MOL    H1410054   6.319   3.231   4.126  1.4419  2.1447  0.3569
   21MOL    H1510055   6.527   3.141   4.108  1.1730  2.6616 -0.3362
   21MOL    H1610056   6.533   3.061   4.267 -0.9490  0.0294  0.2747
   21MOL    H1710057   6.550   3.360   4.219 -0.8390 -1.4425 -1.5217
   21MOL    H1810058   6.502   3.301   4.371  1.2459  1.1140  0.5284
   21MOL    H1910059   6.724   3.165   4.386 -0.6921 -0.4210 -0.4888
   21MOL    H2010060   6.774   3.235   4.241  1.3978  0.1777  1.3647
   21MOL    H2110061   6.688   3.425   4.460 -1.7881 -0.1493 -0.6156
   21MOL    H2210062   6.776   3.457   4.308 -0.1085  1.0822 -0.0104
   21MOL    H2310063   6.949   3.316   4.393  0.4488 -0.0165  0.4124
   21MOL    H2410064   6.939   3.428   4.526  1.4185 -1.5952 -0.5050
   21MOL    H2510065   6.853   3.270   4.539  0.5076  0.6267  2.5460
   21MOL    H2610066   6.159   2.961   3.974  1.5371  1.3312 -0.8850
   21MOL    C2710067   6.099   2.924   4.242  0.9693 -0.0241 -0.0342
   21MOL    C2810068   6.132   2.906   4.391 -0.2354  0.0576  0.2714
   21MOL    O2910069   6.024   2.848   4.467  0.1785  0.1746  0.5328
   21MOL    C3010070   5.978   2.728   4.409 -0.0047 -0.1965  0.5351
   21MOL    C3110071   5.854   2.687   4.487 -0.2900 -0.3109  0.3343
   21MOL    C3210072   5.817   2.540   4.469  0.1906 -0.4415  0.2038
   21MOL    C3310073   5.694   2.493   4.542 -0.3564  0.5191  0.0190
   21MOL    C3410074   5.669   2.347   4.521  0.6951 -0.4338  0.1540
   21MOL    C3510075   5.534   2.279   4.559 -0.3751  0.1879  0.6776
   21MOL    H3610076   5.991   2.933   4.233  0.9650  0.1254  0.1840
   21MOL    H3710077   6.126   2.835   4.184 -1.2838 -2.6457  2.8025
   21MOL    H3810078   6.153   3.004   4.434 -2.3279  1.0704 -0.9152
   21MOL    H3910079   6.062   2.659   4.413 -1.1531 -1.5822  0.8277
   21MOL    H4010080   5.954   2.734   4.303 -4.8074  0.0119  1.5215
   21MOL    H4110081   5.773   2.756   4.464 -0.2841 -1.0963 -2.1750
   21MOL    H4210082   5.886   2.707   4.590  0.8912  2.1256 -0.4841
   21MOL    H4310083   5.809   2.516   4.363 -0.0686  0.7882 -0.0562
   21MOL    H4410084   5.898   2.481   4.511  1.1668  0.8748  0.2026
   21MOL    H4510085   5.698   2.508   4.649 -2.8391  1.2477  0.0517
   21MOL    H4610086   5.621   2.564   4.502 -1.2116 -0.9513 -1.1207
   21MOL    H4710087   5.680   2.333   4.413  0.3531  2.8484 -0.3679
   21MOL    H4810088   5.751   2.288   4.560  1.1859  0.2402  0.1535
   21MOL    H4910089   5.516   2.187   4.504  1.1442  0.8847 -1.0453
   21MOL    H5010090   5.549   2.246   4.662  0.1236 -3.8393 -0.6215
   21MOL    H5110091   5.444   2.340   4.563 -1.0967 -0.8314  0.0325
   21MOL    C5210092   6.260   2.816   4.404  0.1211  0.0779 -0.3271
   21MOL    C5310093   6.328   2.814   4.544  0.5677 -0.3638 -0.7257
   21MOL    O5410094   6.280   2.701   4.618 -0.3924 -0.2065  0.2124
   21MOL    C5510095   6.190   2.731   4.723  0.2410  0.4826 -0.3045
   21MOL    C5610096   6.178   2.605   4.806  0.6696  0.0027 -0.0149
   21MOL    C5710097   6.157   2.465   4.732  0.6589 -0.4849 -0.4697
   21MOL    C5810098   6.201   2.336   4.807  0.0155 -0.2617 -0.4420
   21MOL    C5910099   6.119   2.216   4.771 -0.2079  0.0323  0.1077
   21MOL    C6010100   6.165   2.098   4.865  0.0759 -0.3048  0.0597
   21MOL    H6110101   6.336   2.848   4.333  2.0256 -1.0124  1.1607
   21MOL    H6210102   6.248   2.712   4.373  1.5706 -0.4691  0.8647
   21MOL    H6310103   6.312   2.906   4.600  1.5394 -0.1994 -0.7037
   21MOL    H6410104   6.097   2.776   4.688 -0.3947 -0.3920  0.2442
   21MOL    H6510105   6.244   2.802   4.786  0.4089  1.2509 -1.2909
   21MOL    H6610106   6.111   2.613   4.891  0.8513 -1.4094  0.2717
   21MOL    H6710107   6.277   2.597   4.851  0.2963 -0.6506  0.7032
   21MOL    H6810108   6.052   2.446   4.707  0.2219  2.0511 -0.6790
   21MOL    H6910109   6.224   2.467   4.646 -0.2165 -1.5561 -1.1929
   21MOL    H7010110   6.309   2.328   4.790 -0.0817 -0.1755 -1.1206
   21MOL    H7110111   6.175   2.348   4.912  1.3300  0.2103 -0.1630
   21MOL    H7210112   6.013   2.240   4.780 -0.8795 -2.5789 -0.4898
   21MOL    H7310113   6.151   2.203   4.668 -1.2592 -1.0733 -0.0809
   21MOL    H7410114   6.111   2.005   4.844  3.4423 -2.1377 -0.8060
   21MOL    H7510115   6.274   2.095   4.862  0.0667  0.0691 -0.9161
   21MOL    H7610116   6.138   2.106   4.970 -0.1697 -0.8104  0.0368
   21MOL    C7710117   6.486   2.808   4.540 -0.6847  0.0523 -0.3736
   21MOL    C7810118   6.547   2.826   4.680  0.9569  0.2276 -0.2795
   21MOL    O7910119   6.551   2.966   4.692 -0.5287 -0.0588  0.3102
   21MOL    C8010120   6.551   3.016   4.828  0.8014  0.1379  0.2287
   21MOL    C8110121   6.624   3.148   4.838  0.1090  0.5715  0.1186
   21MOL    C8210122   6.548   3.263   4.770  0.2464 -0.2666 -0.6080
   21MOL    C8310123   6.601   3.409   4.788 -0.6101 -0.1305  0.2126
   21MOL    C8410124   6.497   3.505   4.725  0.1368 -0.0107  0.7653
   21MOL    C8510125   6.561   3.643   4.714 -0.1244  0.5466 -0.1768
   21MOL    H8610126   6.519   2.884   4.470  1.0270 -0.3584 -0.0393
   21MOL    H8710127   6.513   2.712   4.496 -1.0151  0.1095 -0.6969
   21MOL    H8810128   6.479   2.785   4.754  0.9060 -1.8268 -1.4354
   21MOL    H8910129   6.588   2.942   4.899  0.7468 -0.5058 -0.4112
   21MOL    H9010130   6.445   3.037   4.842  1.2900  2.7012  0.3274
   21MOL    H9110131   6.720   3.139   4.786 -1.1250 -1.4595 -1.9012
   21MOL    H9210132   6.626   3.176   4.944  0.9665  0.8478  0.0315
   21MOL    H9310133   6.539   3.238   4.664  1.0394  0.1069 -0.7712
   21MOL    H9410134   6.444   3.261   4.801  0.5981 -1.1798  0.5452
   21MOL    H9510135   6.615   3.428   4.895 -2.6362  1.0541  0.2869
   21MOL    H9610136   6.699   3.428   4.744 -1.8577  0.9124 -2.1875
   21MOL    H9710137   6.486   3.465   4.624 -0.5265 -0.6120  1.0769
   21MOL    H9810138   6.397   3.506   4.767 -0.6249 -0.2136 -1.0305
   21MOL    H9910139   6.589   3.671   4.816  2.2855 -1.8264 -0.0962
   21MOL   H10010140   6.662   3.648   4.672 -0.0354  1.7323  0.1592
   21MOL   H10110141   6.502   3.719   4.663  1.5834  2.7847  1.0534
   21MOL   C10210142   6.693   2.779   4.703 -0.0036 -0.4125 -0.0306
   21MOL   C10310143   6.718   2.628   4.725 -0.8992  0.4663 -0.2472
   21MOL   O10410144   6.859   2.617   4.747 -0.1689 -0.0257 -0.3147
   21MOL   C10510145   6.941   2.547   4.652 -0.5010  0.6236  0.4574
   21MOL   C10610146   7.086   2.520   4.721 -0.1912  0.6821 -0.0482
   21MOL   C10710147   7.192   2.489   4.612 -0.0748  0.3923  0.2232
   21MOL   C10810148   7.232   2.605   4.521  0.3395 -0.0694 -0.2894
   21MOL   C10910149   7.337   2.565   4.417 -0.1383  0.2318  0.0685
   21MOL   C11010150   7.391   2.676   4.320  0.8903  0.0839 -0.2097
   21MOL   H11110151   6.742   2.819   4.614 -1.2206 -1.3528 -1.1438
   21MOL   H11210152   6.737   2.834   4.786 -0.5890  1.5857 -0.9995
   21MOL   H11310153   6.684   2.579   4.633  1.5077 -3.7608  0.9919
   21MOL   H11410154   6.951   2.606   4.561 -0.2446  0.1851  0.1995
   21MOL   H11510155   6.881   2.460   4.623 -0.7067  1.2704 -1.0879
   21MOL   H11610156   7.070   2.442   4.795  2.2537 -1.4618 -1.7149
   21MOL   H11710157   7.123   2.603   4.780 -0.4518 -0.6787  2.0714
   21MOL   H11810158   7.279   2.444   4.660  0.4535  0.3742 -0.7397
   21MOL   H11910159   7.151   2.413   4.546  0.8997 -0.6491  0.7887
   21MOL   H12010160   7.148   2.655   4.475  0.4975  0.8558  0.4029
   21MOL   H12110161   7.277   2.681   4.585 -0.9691 -1.5472  2.4631
   21MOL   H12210162   7.415   2.521   4.481 -1.8868 -1.8462  0.8485
   21MOL   H12310163   7.303   2.488   4.348  0.1511 -1.9302  2.2578
   21MOL   H12410164   7.329   2.756   4.280  0.3480  0.3988  1.2235
   21MOL   H12510165   7.458   2.740   4.377 -2.1949  0.9134  2.6327
   21MOL   H12610166   7.428   2.637   4.226  2.5767  2.0931 -0.4153
   21MOL   C12710167   6.648   2.571   4.851  0.5430  0.1285 -0.1289
   21MOL   C12810168   6.636   2.411   4.849 -0.0448  0.2866  0.1650
   21MOL   O12910169   6.559   2.374   4.732  0.0785 -0.0266  0.1797
   21MOL   C13010170   6.606   2.258   4.666 -0.2527  1.2004  0.8290
   21MOL   C13110171   6.506   2.194   4.574  0.0541 -0.7301  0.2145
   21MOL   C13210172   6.450   2.295   4.470  0.0686 -0.1324 -0.1197
   21MOL   C13310173   6.359   2.217   4.385  0.0559 -0.5296  0.6863
   21MOL   C13410174   6.287   2.300   4.281  0.1022 -0.8194  0.1751
   21MOL   C13510175   6.182   2.392   4.346 -0.2341 -0.1832 -0.3114
   21MOL   H13610176   6.709   2.590   4.940 -1.8880  4.3018  0.8160
   21MOL   H13710177   6.548   2.614   4.863  0.3734  0.8699 -3.6040
   21MOL   H13810178   6.734   2.369   4.829  0.1563  1.5177 -1.4801
   21MOL   H13910179   6.621   2.183   4.743 -0.4397  0.0899 -0.1994
   21MOL   H14010180   6.697   2.286   4.613 -0.1221 -2.0614 -0.7918
   21MOL   H14110181   6.420   2.160   4.632  0.0689 -2.4887 -0.7621
   21MOL   H14210182   6.538   2.095   4.540 -2.4179 -1.2645 -0.6943
   21MOL   H14310183   6.385   2.366   4.521  1.1668  1.5212 -0.9703
   21MOL   H14410184   6.523   2.358   4.419 -1.3407  2.8689  1.4576
   21MOL   H14510185   6.416   2.143   4.329  2.6798  1.0403  1.1911
   21MOL   H14610186   6.292   2.157   4.447 -0.3318  0.3226  1.0996
   21MOL   H14710187   6.364   2.362   4.236 -1.3493  2.2390  1.7694
   21MOL   H14810188   6.248   2.237   4.201 -0.7368  0.7120 -0.6333
   21MOL   H14910189   6.218   2.486   4.387 -1.0224  0.8149 -1.8404
   21MOL   H15010190   6.107   2.426   4.275  2.5867  1.9468 -2.4004
   21MOL   H15110191   6.135   2.341   4.430  2.8728  1.7772  2.7380
   21MOL   C15210192   6.553   2.367   4.966  0.1064 -0.1398  0.4136
   21MOL   C15310193   6.624   2.369   5.101  0.7701  0.1297 -0.0330
   21MOL   O15410194   6.521   2.355   5.194 -0.0044 -0.0190  0.2323
   21MOL   C15510195   6.498   2.468   5.280 -0.7318 -1.0563  0.6136
   21MOL   C15610196   6.377   2.436   5.365 -0.3936  0.4616  0.3192
   21MOL   C15710197   6.240   2.423   5.293 -0.5154  0.3972 -0.3245
   21MOL   C15810198   6.101   2.433   5.374 -0.3024  0.4854 -0.3119
   21MOL   C15910199   5.969   2.388   5.299 -0.1201 -0.6142  0.0701
   21MOL   C16010200   5.972   2.241   5.258 -0.4247  0.6512  0.3358
   21MOL   H16110201   6.473   2.440   4.965  0.7027  0.5131 -1.4984
   21MOL   H16210202   6.506   2.270   4.947 -2.2235  0.8365  1.1175
   21MOL   H16310203   6.692   2.452   5.120 -0.6879  1.3427 -0.0101
   21MOL   H16410204   6.484   2.554   5.215 -0.7046 -1.2164  0.3929
   21MOL   H16510205   6.589   2.487   5.338 -0.6860  1.8409 -0.3317
   21MOL   H16610206   6.362   2.516   5.437 -1.7325  0.3035  0.2251
   21MOL   H16710207   6.393   2.350   5.431  3.5443  0.9393  0.1024
   21MOL   H16810208   6.228   2.508   5.227 -2.4801  1.1548  0.9857
   21MOL   H16910209   6.244   2.330   5.236 -0.2195 -0.1186  0.5289
   21MOL   H17010210   6.110   2.364   5.458  0.8524  0.6683 -0.2757
   21MOL   H17110211   6.090   2.535   5.410  4.1389  0.3767  1.8033
   21MOL   H17210212   5.884   2.405   5.364  0.2977 -2.3030  1.0902
   21MOL   H17310213   5.961   2.458   5.216 -0.7183 -1.2788 -0.4298
   21MOL   H17410214   5.886   2.221   5.195 -0.0654 -0.0384  0.0611
   21MOL   H17510215   6.058   2.216   5.196 -0.3495  1.9233 -0.0861
   21MOL   H17610216   5.967   2.183   5.350 -0.7838 -0.4641 -0.3810
   21MOL   C17710217   6.712   2.241   5.127 -0.0023  0.0961  0.4497
   21MOL   C17810218   6.757   2.223   5.275 -0.4865  0.4525  0.3742
   21MOL   O17910219   6.806   2.089   5.286  0.1135 -0.0640 -0.1380
   21MOL   C18010220   6.703   1.998   5.320  0.1966 -0.0170  0.7947
   21MOL   C18110221   6.758   1.861   5.344 -0.4655  0.2597 -0.2536
   21MOL   C18210222   6.653   1.758   5.389  0.6970  0.4828 -0.2600
   21MOL   C18310223   6.713   1.618   5.397  0.2825  0.5521 -0.0690
   21MOL   C18410224   6.626   1.515   5.472  0.2843  0.1166  0.2602
   21MOL   C18510225   6.708   1.390   5.482 -0.1741 -0.3243  0.6673
   21MOL   H18610226   6.658   2.151   5.099  2.7648 -1.7911  1.0177
   21MOL   H18710227   6.797   2.230   5.060 -1.8577 -1.1028 -1.7588
   21MOL   H18810228   6.672   2.255   5.336  0.1995  1.7476  0.6847
   21MOL   H18910229   6.632   2.000   5.237  1.1715 -0.2307 -0.0580
   21MOL   H19010230   6.661   2.032   5.414 -0.6226 -1.0190  0.7962
   21MOL   H19110231   6.834   1.874   5.421  1.1260 -0.5866 -1.6351
   21MOL   H19210232   6.803   1.834   5.248  0.9788 -0.1154  0.4998
   21MOL   H19310233   6.602   1.782   5.482  0.9891  1.7521 -0.4070
   21MOL   H19410234   6.573   1.756   5.315 -0.9361  2.2961  1.4220
   21MOL   H19510235   6.738   1.589   5.294  1.7801 -0.5464  0.5868
   21MOL   H19610236   6.809   1.631   5.448 -0.0998  2.0629  0.3054
   21MOL   H19710237   6.622   1.548   5.576  1.0723 -0.0323  0.3458
   21MOL   H19810238   6.526   1.510   5.430  0.0188  1.6928  0.6943
   21MOL   H19910239   6.715   1.334   5.389 -0.6864  0.7026  0.0091
   21MOL   H20010240   6.809   1.401   5.524 -0.5291 -0.1222  1.4859
   21MOL   H20110241   6.664   1.312   5.544 -1.7739  1.0476  1.2829
   21MOL   C20210242   6.876   2.310   5.320  0.2316  0.5718 -0.4330
   21MOL   C20310243   6.921   2.283   5.466 -0.3484  0.2024 -0.2316
   21MOL   O20410244   6.817   2.327   5.556 -0.4635 -0.0172 -0.0941
   21MOL   C20510245   6.804   2.234   5.658 -0.0287 -0.1347  0.0237
   21MOL   C20610246   6.667   2.254   5.716 -0.1027  0.6654 -0.5896
   21MOL   C20710247   6.629   2.148   5.811 -0.4735 -0.1125 -0.4841
   21MOL   C20810248   6.481   2.159   5.850  0.3468 -0.6315  0.4753
   21MOL   C20910249   6.435   2.050   5.940 -0.9881 -0.0672 -0.7010
   21MOL   C21010250   6.293   2.068   5.994 -0.1577  0.0836  0.0448
   21MOL   H21110251   6.955   2.286   5.248  0.9060  0.9394  0.1792
   21MOL   H21210252   6.841   2.412   5.307  0.3275  0.6352 -0.1834
   21MOL   H21310253   6.948   2.178   5.475  1.6941  0.7842  0.7393
   21MOL   H21410254   6.878   2.239   5.738  0.1279  3.3453 -0.2792
   21MOL   H21510255   6.800   2.130   5.623  0.9296 -0.4377  0.8025
   21MOL   H21610256   6.595   2.249   5.635 -0.2123 -0.2635 -0.4448
   21MOL   H21710257   6.653   2.360   5.736 -2.1392  0.0379  1.5179
   21MOL   H21810258   6.632   2.053   5.757 -3.3269  0.0408 -1.0114
   21MOL   H21910259   6.682   2.149   5.906 -2.3337  1.5752  0.5863
   21MOL   H22010260   6.463   2.254   5.899 -1.5051  0.2416 -1.8107
   21MOL   H22110261   6.421   2.161   5.759  1.2114  1.2399 -0.0805
   21MOL   H22210262   6.455   1.951   5.899 -0.9212 -0.5978  0.5989
   21MOL   H22310263   6.493   2.060   6.031 -0.9177  1.2740 -0.8865
   21MOL   H22410264   6.278   2.163   6.045  3.5036  0.6531  0.1468
   21MOL   H22510265   6.226   2.065   5.908  0.8070  1.3551 -0.7635
   21MOL   H22610266   6.254   1.982   6.048 -1.0565 -0.0489 -0.7980
   21MOL   C22710267   7.055   2.363   5.485  0.3038  0.4007 -0.1613
   21MOL   C22810268   7.130   2.327   5.615 -0.0372 -0.5700 -0.0086
   21MOL   O22910269   7.149   2.185   5.610 -0.1678 -0.3638 -0.0919
   21MOL   C23010270   7.176   2.125   5.734  0.0013 -0.1032  0.4094
   21MOL   C23110271   7.152   1.970   5.728 -0.2162  0.2902 -0.5240
   21MOL   C23210272   7.002   1.920   5.728 -0.1679 -0.2164 -0.5675
   21MOL   C23310273   6.988   1.773   5.721 -0.2494 -0.0615 -0.1059
   21MOL   C23410274   6.846   1.731   5.707  0.0876 -0.2533  0.1594
   21MOL   C23510275   6.751   1.739   5.824  0.3841 -0.0096 -0.0579
   21MOL   H23610276   7.116   2.334   5.399 -2.3589 -0.0926 -1.9314
   21MOL   H23710277   7.043   2.471   5.477 -1.1649  0.2175 -0.5990
   21MOL   H23810278   7.077   2.349   5.707  1.1754 -0.6832  0.7351
   21MOL   H23910279   7.117   2.170   5.814  0.0545  0.1311  0.3165
   21MOL   H24010280   7.280   2.141   5.762  0.2950 -1.0139 -0.1609
   21MOL   H24110281   7.191   1.928   5.820 -1.3479  1.9209  0.7180
   21MOL   H24210282   7.208   1.918   5.650 -0.2055  0.1377 -0.4151
   21MOL   H24310283   6.958   1.976   5.811 -1.0167  0.5229 -1.5054
   21MOL   H24410284   6.975   1.961   5.631  0.9550 -0.2371 -0.9048
   21MOL   H24510285   7.054   1.737   5.642  0.9607  1.8034  0.0155
   21MOL   H24610286   7.033   1.719   5.804  0.1816  0.7134  0.1765
   21MOL   H24710287   6.792   1.790   5.634 -4.1600 -0.5780  2.8654
   21MOL   H24810288   6.845   1.628   5.673 -0.2989 -0.0382 -0.4718
   21MOL   H24910289   6.650   1.714   5.793  0.9683 -3.1285  0.4776
   21MOL   H25010290   6.781   1.663   5.895 -2.9752 -1.2763  0.0598
   21MOL   H25110291   6.738   1.829   5.884  1.2100  0.2786 -0.2970
   21MOL   C25210292   7.260   2.407   5.629  0.4920  0.5044  0.4168
   21MOL   C25310293   7.259   2.503   5.754  0.0328 -0.3224 -0.2299
   21MOL   O25410294   7.182   2.619   5.740 -0.3594  0.0150  0.4106
   21MOL   C25510295   7.037   2.608   5.758  0.4271 -0.4584  0.0148
   21MOL   C25610296   6.979   2.742   5.815 -0.4750  0.2511 -0.0455
   21MOL   C25710297   7.061   2.788   5.938 -0.3271 -0.5058 -0.2353
   21MOL   C25810298   7.019   2.919   5.998 -0.6349 -0.3496  0.1023
   21MOL   C25910299   7.087   2.945   6.130 -0.4846 -1.3347 -0.4310
   21MOL   C26010300   7.123   3.098   6.141  0.1375 -0.4590 -0.1664
   21MOL   H26110301   7.337   2.331   5.636  1.3192  1.1934 -0.8772
   21MOL   H26210302   7.290   2.465   5.541 -0.8166  0.3565 -0.1372
   21MOL   H26310303   7.223   2.450   5.842  1.3987  0.5671  0.8829
   21MOL   H26410304   7.020   2.522   5.823 -1.1360  0.2781  0.5896
   21MOL   H26510305   6.999   2.571   5.662  1.6600 -1.5914 -0.0565
   21MOL   H26610306   6.871   2.748   5.832 -0.5970  0.1928 -0.7956
   21MOL   H26710307   6.995   2.804   5.727 -0.1948 -1.1560 -0.9928
   21MOL   H26810308   7.054   2.717   6.021  2.7989  0.4438  0.9204
   21MOL   H26910309   7.162   2.809   5.902  0.7281 -1.5225  2.0385
   21MOL   H27010310   7.044   2.994   5.923  1.4562 -1.2895 -0.1809
   21MOL   H27110311   6.911   2.923   6.001 -0.6323  0.4572 -0.5932
   21MOL   H27210312   7.025   2.911   6.213 -0.1954 -0.4698  0.1463
   21MOL   H27310313   7.183   2.895   6.144 -0.7139 -1.8593 -0.7295
   21MOL   H27410314   7.148   3.120   6.244 -1.0415 -2.8127  0.6496
   21MOL   H27510315   7.201   3.118   6.068  1.0802 -1.1958  0.6386
   21MOL   H27610316   7.030   3.155   6.131  0.6429  0.6981  1.5940
   21MOL   C27710317   7.399   2.552   5.789  0.4682 -0.2254  0.1471
   21MOL   C27810318   7.416   2.617   5.917  0.4659 -0.3434 -0.7526
   21MOL   O27910319   7.382   2.521   6.017  0.4507  0.0124 -0.2701
   21MOL   C28010320   7.352   2.587   6.141 -0.0315 -0.5207  0.1782
   21MOL   C28110321   7.270   2.488   6.230 -0.4307 -0.0216  0.3177
   21MOL   C28210322   7.130   2.473   6.161 -0.6143 -0.5986  0.1271
   21MOL   C28310323   7.060   2.339   6.185 -0.2337  0.2618 -0.2183
   21MOL   C28410324   6.992   2.279   6.067  0.0863  0.3702  0.1761
   21MOL   C28510325   6.923   2.151   6.118  0.0221 -0.5514 -0.6304
   21MOL   H28610326   7.477   2.476   5.794  1.7364  0.9889 -0.8113
   21MOL   H28710327   7.440   2.608   5.705  1.9949  1.5912  2.0548
   21MOL   H28810328   7.352   2.705   5.922 -3.5711 -3.1135 -1.9416
   21MOL   H28910329   7.313   2.689   6.140 -0.0467 -0.5138 -2.3479
   21MOL   H29010330   7.444   2.600   6.197 -0.3048  1.5975  0.1941
   21MOL   H29110331   7.254   2.531   6.329  1.6645  2.1289 -0.2274
   21MOL   H29210332   7.321   2.392   6.226 -0.7653 -0.1745 -0.4999
   21MOL   H29310333   7.068   2.546   6.212  0.0385  1.2687 -1.6963
   21MOL   H29410334   7.127   2.498   6.055  0.2280 -0.0761  0.2202
   21MOL   H29510335   7.126   2.261   6.221 -0.7119  0.0581  0.2142
   21MOL   H29610336   6.996   2.356   6.271  0.0558 -0.1257  0.0775
   21MOL   H29710337   6.927   2.349   6.015 -0.4686 -0.8717 -0.8511
   21MOL   H29810338   7.071   2.257   5.995 -1.7919  0.0321 -1.8657
   21MOL   H29910339   6.900   2.083   6.036  0.8576 -0.9578 -0.5309
   21MOL   H30010340   6.990   2.088   6.177 -1.3765  0.5563  2.2278
   21MOL   H30110341   6.834   2.166   6.179  1.4986  1.0448  1.1976
   21MOL   C30210342   7.564   2.662   5.925 -0.0482 -1.0415 -0.4415
   21MOL   C30310343   7.599   2.787   6.006 -0.1201 -0.2742 -0.1687
   21MOL   O30410344   7.602   2.898   5.923  0.4298  0.2327  0.0098
   21MOL   C30510345   7.477   2.953   5.881  0.6638 -0.1928  0.0504
   21MOL   C30610346   7.501   3.090   5.830  0.3882  0.2792 -0.0969
   21MOL   C30710347   7.575   3.193   5.915 -0.2965 -0.5339 -0.0322
   21MOL   C30810348   7.549   3.334   5.847  0.4607  0.2113  0.0335
   21MOL   C30910349   7.627   3.446   5.916 -0.1610  0.1431 -0.3643
   21MOL   C31010350   7.594   3.589   5.875 -0.2688 -0.0244 -0.0898
   21MOL   H31110351   7.616   2.576   5.969 -1.4436 -0.3258  2.7722
   21MOL   H31210352   7.607   2.669   5.825  0.3178 -0.7526 -0.2611
   21MOL   H31310353   7.515   2.801   6.074  0.4259 -2.2420  0.9405
   21MOL   H31410354   7.408   2.948   5.965  0.7931 -0.1309  0.1621
   21MOL   H31510355   7.429   2.897   5.801 -0.2038 -0.8747  1.0443
   21MOL   H31610356   7.399   3.128   5.818 -0.7572 -2.2445  1.2543
   21MOL   H31710357   7.552   3.086   5.734  0.3729 -0.4488 -0.0769
   21MOL   H31810358   7.533   3.201   6.016 -0.0398  0.5821 -0.0103
   21MOL   H31910359   7.675   3.164   5.949  1.3777  2.8815 -1.8321
   21MOL   H32010360   7.601   3.323   5.752  2.9723  0.3862  1.3431
   21MOL   H32110361   7.444   3.361   5.836  0.1208 -1.0164  0.2452
   21MOL   H32210362   7.586   3.433   6.016 -0.9971 -0.5922 -0.7909
   21MOL   H32310363   7.734   3.429   5.914  0.2436  2.5284  0.1933
   21MOL   H32410364   7.647   3.604   5.781  1.2270  0.7367  0.8529
   21MOL   H32510365   7.488   3.593   5.852 -0.1321  1.3626 -0.5025
   21MOL   H32610366   7.622   3.668   5.944  0.5178  0.7866 -1.3114
   21MOL   C32710367   7.737   2.779   6.073 -0.5249  0.4627 -0.2471
   21MOL   C32810368   7.761   2.688   6.195  0.0808  0.9179  0.5145
   21MOL   O32910369   0.125   2.683   6.222  0.4175  0.6191  0.7392
   21MOL   C33010370   0.201   2.799   6.235 -0.8380 -0.6294  0.1310
   21MOL   C33110371   0.327   2.762   6.322  0.1297  0.3088 -0.5714
   21MOL   C33210372   0.293   2.740   6.469 -0.5457 -0.0877  0.8394
   21MOL   C33310373   0.418   2.722   6.549 -0.2620  0.0078 -0.9742
   21MOL   C33410374   0.391   2.684   6.697  0.1885 -0.1041  0.1034
   21MOL   C33510375   0.505   2.623   6.768  0.1205 -0.0046 -0.3010
   21MOL   H33610376   7.752   2.882   6.107 -4.6123  0.7326  1.0180
   21MOL   H33710377   0.033   2.747   6.000  0.3703  1.0302  0.4086
   21MOL   H33810378   7.728   2.586   6.179  0.8631  0.6273  0.7087
   21MOL   H33910379   0.152   2.875   6.297 -1.8074 -0.8304 -0.3690
   21MOL   H34010380   0.226   2.839   6.137 -0.4900  1.0829  0.9025
   21MOL   H34110381   0.399   2.844   6.319  2.9523 -2.0226  1.0491
   21MOL   H34210382   0.368   2.668   6.284 -0.2802  0.1468 -0.6080
   21MOL   H34310383   0.243   2.830   6.503 -0.6100  0.5017 -0.7532
   21MOL   H34410384   0.230   2.651   6.480  1.2729 -1.9281 -2.6836
   21MOL   H34510385   0.464   2.629   6.513 -0.1138  0.0991 -1.0205
   21MOL   H34610386   0.479   2.812   6.542 -0.3866  0.1347 -0.4125
   21MOL   H34710387   0.384   2.781   6.744  1.7411  0.3486 -0.5682
   21MOL   H34810388   0.301   2.624   6.709 -0.0308  0.5105  1.5714
   21MOL   H34910389   0.582   2.700   6.770  0.3771 -0.2470 -0.8443
   21MOL   H35010390   0.476   2.616   6.873  2.5243 -3.5582  0.2194
   21MOL   H35110391   0.530   2.525   6.728 -2.9789 -1.5228  1.3265
   21MOL   C35210392   7.682   2.726   6.324 -0.1597 -0.0248  0.3525
   21MOL   C35310393   7.689   2.608   6.426 -0.2375  0.0723 -0.2746
   21MOL   O35410394   7.619   2.494   6.380  0.1530  0.6172  0.6790
   21MOL   C35510395   7.697   2.374   6.372  0.1024 -0.2969  0.4542
   21MOL   C35610396   7.633   2.237   6.385  0.2478 -1.4034  0.4195
   21MOL   C35710397   7.554   2.187   6.265 -0.0682 -0.5896  0.1859
   21MOL   C35810398   7.460   2.065   6.291 -0.5356 -0.5363  0.2411
   21MOL   C35910399   7.376   2.018   6.169  0.1620  0.1852  0.9801
   21MOL   C36010400   7.253   1.936   6.196  0.0481 -0.1068 -0.1653
   21MOL   H36110401   7.725   2.813   6.373  0.2343  1.8350 -3.1436
   21MOL   H36210402   7.577   2.744   6.299 -0.1417 -0.6017 -0.1320
   21MOL   H36310403   0.018   2.592   6.435 -0.2223 -0.7031 -1.6066
   21MOL   H36410404   7.759   2.371   6.461  0.0305 -2.6676  0.4704
   21MOL   H36510405   7.764   2.377   6.286  1.7850 -1.6793  1.7005
   21MOL   H36610406   7.576   2.246   6.478 -0.9007  0.0182 -0.4002
   21MOL   H36710407   7.707   2.160   6.405  0.6976 -1.2153 -0.5071
   21MOL   H36810408   7.490   2.269   6.231  1.2321  0.3617  0.0052
   21MOL   H36910409   7.623   2.170   6.183  0.6990  1.7453  0.3007
   21MOL   H37010410   7.516   1.984   6.338  2.9893  2.0467  0.7120
   21MOL   H37110411   7.402   2.085   6.381 -0.9510 -0.9882  0.0781
   21MOL   H37210412   7.344   2.099   6.105  1.3105  0.8516  1.2355
   21MOL   H37310413   7.442   1.951   6.113 -0.0632  0.9421 -0.1933
   21MOL   H37410414   7.210   1.880   6.113 -0.8846 -0.0677  0.2816
   21MOL   H37510415   7.274   1.853   6.263 -0.2881  0.4225  0.6049
   21MOL   H37610416   7.177   2.006   6.231 -0.7995 -1.6355  1.0960
   21MOL   C37710417   7.628   2.638   6.561 -0.1159 -0.1503 -0.1458
   21MOL   C37810418   7.497   2.723   6.570  0.2509 -0.7863  0.6684
   21MOL   O37910419   7.526   2.858   6.535 -0.4327 -0.1242  0.3503
   21MOL   C38010420   7.418   2.929   6.474 -0.6972 -0.0592 -0.3173
   21MOL   C38110421   7.449   3.086   6.457  0.1856  0.0696 -0.0169
   21MOL   C38210422   7.573   3.109   6.372  0.0203 -0.6150  0.3343
   21MOL   C38310423   7.619   3.251   6.355  0.1603  1.0801  0.1144
   21MOL   C38410424   7.737   3.270   6.260 -1.0978 -0.4010 -0.6261
   21MOL   C38510425   7.766   3.420   6.262  0.7280 -0.2981  0.4601
   21MOL   H38610426   7.617   2.541   6.609 -0.3763  0.2830  0.6844
   21MOL   H38710427   7.706   2.686   6.621 -0.1140 -0.5175  0.1548
   21MOL   H38810428   7.432   2.685   6.491  0.3776 -0.3648  0.3652
   21MOL   H38910429   7.332   2.922   6.541 -0.1071  0.1850  0.4765
   21MOL   H39010430   7.375   2.882   6.386  3.3214 -3.0027 -0.8649
   21MOL   H39110431   7.451   3.139   6.553 -1.5623  1.4480 -0.7118
   21MOL   H39210432   7.359   3.130   6.414 -1.3014 -3.2548 -0.4597
   21MOL   H39310433   7.661   3.056   6.407  0.5899 -0.4346 -0.8107
   21MOL   H39410434   7.553   3.063   6.276 -0.9169  0.9719 -0.2616
   21MOL   H39510435   7.536   3.315   6.324 -1.1923 -0.4715  0.4897
   21MOL   H39610436   7.647   3.297   6.450  1.9380  0.5227 -0.1218
   21MOL   H39710437   0.045   3.222   6.306 -1.2082 -0.0626 -0.0594
   21MOL   H39810438   7.702   3.231   6.165 -2.7363  0.6728 -0.4794
   21MOL   H39910439   7.777   3.474   6.357 -2.2475 -0.5080  0.9681
   21MOL   H40010440   0.076   3.428   6.199  0.1745  0.1892 -0.2510
   21MOL   H40110441   7.687   3.475   6.213  0.5807  0.5531  1.6182
   21MOL   C40210442   7.431   2.718   6.713 -0.3171 -0.2587  0.0831
   21MOL   C40310443   7.390   2.586   6.779  0.4298  0.9397  1.0134
   21MOL   O40410444   7.291   2.528   6.696  0.3238 -0.1603 -0.1584
   21MOL   C40510445   7.333   2.412   6.629 -0.3076 -0.0543 -0.1382
   21MOL   C40610446   7.212   2.359   6.564 -0.6065  0.6153 -0.8282
   21MOL   C40710447   7.111   2.281   6.648  1.0879 -0.5831 -0.0279
   21MOL   C40810448   6.999   2.220   6.561 -0.3403 -0.1370 -0.2224
   21MOL   C40910449   6.903   2.139   6.638  0.6003 -0.7482 -0.4437
   21MOL   C41010450   6.779   2.083   6.569 -0.3344 -0.5788 -0.3614
   21MOL   H41110451   7.342   2.779   6.716 -0.2788 -0.1764 -0.3733
   21MOL   H41210452   7.517   2.758   6.766 -0.6597 -1.2141  1.3740
   21MOL   H41310453   7.472   2.516   6.797 -1.4325 -1.6697 -0.3800
   21MOL   H41410454   7.392   2.348   6.695  1.9420  2.7909  0.7482
   21MOL   H41510455   7.404   2.443   6.551  1.2865 -0.2261  1.2185
   21MOL   H41610456   7.233   2.285   6.487  0.4818 -0.6842  0.6968
   21MOL   H41710457   7.150   2.433   6.513 -1.8616  0.0313 -0.2009
   21MOL   H41810458   7.172   2.200   6.690  1.0214 -0.0410  1.1429
   21MOL   H41910459   7.068   2.334   6.733  2.1576 -0.2704  0.3380
   21MOL   H42010460   6.944   2.299   6.510 -0.8614 -0.4680 -0.1877
   21MOL   H42110461   7.036   2.152   6.484  2.6240 -0.1844  1.1713
   21MOL   H42210462   6.946   2.049   6.683  2.1386 -0.7884 -1.9338
   21MOL   H42310463   6.868   2.199   6.721  0.5190 -0.4303 -0.7086
   21MOL   H42410464   6.720   2.047   6.654 -0.6832  1.0123  0.0935
   21MOL   H42510465   6.725   2.167   6.527 -0.9495 -2.3568 -3.2569
   21MOL   H42610466   6.785   2.005   6.493  0.9721 -0.1907 -0.6700
   21MOL   C42710467   7.322   2.604   6.914 -0.0552  0.0131 -0.1943
   21MOL   C42810468   7.297   2.472   6.994  0.5962  0.0659  0.5010
   21MOL   O42910469   7.424   2.431   7.038 -0.1406  0.0205  0.1472
   21MOL   C43010470   7.438   2.289   7.046  0.6768 -0.1945  0.1142
   21MOL   C43110471   7.579   2.263   7.093 -0.3567  0.3651  0.1665
   21MOL   C43210472   7.614   2.112   7.100  0.1201  0.2247 -0.3458
   21MOL   C43310473   7.542   2.033   7.214 -0.1593 -0.3693 -0.2597
   21MOL   C43410474   7.596   1.894   7.221 -0.6168  0.6646 -0.1151
   21MOL   C43510475   7.596   1.816   7.094  0.3829  0.3773  0.6738
   21MOL   H43610476   7.376   2.674   6.977 -0.5968  0.2983 -0.0403
   21MOL   H43710477   7.226   2.654   6.901  1.2542  2.7781  0.5202
   21MOL   H43810478   7.260   2.404   6.917 -0.8993 -1.3705  2.4267
   21MOL   H43910479   7.428   2.257   6.942 -1.9907  0.7218  0.0351
   21MOL   H44010480   7.360   2.236   7.101 -0.6980  0.1924 -1.3821
   21MOL   H44110481   7.578   2.310   7.192  1.8278  1.5373 -0.3538
   21MOL   H44210482   7.643   2.320   7.027 -0.1360  1.6379  1.4579
   21MOL   H44310483   7.588   2.071   7.002 -2.1853 -0.7482  0.6451
   21MOL   H44410484   7.720   2.096   7.121 -1.1279 -4.1349  3.2954
   21MOL   H44510485   7.561   2.070   7.315  0.2084  2.4731 -1.3202
   21MOL   H44610486   7.434   2.019   7.204 -0.2492 -0.2916  0.5505
   21MOL   H44710487   7.693   1.894   7.269 -0.1231  2.5017 -1.0738
   21MOL   H44810488   7.551   1.839   7.304 -0.8089  0.6577 -0.2232
   21MOL   H44910489   7.676   1.834   7.023  0.8193 -0.5478  0.9369
   21MOL   H45010490   7.599   1.709   7.113  3.3560  0.5673  1.5334
   21MOL   H45110491   7.501   1.833   7.042  1.2160 -0.3305 -1.0858
   21MOL   C45210492   7.205   2.475   7.112 -0.1420  0.3895  1.2420
   21MOL   C45310493   7.056   2.442   7.069  0.2867  0.0855  0.4854
   21MOL   O45410494   7.018   2.549   6.983 -0.2067 -0.1979  0.0850
   21MOL   C45510495   6.889   2.538   6.915  0.7673  0.2820 -0.0172
   21MOL   C45610496   6.875   2.672   6.856 -0.4614  0.7491 -0.3290
   21MOL   C45710497   6.925   2.666   6.710  0.2931 -0.6614  0.0111
   21MOL   C45810498   6.889   2.799   6.634 -0.3579 -0.2333  0.1191
   21MOL   C45910499   6.943   2.804   6.491  0.0472 -0.0648  1.0871
   21MOL   C46010500   6.878   2.710   6.399  0.7063  0.3597  0.8360
   21MOL   H46110501   7.238   2.397   7.180 -1.2895 -0.7428  0.5269
   21MOL   H46210502   7.223   2.573   7.157  0.6985  0.3386  1.0292
   21MOL   H46310503   7.053   2.345   7.018 -1.2459 -0.3922  1.4534
   21MOL   H46410504   6.808   2.525   6.986  1.9414 -1.4829  1.0182
   21MOL   H46510505   6.889   2.458   6.841 -0.8023 -0.2488  0.5433
   21MOL   H46610506   6.922   2.752   6.913  0.3925 -0.3620  0.5508
   21MOL   H46710507   6.770   2.700   6.868 -0.7414 -0.0821 -0.7262
   21MOL   H46810508   7.030   2.640   6.718  0.4561 -0.2286 -0.7172
   21MOL   H46910509   6.883   2.581   6.657  0.4667 -0.5992 -0.2269
   21MOL   H47010510   6.782   2.813   6.624  0.0942  3.2244 -0.8833
   21MOL   H47110511   6.928   2.887   6.686 -0.2088 -0.2186 -0.0164
   21MOL   H47210512   6.913   2.898   6.445  2.4496  0.3055  0.2193
   21MOL   H47310513   7.049   2.781   6.483 -0.1861 -1.4999  1.8684
   21MOL   H47410514   6.879   2.608   6.439 -1.3249 -0.3742 -0.8761
   21MOL   H47510515   6.771   2.727   6.384  0.6545 -0.2699  0.4648
   21MOL   H47610516   6.929   2.708   6.303 -0.6883 -2.9831  0.0552
   21MOL   C47710517   6.957   2.418   7.185 -0.4784  0.0410 -0.2194
   21MOL   C47810518   7.002   2.314   7.282  0.4139 -0.5170 -0.0212
   21MOL   O47910519   6.878   2.273   7.340  0.2414  0.2665 -1.0751
   21MOL   C48010520   6.874   2.159   7.424  0.1847 -0.8726 -0.7406
   21MOL   C48110521   6.728   2.129   7.454  0.6580 -1.0071 -0.2364
   21MOL   C48210522   6.650   2.094   7.334 -0.7250 -0.6193  0.0702
   21MOL   C48310523   6.496   2.084   7.363 -0.1598 -0.1219  0.2598
   21MOL   C48410524   6.411   2.042   7.233  0.4930 -0.3554  0.3004
   21MOL   C48510525   6.427   2.141   7.109 -0.1283 -0.3041  0.7023
   21MOL   H48610526   6.924   2.510   7.233 -1.8624  0.2295 -1.4697
   21MOL   H48710527   6.869   2.384   7.131 -0.6614  0.2743 -0.0636
   21MOL   H48810528   7.059   2.233   7.236  1.3072  0.9209 -1.5161
   21MOL   H48910529   6.942   2.170   7.509 -0.8338  2.2136 -0.2912
   21MOL   H49010530   6.920   2.075   7.371 -0.3210 -2.0070  0.5597
   21MOL   H49110531   6.676   2.211   7.504  2.0588 -0.3746  0.2347
   21MOL   H49210532   6.725   2.038   7.513 -3.7855 -1.6252 -1.2941
   21MOL   H49310533   6.668   2.163   7.251 -0.2983 -0.0447  0.6350
   21MOL   H49410534   6.684   1.994   7.307  2.2061  0.0655  0.9688
   21MOL   H49510535   6.477   2.019   7.449  0.0508 -1.2191 -0.5126
   21MOL   H49610536   6.453   2.178   7.395 -3.4051 -1.9914  1.6538
   21MOL   H49710537   6.439   1.941   7.204  1.4654 -0.3542  1.1917
   21MOL   H49810538   6.306   2.039   7.260  0.6481 -3.0997  0.7411
   21MOL   H49910539   6.526   2.138   7.062 -0.8837  1.5681 -1.1135
   21MOL   H50010540   6.353   2.114   7.033  0.3295 -0.1482  0.1916
   21MOL   H50110541   6.411   2.241   7.150 -3.3589 -0.6770  0.4414
   21MOL   H50210542   7.060   2.360   7.362 -0.4657  1.0914 -0.2915
   22MOL     C110543   2.836   7.641   6.314 -0.5125  0.6710 -0.2665
   22MOL     C210544   2.762   7.728   6.421 -0.5841 -0.0246  0.0680
   22MOL     O310545   2.833   0.066   6.466 -0.0284  0.6418 -0.1897
   22MOL     C410546   2.880   0.148   6.364  0.2468 -0.7336 -1.0781
   22MOL     C510547   2.914   0.280   6.430  0.2552 -0.1996  0.2213
   22MOL     C610548   2.801   0.381   6.440 -0.1143  0.3785 -0.3938
   22MOL     C710549   2.849   0.510   6.498 -0.1183 -0.3804  0.3608
   22MOL     C810550   2.733   0.620   6.495  0.3535  0.1511 -0.5426
   22MOL     C910551   2.694   0.687   6.362  0.7234 -0.0629 -0.2328
   22MOL    H1010552   2.766   7.570   6.271  0.8938 -0.3535 -0.9231
   22MOL    H1110553   2.875   7.698   6.229  2.2404 -1.1726 -0.3140
   22MOL    H1210554   2.666   7.760   6.380 -1.3222 -0.4667  1.4040
   22MOL    H1310555   2.816   0.157   6.277 -1.4929  0.0879  0.2405
   22MOL    H1410556   2.974   0.099   6.339 -0.8780 -2.8050 -1.3661
   22MOL    H1510557   2.989   0.315   6.359  0.0760 -0.7219 -0.2373
   22MOL    H1610558   2.964   0.263   6.525 -0.7581 -2.4823  0.4008
   22MOL    H1710559   2.758   0.396   6.341 -2.9406  0.7467  0.8480
   22MOL    H1810560   2.726   0.345   6.510  0.6936  2.4009  1.5796
   22MOL    H1910561   2.879   0.494   6.601 -0.7579 -0.3575  0.5497
   22MOL    H2010562   2.944   0.536   6.451  0.5854  1.4799  2.7661
   22MOL    H2110563   2.753   0.701   6.564  0.4185 -1.4449  1.3656
   22MOL    H2210564   2.646   0.569   6.536  0.9599  0.5944  1.3551
   22MOL    H2310565   2.638   0.779   6.381 -1.4725 -1.4206  0.1433
   22MOL    H2410566   2.772   0.717   6.292  0.7227  3.0632  1.0057
   22MOL    H2510567   2.631   0.617   6.307  0.6684  0.3915 -0.7478
   22MOL    H2610568   2.912   7.573   6.354 -1.1866 -0.9063 -1.6078
   22MOL    C2710569   2.719   7.641   6.541  0.0211 -0.8687 -0.9938
   22MOL    C2810570   2.610   7.532   6.534 -0.4719  0.3829  0.1747
   22MOL    O2910571   2.640   7.445   6.637 -0.0367  0.4251 -0.1211
   22MOL    C3010572   2.704   7.325   6.596  0.5957  0.6721  0.3194
   22MOL    C3110573   2.744   7.259   6.723 -0.2294  0.4612 -0.2377
   22MOL    C3210574   2.833   7.357   6.803  0.1595  0.6339  0.8041
   22MOL    C3310575   2.855   7.316   6.948 -0.5619  0.4542  0.2386
   22MOL    C3410576   2.942   7.413   7.025 -0.3602  0.1420  0.6644
   22MOL    C3510577   2.882   7.550   7.060 -0.1773 -0.4214  0.6435
   22MOL    H3610578   2.808   7.581   6.563  1.3001  1.3301  0.0700
   22MOL    H3710579   2.712   7.704   6.630  0.9467  0.0397 -1.5450
   22MOL    H3810580   2.627   7.468   6.447  1.9493 -0.0027  0.9094
   22MOL    H3910581   2.793   7.340   6.536  0.9982 -0.1756  0.7023
   22MOL    H4010582   2.638   7.253   6.547  1.0667  0.4893 -0.0471
   22MOL    H4110583   2.805   7.170   6.707  0.9110  0.9268  1.3651
   22MOL    H4210584   2.654   7.237   6.780  1.6493 -2.1838  1.8627
   22MOL    H4310585   2.926   7.375   6.749 -0.4369 -2.0086 -1.2404
   22MOL    H4410586   2.775   7.449   6.814 -1.1218 -0.2447  1.5295
   22MOL    H4510587   2.762   7.296   7.001  0.2598  0.5316  1.7302
   22MOL    H4610588   2.914   7.224   6.942  0.1139  1.0119 -2.3924
   22MOL    H4710589   2.965   7.365   7.120 -1.9890  1.3105  1.6725
   22MOL    H4810590   3.031   7.430   6.964 -0.4083 -0.7321  0.3412
   22MOL    H4910591   2.777   7.547   7.088 -0.5397 -0.6306 -0.7033
   22MOL    H5010592   2.952   7.601   7.126  2.0390 -3.4604  0.7650
   22MOL    H5110593   2.883   7.619   6.975  1.2434  0.5588  1.4247
   22MOL    C5210594   2.472   7.601   6.575  0.0389  0.2393 -0.1769
   22MOL    C5310595   2.348   7.558   6.505 -0.7525  0.0175 -1.1936
   22MOL    O5410596   2.376   7.581   6.363  0.1314  0.0360  0.1878
   22MOL    C5510597   2.301   7.681   6.300 -0.1411 -0.4569  0.1205
   22MOL    C5610598   2.320   7.682   6.146  0.0983 -0.1946  0.4977
   22MOL    C5710599   2.271   7.545   6.074  0.1655  0.7528  0.3154
   22MOL    C5810600   2.316   7.518   5.934 -0.4950 -0.6097  0.0087
   22MOL    C5910601   2.258   7.394   5.876 -0.6930 -0.5896 -0.2463
   22MOL    C6010602   2.299   7.372   5.725 -0.1620  0.2144 -0.5152
   22MOL    H6110603   2.478   7.708   6.556  0.1509  0.2468 -0.1045
   22MOL    H6210604   2.458   7.603   6.683 -0.7106  0.7662 -0.2780
   22MOL    H6310605   2.278   7.625   6.553  0.2720  0.9965 -1.0513
   22MOL    H6410606   2.324   0.004   6.333 -0.2077 -0.5199  0.3645
   22MOL    H6510607   2.198   7.673   6.334 -0.7150 -3.4375 -2.0748
   22MOL    H6610608   2.427   7.696   6.133  0.3281 -0.7993  1.6381
   22MOL    H6710609   2.270   7.768   6.100  0.8908 -1.0856 -2.0999
   22MOL    H6810610   2.290   7.456   6.133  0.3563 -0.2057 -1.1815
   22MOL    H6910611   2.162   7.539   6.082  0.3081 -2.5424  0.3061
   22MOL    H7010612   2.282   7.605   5.877 -0.1257  0.5322  1.4979
   22MOL    H7110613   2.424   7.518   5.927 -0.2686  1.8343  2.5983
   22MOL    H7210614   2.292   7.308   5.933  0.2329  0.0085  0.1182
   22MOL    H7310615   2.149   7.395   5.886 -0.6177  2.0866  1.0015
   22MOL    H7410616   2.259   7.452   5.663  0.2858 -1.6436 -3.2712
   22MOL    H7510617   2.406   7.381   5.705  0.0395  0.3622  0.5751
   22MOL    H7610618   2.265   7.273   5.695  0.2950 -0.2515  0.4805
   22MOL    C7710619   2.311   7.412   6.532 -0.2499 -0.4475  0.5760
   22MOL    C7810620   2.177   7.377   6.463 -0.1719  0.0782  0.3789
   22MOL    O7910621   2.085   7.459   6.523 -0.3343 -0.0195 -0.2320
   22MOL    C8010622   1.995   7.519   6.433  0.8100 -0.5442 -0.3003
   22MOL    C8110623   1.909   7.607   6.516 -0.4250 -0.3405 -0.3260
   22MOL    C8210624   1.804   7.693   6.444 -0.1340  0.1391  0.0719
   22MOL    C8310625   1.871   0.026   6.350  0.7906 -0.5333  0.3874
   22MOL    C8410626   1.971   0.125   6.420  0.1004  0.2519  0.1201
   22MOL    C8510627   2.037   0.230   6.328  0.7950 -0.1694 -0.4885
   22MOL    H8610628   2.303   7.393   6.639 -0.0146 -0.4264  0.5972
   22MOL    H8710629   2.389   7.343   6.502  0.2410  0.4967 -0.3590
   22MOL    H8810630   2.187   7.401   6.357  1.3283 -2.3079 -0.0528
   22MOL    H8910631   1.916   7.447   6.409 -0.0191  0.0705  0.5576
   22MOL    H9010632   2.033   7.562   6.340  0.2239  0.8240  0.0814
   22MOL    H9110633   1.964   7.681   6.574  1.1824 -0.9108 -1.0826
   22MOL    H9210634   1.850   7.546   6.585 -0.9012  1.4880  0.8964
   22MOL    H9310635   1.725   7.628   6.407  2.4762 -2.5021 -1.1454
   22MOL    H9410636   1.750   7.739   6.526 -1.7391  0.7672 -1.3048
   22MOL    H9510637   1.932   7.763   6.270  3.1476  0.4228  1.6617
   22MOL    H9610638   1.793   0.089   6.306  1.7383  0.0143 -0.5171
   22MOL    H9710639   1.928   0.185   6.500 -2.9215 -1.2730 -0.2710
   22MOL    H9810640   2.050   0.069   6.469 -1.0198 -1.8993 -0.4683
   22MOL    H9910641   2.085   0.175   6.246  1.3898  1.9730 -1.6229
   22MOL   H10010642   1.961   0.296   6.285  0.1460 -0.9343 -0.5295
   22MOL   H10110643   2.094   0.296   6.394 -0.6508  0.0727  0.5260
   22MOL   C10210644   2.133   7.232   6.496  0.2476  0.0336  0.3991
   22MOL   C10310645   2.044   7.166   6.396 -0.9818  0.2553  0.2417
   22MOL   O10410646   2.127   7.154   6.278  0.0944  0.0218  0.1936
   22MOL   C10510647   2.066   7.073   6.179 -0.2775  0.2483 -0.5689
   22MOL   C10610648   2.155   7.073   6.061  0.3001  0.5220  0.5635
   22MOL   C10710649   2.114   6.966   5.965  0.0601 -0.1889  0.7198
   22MOL   C10810650   2.223   6.956   5.856  0.4431 -0.1932 -0.2050
   22MOL   C10910651   2.176   6.855   5.750 -0.1600 -0.2776  0.5898
   22MOL   C11010652   2.258   6.842   5.623  0.0068  0.0699 -1.1469
   22MOL   H11110653   2.220   7.171   6.516  1.5596  3.1250  4.9499
   22MOL   H11210654   2.076   7.233   6.589 -1.0737  1.0467 -0.3956
   22MOL   H11310655   1.960   7.230   6.369  0.7206  2.0484 -0.9407
   22MOL   H11410656   1.967   7.111   6.152  0.3491  3.3087  1.1839
   22MOL   H11510657   2.068   6.969   6.210  1.3018  0.4478  0.0551
   22MOL   H11610658   2.258   7.059   6.093 -0.5367 -1.2239  2.5962
   22MOL   H11710659   2.152   7.173   6.017 -1.0094  0.7534  1.1402
   22MOL   H11810660   2.084   6.868   6.004  0.6349 -0.8478 -0.4429
   22MOL   H11910661   2.019   7.006   5.930  1.1882  0.4283 -1.7308
   22MOL   H12010662   2.244   7.050   5.806  1.7770 -0.6784 -0.6047
   22MOL   H12110663   2.318   6.923   5.900 -1.5284 -0.4179  4.1453
   22MOL   H12210664   2.175   6.760   5.804 -2.4019 -1.2623 -1.1239
   22MOL   H12310665   2.074   6.884   5.726  0.1608  0.0034 -0.4737
   22MOL   H12410666   2.314   6.934   5.603  1.7455 -0.7801 -0.3307
   22MOL   H12510667   2.342   6.772   5.627  0.3259  0.4805 -0.4726
   22MOL   H12610668   2.194   6.822   5.538  0.9256  3.1087 -2.6109
   22MOL   C12710669   1.995   7.030   6.458  0.2525  0.4663 -0.5109
   22MOL   C12810670   1.842   7.011   6.448  0.7265 -0.2920 -0.5599
   22MOL   O12910671   1.804   6.983   6.311 -0.0769 -0.3498  0.3773
   22MOL   C13010672   1.734   6.861   6.295 -0.0754  0.1633 -0.3769
   22MOL   C13110673   1.780   6.812   6.159  0.5805 -0.1170  0.1906
   22MOL   C13210674   1.704   6.683   6.131 -0.6099 -0.1678  0.4964
   22MOL   C13310675   1.723   6.656   5.975 -0.3201 -0.5421 -0.2049
   22MOL   C13410676   1.669   6.522   5.941  0.6164  0.4399  0.1252
   22MOL   C13510677   1.700   6.475   5.797 -0.4904  0.3663 -0.4331
   22MOL   H13610678   2.044   6.943   6.414 -0.3606 -0.0794 -0.1215
   22MOL   H13710679   2.017   7.032   6.565 -0.3995 -0.5645 -0.3569
   22MOL   H13810680   1.821   6.926   6.513 -1.3086 -0.0736 -0.9088
   22MOL   H13910681   1.633   6.902   6.300 -1.0084 -2.2366  1.5978
   22MOL   H14010682   1.757   6.786   6.371 -0.7444  0.7832  0.4625
   22MOL   H14110683   1.884   6.783   6.148  0.2902 -0.6802 -1.1303
   22MOL   H14210684   1.771   6.887   6.081  0.6277 -0.4277 -0.1133
   22MOL   H14310685   1.742   6.600   6.190  2.3882  0.2402 -0.7462
   22MOL   H14410686   1.599   6.703   6.151 -1.1423 -2.0147 -0.3260
   22MOL   H14510687   1.677   6.737   5.919  0.9121  0.3117  0.0134
   22MOL   H14610688   1.829   6.672   5.954 -0.0096 -0.2572  1.5471
   22MOL   H14710689   1.715   6.443   6.000 -0.5396 -2.2352 -2.4306
   22MOL   H14810690   1.564   6.507   5.966  0.3621 -0.2509 -1.3108
   22MOL   H14910691   1.635   6.546   5.745 -0.8935  1.8359  1.9794
   22MOL   H15010692   1.806   6.481   5.774  0.1189 -3.2989  1.0992
   22MOL   H15110693   1.660   6.376   5.780 -0.6739  0.3166  0.2467
   22MOL   C15210694   1.763   7.122   6.523  0.1171  0.5249 -0.0089
   22MOL   C15310695   1.610   7.092   6.538 -0.7380  0.1018  0.4579
   22MOL   O15410696   1.595   6.979   6.632 -0.3477  0.2423  0.3695
   22MOL   C15510697   1.487   6.900   6.601  0.4612  0.1462  0.3020
   22MOL   C15610698   1.457   6.817   6.726 -0.1953 -0.0575  0.0390
   22MOL   C15710699   1.361   6.696   6.712 -0.0838  0.6676  1.4452
   22MOL   C15810700   1.219   6.739   6.690 -0.1048  0.0182 -0.4504
   22MOL   C15910701   1.131   6.614   6.665 -1.0501  0.4414 -0.2212
   22MOL   C16010702   0.976   6.633   6.671  0.1291 -0.7031  0.1723
   22MOL   H16110703   1.814   7.138   6.618 -1.9679  1.2102  1.0242
   22MOL   H16210704   1.775   7.212   6.463 -0.4151  0.4440 -0.2380
   22MOL   H16310705   1.565   7.056   6.445  0.3275 -0.3679  0.1232
   22MOL   H16410706   1.520   6.830   6.524 -0.1551 -1.7963  1.7786
   22MOL   H16510707   1.400   6.948   6.556  0.5051  0.0969  0.1657
   22MOL   H16610708   1.413   6.887   6.797 -0.4914 -0.5539  0.3452
   22MOL   H16710709   1.547   6.777   6.773 -0.1289  0.9512  0.7874
   22MOL   H16810710   1.395   6.650   6.619 -0.8678  1.1897  0.8981
   22MOL   H16910711   1.380   6.629   6.796  1.2651 -1.3555 -0.4210
   22MOL   H17010712   1.181   6.798   6.773 -1.4342 -1.7061  0.1969
   22MOL   H17110713   1.206   6.812   6.609 -2.2424  2.2838  1.8330
   22MOL   H17210714   1.165   6.582   6.567  2.2730  0.2000  0.9398
   22MOL   H17310715   1.151   6.529   6.731 -1.8553  2.1428  2.3249
   22MOL   H17410716   0.933   6.721   6.622  1.6524 -1.2821 -2.2869
   22MOL   H17510717   0.933   6.551   6.614 -1.7421  0.5073 -0.2261
   22MOL   H17610718   0.936   6.615   6.771 -2.1101 -3.1097 -1.0829
   22MOL   C17710719   1.534   7.207   6.611 -0.3818  0.1971  0.5820
   22MOL   C17810720   1.512   7.326   6.520  0.2618 -0.3678  0.5978
   22MOL   O17910721   1.448   7.272   6.405  0.1730  0.2549  0.0206
   22MOL   C18010722   1.432   7.350   6.282 -0.3205 -0.3063 -1.2652
   22MOL   C18110723   1.561   7.373   6.201  0.8232 -0.1562  0.3733
   22MOL   C18210724   1.527   7.467   6.081 -0.0161  0.7691  0.0946
   22MOL   C18310725   1.634   7.493   5.966  0.0691 -0.5442 -0.1795
   22MOL   C18410726   1.682   7.363   5.906 -0.6959  0.5603  0.0451
   22MOL   C18510727   1.816   7.319   5.961  0.5384 -0.7571  0.1877
   22MOL   H18610728   1.439   7.168   6.645 -0.4665 -0.2693 -0.1787
   22MOL   H18710729   1.599   7.241   6.692 -0.6181  0.3855  0.6922
   22MOL   H18810730   1.610   7.367   6.496 -0.0926 -0.2462 -0.7206
   22MOL   H18910731   1.379   7.442   6.305 -0.9906 -1.1487  0.7273
   22MOL   H19010732   1.357   7.291   6.229 -0.2835 -1.4516 -0.0776
   22MOL   H19110733   1.602   7.276   6.171 -1.9131 -1.3905  0.4788
   22MOL   H19210734   1.638   7.419   6.263  2.4042 -3.5893  1.1010
   22MOL   H19310735   1.435   7.425   6.039  1.2147 -1.4839 -0.4657
   22MOL   H19410736   1.505   7.568   6.114 -0.7647  0.0613  1.8372
   22MOL   H19510737   1.576   7.553   5.895  1.8935 -0.0142 -1.2499
   22MOL   H19610738   1.722   7.543   6.007  0.6896 -1.5939 -0.2129
   22MOL   H19710739   1.605   7.288   5.922 -1.0969  1.2794  1.6169
   22MOL   H19810740   1.701   7.372   5.799  0.3620  1.6787  0.3082
   22MOL   H19910741   1.826   7.306   6.069  0.1948 -1.2148  0.1624
   22MOL   H20010742   1.846   7.225   5.917  2.0815 -0.9867  1.6976
   22MOL   H20110743   1.905   7.382   5.953 -0.2701  0.4479  0.4657
   22MOL   C20210744   1.427   7.433   6.592  0.5747  0.2657  0.4679
   22MOL   C20310745   1.464   7.475   6.731 -0.1125 -0.2738  0.2751
   22MOL   O20410746   1.378   7.579   6.781 -0.2327  0.1126  0.4065
   22MOL   C20510747   1.253   7.522   6.824  0.3571  0.2748  0.2006
   22MOL   C20610748   1.151   7.631   6.822 -0.5620 -0.0461  0.0379
   22MOL   C20710749   1.148   7.718   6.948  0.1259 -0.0657  0.0754
   22MOL   C20810750   1.045   0.050   6.931 -0.1791 -0.3007 -0.5270
   22MOL   C20910751   1.055   0.146   7.061  0.3805  0.3713  0.0076
   22MOL   C21010752   1.160   0.251   7.054 -0.3525 -0.0404 -0.4784
   22MOL   H21110753   1.436   7.524   6.534 -0.3661 -0.3880 -0.7070
   22MOL   H21210754   1.325   7.397   6.582  0.2826  1.3462 -0.5239
   22MOL   H21310755   1.455   7.392   6.801  0.6379 -0.2786  0.3666
   22MOL   H21410756   1.268   7.472   6.919  0.9618  1.2890  0.6520
   22MOL   H21510757   1.217   7.445   6.756 -1.1119  2.0716 -1.1340
   22MOL   H21610758   1.048   7.594   6.817  0.0048 -1.9734  1.9339
   22MOL   H21710759   1.172   7.696   6.737  1.2486 -2.0627 -1.1049
   22MOL   H21810760   1.109   7.664   7.034 -0.5638 -0.9757 -0.8039
   22MOL   H21910761   1.246   7.757   6.976  0.4668 -1.9639  1.6623
   22MOL   H22010762   1.083   0.099   6.842 -1.0140 -0.2001 -0.8338
   22MOL   H22110763   0.951   0.004   6.901  0.1255 -0.8942 -0.5789
   22MOL   H22210764   0.955   0.184   7.081  0.0328 -0.8276  0.6546
   22MOL   H22310765   1.066   0.094   7.157  1.6284  2.9912  1.3342
   22MOL   H22410766   1.161   0.325   7.135  0.3378 -0.8107  0.2160
   22MOL   H22510767   1.258   0.205   7.047 -0.5786 -0.8897  1.5911
   22MOL   H22610768   1.142   0.307   6.962 -0.4231  0.8546  0.0632
   22MOL   C22710769   1.606   7.539   6.734  0.0663  1.0203 -0.6551
   22MOL   C22810770   1.661   7.544   6.875 -0.0877 -0.5195 -0.7612
   22MOL   O22910771   1.714   7.406   6.889  0.2433 -0.2201  0.2869
   22MOL   C23010772   1.701   7.349   7.018 -0.2711  0.4793 -0.3846
   22MOL   C23110773   1.812   7.254   7.034 -0.4529 -0.1444 -0.0579
   22MOL   C23210774   1.806   7.131   6.945 -0.1872 -0.3496  0.5887
   22MOL   C23310775   1.877   7.009   7.010 -0.0347 -0.1953  0.3004
   22MOL   C23410776   1.854   6.882   6.931  0.5349  0.2312 -0.2725
   22MOL   C23510777   1.849   6.752   7.022 -0.4785 -0.6763 -0.3700
   22MOL   H23610778   1.674   7.497   6.661  1.4210  1.9121  0.0733
   22MOL   H23710779   1.592   7.640   6.696  2.3944  1.0350 -1.5250
   22MOL   H23810780   1.582   7.561   6.949  0.1587 -1.1039 -0.3578
   22MOL   H23910781   1.605   7.298   7.032 -0.6283  1.1176 -0.4718
   22MOL   H24010782   1.709   7.420   7.100  0.1007  0.4280 -0.3783
   22MOL   H24110783   1.814   7.221   7.138 -0.2882 -0.5078 -0.1751
   22MOL   H24210784   1.900   7.313   7.006 -1.4742  1.0381 -0.8499
   22MOL   H24310785   1.704   7.106   6.914 -0.3877  1.5136 -0.3292
   22MOL   H24410786   1.859   7.146   6.851  0.8287 -1.2413  1.0110
   22MOL   H24510787   1.982   7.037   7.019 -0.0414 -0.0150 -0.1889
   22MOL   H24610788   1.827   7.002   7.107 -1.3779 -0.6342 -0.4077
   22MOL   H24710789   1.767   6.890   6.866  1.3929 -0.4897 -1.5112
   22MOL   H24810790   1.935   6.867   6.861  0.5343  0.1998 -0.2665
   22MOL   H24910791   1.931   6.755   7.094 -0.6699 -1.8323 -0.0990
   22MOL   H25010792   1.765   6.736   7.090  0.2373  0.5387  0.8372
   22MOL   H25110793   1.863   6.669   6.954  0.1119 -0.8875  0.0048
   22MOL   C25210794   1.782   7.634   6.905 -0.7560 -0.0047  0.2188
   22MOL   C25310795   1.754   7.740   7.014  0.2731 -0.1532 -0.2473
   22MOL   O25410796   1.761   0.099   6.963 -0.1446  0.5083  0.3381
   22MOL   C25510797   1.643   0.144   6.898 -0.4714  0.4881 -0.0421
   22MOL   C25610798   1.685   0.168   6.753 -0.7366 -0.5013 -0.0534
   22MOL   C25710799   1.581   0.249   6.670  0.2082  0.0054 -0.3647
   22MOL   C25810800   1.455   0.168   6.639  0.7751 -0.0095 -0.2435
   22MOL   C25910801   1.350   0.246   6.559 -0.2288 -0.2182  0.2842
   22MOL   C26010802   1.221   0.168   6.534 -0.3981 -0.4434  0.5325
   22MOL   H26110803   1.860   7.569   6.944  0.3819  1.6226  0.7130
   22MOL   H26210804   1.827   7.673   6.813  0.8451  0.9126  1.3735
   22MOL   H26310805   1.660   7.729   7.069 -0.0171  0.0832 -0.6987
   22MOL   H26410806   1.613   0.237   6.947  1.0597  1.1820 -0.3918
   22MOL   H26510807   1.553   0.083   6.901 -1.4102  1.9088  2.1079
   22MOL   H26610808   1.714   0.070   6.716  5.3744  0.7899  0.7928
   22MOL   H26710809   1.783   0.215   6.760 -0.9534  0.1046 -1.0555
   22MOL   H26810810   1.549   0.338   6.724  1.7418  2.1260 -2.8358
   22MOL   H26910811   1.623   0.280   6.574  2.6558 -1.4051  0.2304
   22MOL   H27010812   1.479   0.075   6.587 -1.5554  0.4584 -2.2320
   22MOL   H27110813   1.419   0.134   6.736 -0.8120 -0.8117 -1.1003
   22MOL   H27210814   1.330   0.344   6.603  1.3821  0.8910 -1.3922
   22MOL   H27310815   1.400   0.272   6.466  1.2755  0.1325  1.1667
   22MOL   H27410816   1.141   0.210   6.474  0.6038 -0.5816 -0.9169
   22MOL   H27510817   1.249   0.071   6.493 -1.8028 -2.0415  3.1854
   22MOL   H27610818   1.169   0.140   6.626 -0.1812 -0.8043  0.5450
   22MOL   C27710819   1.867   7.731   7.115  0.4531 -0.4007  0.2165
   22MOL   C27810820   1.877   0.077   7.206  0.3143  0.0150 -0.8073
   22MOL   O27910821   1.742   0.111   7.238  0.9799  0.3679 -0.7177
   22MOL   C28010822   1.721   0.251   7.250 -0.5526 -0.3926 -0.7223
   22MOL   C28110823   1.573   0.281   7.274 -0.2500  0.2997  0.4135
   22MOL   C28210824   1.511   0.215   7.395 -0.0570  0.1728  0.2033
   22MOL   C28310825   1.354   0.222   7.388 -0.3374  0.1188 -0.1988
   22MOL   C28410826   1.298   0.197   7.523  0.3150 -0.8700  0.0859
   22MOL   C28510827   1.308   0.309   7.625  0.3559  0.4226  0.2151
   22MOL   H28610828   1.862   7.646   7.183  0.2377 -0.0001  0.7101
   22MOL   H28710829   1.957   7.724   7.055 -0.1074  2.0941 -0.9955
   22MOL   H28810830   1.935   0.150   7.149  1.7517  1.4695  2.3771
   22MOL   H28910831   1.760   0.302   7.162 -0.8656  1.5559  0.2506
   22MOL   H29010832   1.775   0.274   7.341 -1.5300 -0.3361 -0.1549
   22MOL   H29110833   1.513   0.256   7.186  0.0457 -2.1092  0.8405
   22MOL   H29210834   1.569   0.389   7.284  1.6834  0.3966  0.2600
   22MOL   H29310835   1.534   0.108   7.391 -0.6294  0.0451  0.3287
   22MOL   H29410836   1.553   0.245   7.491 -2.0832 -0.1206  1.2190
   22MOL   H29510837   1.318   0.315   7.345 -0.5080 -0.4885 -1.4126
   22MOL   H29610838   1.309   0.146   7.324 -0.4161 -0.6023  0.7089
   22MOL   H29710839   1.193   0.173   7.505  0.3375 -1.7462  1.0751
   22MOL   H29810840   1.336   0.103   7.562  1.3481 -0.8446 -0.8387
   22MOL   H29910841   1.259   0.270   7.714  1.0006  1.5256  1.0750
   22MOL   H30010842   1.410   0.331   7.657 -0.1732  1.4024  1.2773
   22MOL   H30110843   1.264   0.396   7.577 -0.5883 -0.7818 -1.1614
   22MOL   C30210844   1.953   0.048   7.336 -0.2000  0.0803 -0.3182
   22MOL   C30310845   2.092   7.762   7.310  0.1477 -0.1252 -0.3752
   22MOL   O30410846   2.134   7.707   7.435  0.6812 -0.1031 -0.8230
   22MOL   C30510847   2.095   7.571   7.464  0.4175  0.0024 -0.4350
   22MOL   C30610848   2.145   7.538   7.602 -0.4115 -0.4364  0.1719
   22MOL   C30710849   2.301   7.534   7.609 -0.4060  0.1101 -0.1194
   22MOL   C30810850   2.355   7.457   7.725 -0.0589  0.2014  0.4211
   22MOL   C30910851   2.330   7.513   0.086 -0.5960 -0.5966  0.4453
   22MOL   C31010852   2.428   7.630   0.120  0.4286 -0.1867  0.1511
   22MOL   H31110853   1.961   0.136   7.400 -1.0826 -0.8543  1.0981
   22MOL   H31210854   1.892   7.752   7.387  2.3228 -1.0150  1.1739
   22MOL   H31310855   2.083   7.683   7.236 -0.1454 -0.0211 -0.4487
   22MOL   H31410856   2.141   7.507   7.388 -2.6595 -0.1898 -2.2349
   22MOL   H31510857   1.987   7.582   7.462  0.5432  1.9881  1.5052
   22MOL   H31610858   2.107   7.440   7.628 -0.1824 -0.0010  2.2717
   22MOL   H31710859   2.112   7.610   7.677  1.3703 -0.3225  0.8874
   22MOL   H31810860   2.327   7.483   7.516 -0.6224  0.1599 -0.2100
   22MOL   H31910861   2.345   7.634   7.601  1.0172 -0.2174  3.1025
   22MOL   H32010862   2.313   7.357   7.710 -0.1247  0.6613 -2.7982
   22MOL   H32110863   2.464   7.457   7.718 -0.0738  1.6708  0.0960
   22MOL   H32210864   2.228   7.551   0.089  0.2529  1.8165 -0.3677
   22MOL   H32310865   2.348   7.431   0.156 -1.2820 -1.1074  0.0248
   22MOL   H32410866   2.422   7.664   0.224  1.1349 -0.1543  0.1788
   22MOL   H32510867   2.524   7.583   0.101  0.1852 -1.1400  1.1368
   22MOL   H32610868   2.420   7.714   0.052  0.5248  0.1024  0.4966
   22MOL   C32710869   2.196   0.085   7.261 -0.2727  0.2255 -0.2605
   22MOL   C32810870   2.335   0.029   7.230 -0.0306 -0.1886  0.1080
   22MOL   O32910871   2.319   7.729   7.110  0.8618  0.2550  0.0349
   22MOL   C33010872   2.346   7.591   7.135 -0.3945 -0.0485  0.0245
   22MOL   C33110873   2.341   7.507   7.001 -0.5703  0.0225 -0.7153
   22MOL   C33210874   2.370   7.358   7.032 -0.2478  0.1087  0.1879
   22MOL   C33310875   2.310   7.260   6.931 -0.3832  0.7165 -0.2901
   22MOL   C33410876   2.346   7.109   6.957 -0.3052 -0.4102 -0.4397
   22MOL   C33510877   2.285   7.046   7.078  0.5213  0.0243  0.2704
   22MOL   H33610878   2.204   0.164   7.336  0.2710  1.5183 -1.6448
   22MOL   H33710879   2.156   0.129   7.169  0.7626  2.3346  0.2736
   22MOL   H33810880   2.370   7.748   7.314 -0.7282  1.0252  1.2717
   22MOL   H33910881   2.273   7.544   7.200 -1.3217 -0.4804 -1.3090
   22MOL   H34010882   2.440   7.574   7.186  0.0015  2.6527  0.2980
   22MOL   H34110883   2.421   7.544   6.937 -1.6126  3.1048 -0.3439
   22MOL   H34210884   2.251   7.527   6.942 -0.8512  0.3457 -0.1885
   22MOL   H34310885   2.479   7.354   7.036 -0.2879 -0.3631  0.8741
   22MOL   H34410886   2.340   7.330   7.133  0.1368  0.9549  0.5410
   22MOL   H34510887   2.201   7.257   6.929 -0.3255 -1.0324 -2.0683
   22MOL   H34610888   2.346   7.282   6.830 -0.6078  0.7127 -0.3721
   22MOL   H34710889   2.314   7.056   6.867 -1.1379 -0.4642 -0.1172
   22MOL   H34810890   2.454   7.108   6.968 -0.4467 -0.8556  0.9211
   22MOL   H34910891   2.180   7.076   7.083  0.2567 -0.8235 -0.1262
   22MOL   H35010892   2.293   6.937   7.079 -0.4256 -0.0737 -0.5490
   22MOL   H35110893   2.321   7.078   7.175 -1.8897  1.1106  0.8606
   22MOL   C35210894   2.446   0.136   7.191 -0.0310 -0.2384 -0.1409
   22MOL   C35310895   2.593   0.085   7.194 -0.5623  0.3942  0.0387
   22MOL   O35410896   2.632   0.076   7.333  0.6503 -0.2532  0.0454
   22MOL   C35510897   2.675   7.725   7.369  0.2830 -0.0895 -0.6919
   22MOL   C35610898   2.714   7.721   7.513 -0.0396  0.7254 -0.2715
   22MOL   C35710899   2.767   7.589   7.549  0.3012  0.3856 -0.1040
   22MOL   C35810900   2.833   7.586   7.687  0.1026  0.0634  0.1727
   22MOL   C35910901   2.889   7.447   7.709 -0.0610 -0.1557  0.1080
   22MOL   C36010902   2.806   7.367   0.036 -0.2785  0.6092  0.1067
   22MOL   H36110903   2.411   0.195   7.106  1.4292  1.2257  0.2418
   22MOL   H36210904   2.429   0.209   7.271 -1.3055  0.8505 -1.3880
   22MOL   H36310905   2.606   7.765   7.149  0.9412  0.3626  0.5023
   22MOL   H36410906   2.764   7.692   7.315  2.8927  3.0643  1.4467
   22MOL   H36510907   2.585   7.669   7.345 -0.3662  1.4780 -1.9970
   22MOL   H36610908   2.631   7.747   7.579  0.4190  1.4480  0.0178
   22MOL   H36710909   2.787   0.017   7.544  0.2621 -0.3943  1.7720
   22MOL   H36810910   2.690   7.513   7.539 -0.0068  0.9423 -2.5017
   22MOL   H36910911   2.830   7.555   7.467 -1.6325 -0.1902 -1.4005
   22MOL   H37010912   2.908   7.663   7.706 -0.0789  0.3709 -0.3480
   22MOL   H37110913   2.745   7.597   7.750 -0.3197 -1.9720 -0.0344
   22MOL   H37210914   2.891   7.388   7.617  1.2402  0.6595 -0.4089
   22MOL   H37310915   2.994   7.449   7.741 -0.2938 -2.8648  1.1316
   22MOL   H37410916   2.837   7.264   0.020 -1.3410  0.4383 -0.9332
   22MOL   H37510917   2.820   7.413   0.134  3.0103  2.3731 -1.0853
   22MOL   H37610918   2.699   7.378   0.020 -0.6630 -0.5893  1.7229
   22MOL   C37710919   2.689   0.181   7.117 -0.0787 -0.6325 -0.3914
   22MOL   C37810920   2.825   0.133   7.070  0.2934  0.4938  0.5340
   22MOL   O37910921   2.922   0.119   7.174  0.3296  0.2648 -0.3656
   22MOL   C38010922   2.948   0.231   7.256  0.0952 -0.0224 -0.4462
   22MOL   C38110923   3.054   0.194   7.367  0.3928  0.9663 -0.3514
   22MOL   C38210924   3.083   0.313   7.456  0.3473 -0.1631  0.2686
   22MOL   C38310925   3.200   0.283   7.555 -0.0794 -0.2163 -0.3008
   22MOL   C38410926   3.255   0.403   7.631  0.4155  0.0033  0.0204
   22MOL   C38510927   3.145   0.480   7.700 -0.0384  0.3132  0.7496
   22MOL   H38610928   2.628   0.203   7.030  0.4992  0.4518 -0.5275
   22MOL   H38710929   2.699   0.277   7.168 -1.5011 -0.4947 -0.3497
   22MOL   H38810930   2.814   0.038   7.017  2.9611  0.7005 -0.5204
   22MOL   H38910931   2.863   0.269   7.313 -0.7436 -1.3418 -0.8107
   22MOL   H39010932   2.985   0.314   7.196  1.7950 -0.4198 -0.0027
   22MOL   H39110933   3.143   0.158   7.316  0.1288 -1.4588  0.8130
   22MOL   H39210934   3.020   0.113   7.431  3.4286  0.7353  1.0645
   22MOL   H39310935   3.109   0.404   7.402  0.7634 -1.0803 -1.1414
   22MOL   H39410936   2.995   0.339   7.513  0.9889  1.7892  0.3891
   22MOL   H39510937   3.157   0.203   7.616 -1.3424  2.0540  1.8688
   22MOL   H39610938   3.276   0.241   7.489 -0.2072  1.6975 -1.6843
   22MOL   H39710939   3.323   0.369   7.710  0.7596  0.1945 -0.1892
   22MOL   H39810940   3.314   0.470   7.568  1.2134  0.2599  1.0259
   22MOL   H39910941   3.188   0.543   7.778 -1.2268  0.3004  1.4178
   22MOL   H40010942   3.099   0.547   7.628 -1.0605 -1.7697 -0.5562
   22MOL   H40110943   3.063   0.424   7.744 -0.2097  0.6959  0.9227
   22MOL   C40210944   2.883   0.228   6.956 -0.7329 -0.1926 -0.3969
   22MOL   C40310945   3.018   0.187   6.901 -0.1563 -0.2198  0.1681
   22MOL   O40410946   3.086   0.299   6.842 -0.1521  0.1914 -0.2362
   22MOL   C40510947   3.181   0.371   6.929 -0.4483 -0.1225 -0.4913
   22MOL   C40610948   3.202   0.512   6.874  0.5691 -0.3518  0.2504
   22MOL   C40710949   3.250   0.514   6.727  0.0781 -1.3579 -0.3181
   22MOL   C40810950   3.321   0.653   6.690 -0.2209  0.1851 -0.8000
   22MOL   C40910951   3.373   0.656   6.546  0.4749 -0.1898 -0.4730
   22MOL   C41010952   3.424   0.796   6.504  0.3235 -0.2458  0.2556
   22MOL   H41110953   2.895   0.328   6.998  1.9729 -0.5734 -0.1873
   22MOL   H41210954   2.802   0.242   6.884 -2.0453 -0.9978  0.9108
   22MOL   H41310955   3.081   0.147   6.981  1.8622  0.9398 -0.8080
   22MOL   H41410956   3.273   0.314   6.927  0.9564  1.9838  1.5479
   22MOL   H41510957   3.157   0.377   7.035  1.4989  0.1435 -0.0599
   22MOL   H41610958   3.276   0.552   6.943 -0.7253 -2.0461  2.6879
   22MOL   H41710959   3.110   0.571   6.869  0.9561  0.1399 -1.7273
   22MOL   H41810960   3.316   0.431   6.701  0.3831 -1.4287  0.6806
   22MOL   H41910961   3.171   0.508   6.652 -0.8033 -0.0055  0.4785
   22MOL   H42010962   3.255   0.740   6.695  0.2359  0.5571 -1.1190
   22MOL   H42110963   3.403   0.678   6.757 -1.4273 -1.7404  1.4206
   22MOL   H42210964   3.452   0.581   6.536  0.4471 -0.1069 -1.3560
   22MOL   H42310965   3.297   0.612   6.482  0.3309 -2.3190  1.1065
   22MOL   H42410966   3.451   0.791   6.398  0.9362 -1.1020  0.4471
   22MOL   H42510967   3.347   0.871   6.519 -0.2540 -0.3356 -2.0241
   22MOL   H42610968   3.519   0.827   6.546  0.1353  1.3919 -0.5192
   22MOL   C42710969   3.003   0.083   6.798  0.2629  0.3968 -0.8765
   22MOL   C42810970   3.128   0.011   6.746 -1.1840 -0.9259 -0.3732
   22MOL   O42910971   3.166   7.708   6.859  0.2942  0.0977 -0.2156
   22MOL   C43010972   3.292   7.740   6.921  1.0173 -0.4464  0.0817
   22MOL   C43110973   3.323   7.633   7.029 -0.4109  0.3330 -0.5200
   22MOL   C43210974   3.236   7.660   7.145  0.6447 -0.0483 -0.8794
   22MOL   C43310975   3.228   7.555   7.256 -0.1737 -0.3270  0.3121
   22MOL   C43410976   3.155   7.597   7.382 -0.0678  0.2749  0.2138
   22MOL   C43510977   3.163   7.513   7.506  0.2594 -0.6050  0.3730
   22MOL   H43610978   2.941   0.002   6.835  1.7182  0.2346  1.3117
   22MOL   H43710979   2.954   0.125   6.710  0.6802  0.0593 -1.2768
   22MOL   H43810980   3.211   0.079   6.727  0.4353 -2.5474  0.7659
   22MOL   H43910981   3.301   0.057   6.974 -0.5033  0.1378 -0.7021
   22MOL   H44010982   3.371   7.738   6.846  0.0984 -3.0652 -0.8685
   22MOL   H44110983   3.425   7.644   7.064  0.3095 -2.3718 -1.6586
   22MOL   H44210984   3.306   7.529   6.998  0.2928  0.6577 -2.0287
   22MOL   H44310985   3.261   7.756   7.190  0.9084 -0.4682 -0.1199
   22MOL   H44410986   3.134   7.674   7.109 -0.4244 -4.1018  0.3032
   22MOL   H44510987   3.188   7.459   7.225  0.7808 -0.8365  0.6368
   22MOL   H44610988   3.331   7.538   7.288  0.3052  0.2885 -0.8695
   22MOL   H44710989   3.188   7.699   7.403 -0.9911  0.5559  0.3241
   22MOL   H44810990   3.051   7.597   7.349  0.0329  1.3314 -0.1189
   22MOL   H44910991   3.136   7.588   7.582 -1.3168 -1.9068  1.1230
   22MOL   H45010992   3.090   7.432   7.508 -1.7022  1.1176  0.7634
   22MOL   H45110993   3.261   7.469   7.525  0.1902 -2.5131 -3.3537
   22MOL   C45210994   3.101   7.691   6.629 -0.1693  0.1196 -0.9596
   22MOL   C45310995   3.232   7.627   6.567 -0.2729 -0.1563 -0.0255
   22MOL   O45410996   3.198   7.583   6.437 -0.0878  0.5166  0.0313
   22MOL   C45510997   3.243   7.660   6.327  0.2274  0.4456  0.1947
   22MOL   C45610998   3.229   7.595   6.185  0.0226 -0.6715  0.1279
   22MOL   C45710999   3.310   7.662   6.073  0.1945  0.5572 -0.1731
   22MOL   C45811000   3.300   7.585   5.935 -0.4170  0.6607 -0.6274
   22MOL   C45911001   3.336   7.671   5.817 -0.2441  0.3523 -0.5272
   22MOL   C46011002   3.332   7.606   5.680  0.5401  0.3606  0.1363
   22MOL   H46111003   3.028   7.614   6.653  1.0819 -0.6100  0.5795
   22MOL   H46211004   3.061   7.742   6.541  0.3631 -1.2762 -2.0224
   22MOL   H46311005   3.311   7.701   6.558 -0.6535  0.2992  0.3150
   22MOL   H46411006   3.349   7.676   6.343  0.4568 -0.4977 -0.3718
   22MOL   H46511007   3.200   7.760   6.336  0.9183  0.7400  0.2572
   22MOL   H46611008   3.124   7.599   6.159  0.2134  1.3530 -0.4540
   22MOL   H46711009   3.251   7.489   6.187  0.1134 -0.6403  2.4016
   22MOL   H46811010   3.282   7.768   6.067 -1.5671  0.0233 -1.6908
   22MOL   H46911011   3.418   7.664   6.092  1.0797  0.2288 -4.6568
   22MOL   H47011012   3.371   7.502   5.929 -1.1197  0.1285 -1.6672
   22MOL   H47111013   3.205   7.539   5.910 -0.2287 -0.4400  0.5782
   22MOL   H47211014   3.271   7.758   5.822  0.8425  1.0477  2.0788
   22MOL   H47311015   3.428   7.726   5.836  0.7829 -0.8831 -1.8687
   22MOL   H47411016   3.241   7.549   5.661 -0.6908  2.5476 -0.6671
   22MOL   H47511017   3.346   7.686   5.607  1.1561  0.8236  0.7536
   22MOL   H47611018   3.413   7.536   5.658 -0.1405 -0.1658 -0.7772
   22MOL   C47711019   3.291   7.509   6.640 -0.4478 -0.3818  0.2103
   22MOL   C47811020   3.425   7.454   6.575 -0.2623 -0.5020  0.0655
   22MOL   O47911021   3.451   7.327   6.632  0.1512  0.9212  0.2887
   22MOL   C48011022   3.575   7.272   6.592 -0.3772  0.1167  0.0470
   22MOL   C48111023   3.611   7.140   6.670 -0.2598 -0.6371  0.0110
   22MOL   C48211024   3.738   7.073   6.609 -0.2352 -0.0744  0.5346
   22MOL   C48311025   3.813   6.972   6.683 -0.1740  0.4528 -0.8539
   22MOL   C48411026   3.906   6.903   6.588 -0.2140  0.1317  0.6016
   22MOL   C48511027   3.982   6.785   6.657 -0.5253  0.1011 -0.1918
   22MOL   H48611028   3.299   7.523   6.747 -3.1233 -0.2685  0.4401
   22MOL   H48711029   3.222   7.424   6.648  0.6272 -1.3213 -0.3408
   22MOL   H48811030   3.408   7.447   6.468 -1.0868  2.3955 -0.0419
   22MOL   H48911031   3.648   7.352   6.608 -1.0001  0.8494 -0.7693
   22MOL   H49011032   3.563   7.251   6.486 -0.3890  0.3805 -0.0039
   22MOL   H49111033   3.529   7.071   6.647 -2.4817  1.0338  2.5116
   22MOL   H49211034   3.610   7.147   6.779  0.6262  2.9616 -0.1521
   22MOL   H49311035   3.730   7.041   6.505  2.3287  0.7100  0.0406
   22MOL   H49411036   3.813   7.152   6.595  1.8868 -2.0828  0.2149
   22MOL   H49511037   3.863   7.028   6.762 -0.0572 -1.9588  0.8378
   22MOL   H49611038   3.743   6.901   6.727  0.5363  0.3690  0.1407
   22MOL   H49711039   3.858   6.878   6.493 -0.9713  0.7311  0.8211
   22MOL   H49811040   3.977   6.980   6.557  1.5861 -0.7044  2.5562
   22MOL   H49911041   4.044   6.821   6.739 -1.5086  1.4549 -0.0295
   22MOL   H50011042   3.909   6.721   6.706  0.3466  0.7988  2.0753
   22MOL   H50111043   4.044   6.732   6.584 -1.4317  0.6570 -1.3889
   22MOL   H50211044   3.499   7.534   6.586 -2.0751  1.0007  1.8195
   23MOL     C111045   3.789   1.160   7.469  0.1336 -0.4077 -0.1314
   23MOL     C211046   3.715   1.055   7.547  0.6766 -0.1645  0.0644
   23MOL     O311047   3.728   0.930   7.484 -0.1546 -0.7169 -0.5130
   23MOL     C411048   3.751   0.815   7.566 -0.5816 -0.1749  0.1308
   23MOL     C511049   3.794   0.694   7.476 -1.0993 -0.0272  0.2928
   23MOL     C611050   3.766   0.555   7.532  0.4023 -0.8970  0.2101
   23MOL     C711051   3.802   0.436   7.444 -1.0580  0.6737  0.3338
   23MOL     C811052   3.790   0.300   7.518  0.5173 -0.0997 -0.2225
   23MOL     C911053   3.922   0.254   7.589  0.3053  0.2067  0.2729
   23MOL    H1011054   3.771   1.261   7.508 -2.6853 -0.4286 -1.2141
   23MOL    H1111055   3.894   1.144   7.489 -0.0327  1.9454  3.0139
   23MOL    H1211056   3.728   1.039   7.654 -2.1905 -1.4984  0.2686
   23MOL    H1311057   3.661   0.795   7.624  1.0273 -0.0631  2.7365
   23MOL    H1411058   3.832   0.830   7.637 -0.3014  1.0467 -0.4511
   23MOL    H1511059   3.898   0.710   7.450 -1.5301 -0.4697 -1.8018
   23MOL    H1611060   3.735   0.691   7.385 -0.2676 -2.2785 -0.1961
   23MOL    H1711061   3.820   0.539   7.626  0.0763  0.1625  0.5741
   23MOL    H1811062   3.661   0.543   7.559  0.0999 -0.9945 -0.9925
   23MOL    H1911063   3.742   0.436   7.353 -0.9262 -3.0159  0.1688
   23MOL    H2011064   3.904   0.438   7.406 -1.1507 -2.0165 -0.1769
   23MOL    H2111065   3.763   0.220   7.448 -1.6998 -0.7626  1.3350
   23MOL    H2211066   3.707   0.303   7.589 -0.3725 -1.7213 -1.1349
   23MOL    H2311067   3.968   0.333   7.649 -0.0260  2.1281 -1.9285
   23MOL    H2411068   3.908   0.162   7.644  2.8837  0.0905  0.8317
   23MOL    H2511069   4.010   0.238   7.527  1.4474  2.2496  1.2715
   23MOL    H2611070   3.774   1.157   7.361  0.9978 -1.9266 -0.2151
   23MOL    C2711071   3.561   1.080   7.549  0.3714  0.3726 -0.9757
   23MOL    C2811072   3.505   1.167   7.673  0.4079  0.2359 -0.7223
   23MOL    O2911073   3.390   1.241   7.638  0.5412  0.3853 -0.0178
   23MOL    C3011074   3.418   1.389   7.616  0.0355  0.1667 -0.2890
   23MOL    C3111075   3.286   1.453   7.587  0.3518  0.3015 -0.3332
   23MOL    C3211076   3.297   1.599   7.540  0.5685  0.3128  0.1396
   23MOL    C3311077   3.353   1.621   7.399 -0.4995  0.1435 -0.2258
   23MOL    C3411078   3.337   1.762   7.353 -0.1230  0.1597 -0.4488
   23MOL    C3511079   3.439   1.792   7.246 -0.4037  0.2651 -0.2416
   23MOL    H3611080   3.537   1.133   7.457  1.9305  3.1080  0.1320
   23MOL    H3711081   3.507   0.986   7.544 -2.3307  1.9250 -1.9195
   23MOL    H3811082   3.583   1.233   7.710 -0.6888  1.3153 -0.2774
   23MOL    H3911083   3.481   1.405   7.529  1.3602  0.3440  0.6977
   23MOL    H4011084   3.478   1.440   7.691 -0.8361  1.4958 -0.4803
   23MOL    H4111085   3.229   1.454   7.679 -1.2425  1.4918 -1.3090
   23MOL    H4211086   3.228   1.386   7.522 -1.5366  0.9718  0.6168
   23MOL    H4311087   3.193   1.631   7.543  0.6131  0.5197 -0.6199
   23MOL    H4411088   3.350   1.649   7.621  1.0822  0.8164 -0.5058
   23MOL    H4511089   3.459   1.597   7.404 -0.2144  0.8862 -2.1230
   23MOL    H4611090   3.312   1.549   7.327  0.1706 -1.4176  0.9333
   23MOL    H4711091   3.239   1.787   7.312  0.0289  1.6136  0.0383
   23MOL    H4811092   3.346   1.835   7.434 -1.7621  0.2252 -0.3044
   23MOL    H4911093   3.541   1.786   7.285 -0.4200  3.7548  0.4836
   23MOL    H5011094   3.437   1.717   7.167  1.6532  2.4542 -2.4822
   23MOL    H5111095   3.430   1.883   7.187 -1.1930  0.6686  0.5022
   23MOL    C5211096   3.468   1.073   0.007 -0.4053  0.4360  0.4716
   23MOL    C5311097   3.417   1.146   0.134  0.1869  0.6324  0.2219
   23MOL    O5411098   3.378   1.050   0.234  0.4462  0.3650 -0.7572
   23MOL    C5511099   3.232   1.012   0.226 -0.0292 -0.1081 -0.1747
   23MOL    C5611100   3.140   1.113   0.287  0.1324 -0.2293 -0.6110
   23MOL    C5711101   3.000   1.077   0.309 -0.2783  0.3285  0.2620
   23MOL    C5811102   2.911   1.181   0.383 -0.3743  0.0492  0.1435
   23MOL    C5911103   2.778   1.105   0.405  0.8185 -0.8733 -0.6422
   23MOL    C6011104   2.698   1.203   0.495  0.2128 -0.1285 -0.0248
   23MOL    H6111105   3.542   0.998   0.034 -1.7488 -1.5494 -1.2518
   23MOL    H6211106   3.386   1.009   7.755  1.1322 -1.6290  0.5475
   23MOL    H6311107   3.346   1.223   0.103  0.3806  0.8471  0.3082
   23MOL    H6411108   3.210   0.921   0.282 -2.1254 -0.8810 -2.1835
   23MOL    H6511109   3.208   0.992   0.122  0.3209 -1.6181  0.0230
   23MOL    H6611110   3.150   1.204   0.227  2.0444 -0.1262 -0.1730
   23MOL    H6711111   3.179   1.130   0.388  3.6493  0.2751 -1.9641
   23MOL    H6811112   2.948   1.059   0.215 -0.9385  2.0152  0.2824
   23MOL    H6911113   2.983   0.987   0.368 -1.3552  2.1218  2.7998
   23MOL    H7011114   2.952   1.213   0.478 -2.6538  0.9284  0.8761
   23MOL    H7111115   2.886   1.276   0.335  0.2590 -0.1592 -0.6108
   23MOL    H7211116   2.720   1.087   0.315 -3.0299  2.3439  1.0609
   23MOL    H7311117   2.787   1.008   0.455  4.7125  0.3723  1.2887
   23MOL    H7411118   2.596   1.163   0.494 -0.7358  2.2431 -1.0836
   23MOL    H7511119   2.734   1.205   0.598 -0.3648 -1.1936  0.2032
   23MOL    H7611120   2.703   1.305   0.456  1.0991 -0.8736 -1.9127
   23MOL    C7711121   3.535   1.215   0.209 -0.1742  0.2233  0.7374
   23MOL    C7811122   3.513   1.301   0.327  0.8364 -0.2043  0.1329
   23MOL    O7911123   3.474   1.435   0.299  0.3755 -0.2835 -0.2043
   23MOL    C8011124   3.335   1.461   0.296  0.3057 -0.0943 -0.2401
   23MOL    C8111125   3.308   1.597   0.229 -0.2032 -0.1872 -0.0284
   23MOL    C8211126   3.159   1.605   0.187 -0.2983  0.7254 -0.0350
   23MOL    C8311127   3.131   1.725   0.094  0.4757  0.1881  0.7048
   23MOL    C8411128   2.983   1.748   0.055 -0.3271 -0.8354 -0.4611
   23MOL    C8511129   2.953   1.884   7.772 -0.6013  0.6348  0.1632
   23MOL    H8611130   3.598   1.274   0.142 -0.0303 -0.8318 -0.0716
   23MOL    H8711131   3.602   1.133   0.233 -3.4537 -2.4128  1.1374
   23MOL    H8811132   3.445   1.241   0.387 -1.1407  2.5526  0.7303
   23MOL    H8911133   3.286   1.467   0.393 -1.5746 -1.0218 -1.1066
   23MOL    H9011134   3.293   1.379   0.237  0.8379  0.1392 -0.9479
   23MOL    H9111135   3.378   1.595   0.146 -0.6857 -1.4657 -0.4226
   23MOL    H9211136   3.352   1.679   0.286  0.5716  0.1462 -1.0924
   23MOL    H9311137   3.124   1.513   0.138 -0.2502  0.7490 -0.1135
   23MOL    H9411138   3.104   1.626   0.279  2.8719  1.8230  1.6755
   23MOL    H9511139   3.179   1.817   0.128 -2.1030  0.9941  2.2818
   23MOL    H9611140   3.169   1.711   7.772  1.2168  1.7534  0.7499
   23MOL    H9711141   2.946   1.668   7.768  0.8689 -0.3094 -1.8071
   23MOL    H9811142   2.937   1.731   0.152 -0.4959 -1.6697 -0.6750
   23MOL    H9911143   2.971   1.955   0.073 -0.3716  1.2499 -0.4386
   23MOL   H10011144   3.009   1.916   7.684  0.2339 -1.8173 -0.2436
   23MOL   H10111145   2.845   1.878   7.753 -0.8403 -1.3112  1.9262
   23MOL   C10211146   3.646   1.309   0.408  0.4122  0.6901 -0.7513
   23MOL   C10311147   3.619   1.356   0.547  0.1634 -0.2867  0.2074
   23MOL   O10411148   3.559   1.254   0.630 -0.1240 -0.2156  0.3439
   23MOL   C10511149   3.454   1.311   0.711 -0.5144  0.3332 -0.5834
   23MOL   C10611150   3.354   1.199   0.736  0.1625 -0.0244 -0.3658
   23MOL   C10711151   3.226   1.225   0.825  0.2421  0.2999  0.1265
   23MOL   C10811152   3.123   1.319   0.753 -0.1410 -0.6215  0.1488
   23MOL   C10911153   3.009   1.355   0.848 -0.0042 -0.9155  0.5804
   23MOL   C11011154   2.885   1.412   0.775 -0.9234 -0.2528  0.8339
   23MOL   H11111155   3.700   1.215   0.420 -1.8469 -0.2468  3.0938
   23MOL   H11211156   3.714   1.381   0.361  0.9185  1.5425  1.2314
   23MOL   H11311157   3.569   1.452   0.543 -1.7891 -1.3457 -1.8114
   23MOL   H11411158   3.412   1.394   0.655  0.8573 -0.0094 -2.1485
   23MOL   H11511159   3.494   1.345   0.807  0.5693  2.6245 -1.8217
   23MOL   H11611160   3.406   1.114   0.781 -0.1326 -0.1930 -0.3393
   23MOL   H11711161   3.306   1.173   0.642  1.4155 -0.7814 -0.7971
   23MOL   H11811162   3.185   1.126   0.844  3.1708 -1.1839 -0.9187
   23MOL   H11911163   3.253   1.249   0.928 -2.1136 -2.2329  1.3914
   23MOL   H12011164   3.177   1.408   0.720 -1.9094  0.3765 -0.1126
   23MOL   H12111165   3.091   1.274   0.659  0.9799 -0.7537 -0.1828
   23MOL   H12211166   2.966   1.265   0.893 -2.3158 -0.5799 -0.8686
   23MOL   H12311167   3.055   1.416   0.926  1.9535 -2.3248  0.5651
   23MOL   H12411168   2.904   1.516   0.749  3.2316 -1.3287 -0.8353
   23MOL   H12511169   2.853   1.359   0.686 -3.4907  1.8133  0.4685
   23MOL   H12611170   2.804   1.399   0.847 -2.0494 -1.7042 -0.6693
   23MOL   C12711171   3.758   1.386   0.619 -0.2409  0.4218 -0.3296
   23MOL   C12811172   3.754   1.489   0.741 -0.1782  0.3727  0.1473
   23MOL   O12911173   3.709   1.616   0.694 -0.1107  0.7345 -0.0089
   23MOL   C13011174   3.691   1.716   0.794 -0.5309 -0.6633  0.3064
   23MOL   C13111175   3.604   1.816   0.721  0.4751 -0.2932  0.1719
   23MOL   C13211176   3.480   1.762   0.665 -0.3178 -0.1537 -0.4060
   23MOL   C13311177   3.367   1.852   0.660  0.3564  0.3611 -0.2296
   23MOL   C13411178   3.244   1.794   0.583  0.2365 -0.2221 -0.6558
   23MOL   C13511179   3.186   1.666   0.645 -0.8370  0.0134  0.0144
   23MOL   H13611180   3.805   1.297   0.660  0.8947  1.5194  0.7986
   23MOL   H13711181   3.834   1.417   0.547  1.2416 -1.9845  0.1629
   23MOL   H13811182   3.684   1.447   0.814  0.1253  3.6883  2.4694
   23MOL   H13911183   3.786   1.754   0.830 -0.9736  0.5169  0.2598
   23MOL   H14011184   3.645   1.667   0.879 -4.3760  0.3020 -1.0699
   23MOL   H14111185   3.670   1.868   0.652  0.3357 -0.1099  0.1772
   23MOL   H14211186   3.583   1.889   0.800  0.0279  0.5586 -0.7330
   23MOL   H14311187   3.514   1.721   0.570 -1.4972  0.3337 -1.0465
   23MOL   H14411188   3.448   1.676   0.724 -0.4881  0.5257  0.4985
   23MOL   H14511189   3.337   1.886   0.760  1.7667  1.0443 -0.0345
   23MOL   H14611190   3.403   1.947   0.623 -1.1873  0.5626 -1.2705
   23MOL   H14711191   3.166   1.870   0.579  2.3323  1.9456 -1.4288
   23MOL   H14811192   3.269   1.779   0.478 -0.3917 -4.5895 -0.2678
   23MOL   H14911193   3.117   1.641   0.564 -1.1883  1.1350 -0.0450
   23MOL   H15011194   3.261   1.587   0.649 -0.1998  0.5892 -0.5018
   23MOL   H15111195   3.139   1.674   0.743  1.3617 -1.1385  1.1929
   23MOL   C15211196   3.893   1.487   0.808  0.4418  0.7219  0.5774
   23MOL   C15311197   3.884   1.482   0.962 -0.0568 -1.1471  0.0204
   23MOL   O15411198   3.863   1.353   1.015  0.4120 -0.2820  0.6387
   23MOL   C15511199   3.761   1.350   1.125 -0.5438  0.7013  0.5750
   23MOL   C15611200   3.750   1.210   1.167  0.1543  0.3152  0.0880
   23MOL   C15711201   3.657   1.178   1.282 -0.0617 -0.2623  0.4293
   23MOL   C15811202   3.503   1.212   1.269 -0.3262  0.0449  0.1036
   23MOL   C15911203   3.474   1.351   1.313  0.2528 -0.2555 -0.2131
   23MOL   C16011204   3.338   1.400   1.259  0.2758  0.2550  0.7665
   23MOL   H16111205   3.952   1.398   0.784  0.5805  0.6868  1.0358
   23MOL   H16211206   3.936   1.577   0.766  0.2751  1.0677  1.1443
   23MOL   H16311207   3.813   1.561   0.988 -1.3493 -1.1206 -3.2690
   23MOL   H16411208   3.670   1.394   1.083  0.3326  0.2561 -1.8135
   23MOL   H16511209   3.794   1.414   1.207  1.3250  0.6833 -0.1529
   23MOL   H16611210   3.853   1.177   1.187  0.6164  2.2383  0.9459
   23MOL   H16711211   3.723   1.137   1.090  0.8035 -0.9885  1.0652
   23MOL   H16811212   3.666   1.073   1.307 -3.7677 -1.2312 -1.7611
   23MOL   H16911213   3.704   1.224   1.368 -0.0501  1.3471 -0.4124
   23MOL   H17011214   3.484   1.195   1.163 -1.4004  1.1634  0.1101
   23MOL   H17111215   3.446   1.145   1.333 -0.4146  2.0649  2.2006
   23MOL   H17211216   3.462   1.354   1.422  0.1193 -0.4425 -0.2213
   23MOL   H17311217   3.554   1.419   1.285  0.6780 -0.6399  0.0512
   23MOL   H17411218   3.352   1.414   1.152 -2.7422  2.1923  0.5754
   23MOL   H17511219   3.265   1.323   1.281  0.2184  0.5206  1.5459
   23MOL   H17611220   3.310   1.497   1.300 -2.7800  0.4958 -1.7009
   23MOL   C17711221   4.022   1.515   1.012  0.6475 -0.4205  0.5742
   23MOL   C17811222   4.047   1.663   1.040  0.3350  0.1212 -0.2996
   23MOL   O17911223   3.961   1.701   1.146  0.7211  0.8128  0.4366
   23MOL   C18011224   3.923   1.837   1.139  0.0805 -0.1318  0.0379
   23MOL   C18111225   3.788   1.858   1.204 -0.6440 -0.2529  0.0872
   23MOL   C18211226   3.663   1.818   1.128 -0.1738 -0.2483 -0.1511
   23MOL   C18311227   3.532   1.839   1.206  0.9309 -0.0064  0.2177
   23MOL   C18411228   3.407   1.852   1.111  0.0985 -0.4667 -0.2926
   23MOL   C18511229   3.363   1.722   1.040  0.4403 -0.0874  0.3696
   23MOL   H18611230   4.047   1.463   1.105  2.4649 -0.4878  0.0579
   23MOL   H18711231   4.105   1.488   0.946  0.9221 -2.5271  1.7601
   23MOL   H18811232   4.031   1.718   0.947 -0.5470  2.0499  0.9584
   23MOL   H18911233   3.920   1.862   1.033 -0.5727  0.9283  0.2983
   23MOL   H19011234   4.003   1.894   1.188  0.1235  1.1542 -1.4770
   23MOL   H19111235   3.764   1.964   1.209 -0.2220 -0.0693 -1.5577
   23MOL   H19211236   3.803   1.810   1.301 -0.0717  0.3120  0.2841
   23MOL   H19311237   3.667   1.871   1.033  0.4982  0.0026  0.0135
   23MOL   H19411238   3.693   1.716   1.103 -1.5621  0.0827 -3.2744
   23MOL   H19511239   3.524   1.754   1.274 -0.1199  0.8713  1.2085
   23MOL   H19611240   3.527   1.933   1.260  0.5109  0.3927 -0.5065
   23MOL   H19711241   3.330   1.907   1.165  1.1185  0.0151  0.6831
   23MOL   H19811242   3.434   1.911   1.023 -0.6458 -1.6677 -1.3505
   23MOL   H19911243   3.324   1.650   1.113 -0.9141  1.8368  1.5915
   23MOL   H20011244   3.296   1.749   0.959 -1.2861  0.0230  1.7755
   23MOL   H20111245   3.459   1.678   1.014  0.5856  0.6028 -0.2741
   23MOL   C20211246   4.192   1.698   1.098  0.6902  0.3053 -0.6855
   23MOL   C20311247   4.254   1.829   1.075 -0.1333 -0.7136  0.4718
   23MOL   O20411248   4.232   1.855   0.941 -0.2218 -0.2833 -0.3878
   23MOL   C20511249   4.175   1.983   0.915 -0.2855  0.3755 -0.3262
   23MOL   C20611250   4.076   1.962   0.788 -0.0018 -0.4015 -1.0317
   23MOL   C20711251   4.005   2.090   0.743  0.5872  0.1933  0.6293
   23MOL   C20811252   3.949   2.074   0.599 -0.4803  0.0145  0.8760
   23MOL   C20911253   3.882   2.202   0.544 -0.2987 -0.0484 -1.1257
   23MOL   C21011254   3.963   2.332   0.555 -0.2697 -0.4628 -0.5951
   23MOL   H21111255   4.208   1.665   1.201 -2.2010 -1.8467 -0.8729
   23MOL   H21211256   4.262   1.626   1.056 -1.3939 -2.3063  0.2414
   23MOL   H21311257   4.214   1.907   1.140  1.5933  2.2998 -1.9117
   23MOL   H21411258   4.263   2.041   0.890  0.3314  0.3399  1.7304
   23MOL   H21511259   4.121   2.024   1.000 -0.9610 -2.4885  0.6970
   23MOL   H21611260   4.001   1.888   0.814 -1.8667  1.9725  0.5714
   23MOL   H21711261   4.143   1.935   0.706 -0.5001 -2.3912 -0.8011
   23MOL   H21811262   3.924   2.105   0.815  2.4034  1.1793  2.5192
   23MOL   H21911263   4.074   2.174   0.738 -0.2804  0.8682 -0.1722
   23MOL   H22011264   4.031   2.052   0.531 -0.2497  0.1569  1.1089
   23MOL   H22111265   3.879   1.990   0.600  1.2012 -1.4234  2.5663
   23MOL   H22211266   3.846   2.189   0.442 -0.3762  2.1601 -1.4035
   23MOL   H22311267   3.789   2.219   0.598 -0.9634 -1.6476 -1.7510
   23MOL   H22411268   3.996   2.359   0.656 -3.7251  1.2716  0.1336
   23MOL   H22511269   4.043   2.315   0.483 -0.4893 -1.4300 -0.6205
   23MOL   H22611270   3.898   2.411   0.518  1.9887  2.0818  0.6673
   23MOL   C22711271   4.399   1.834   1.087 -0.7526 -1.2270 -0.0379
   23MOL   C22811272   4.474   1.960   1.109 -0.3537 -0.0702  0.5097
   23MOL   O22911273   4.440   2.003   1.243 -0.6348 -0.7485  0.2942
   23MOL   C23011274   4.400   2.135   1.253  0.8748 -0.7025  0.3618
   23MOL   C23111275   4.366   2.179   1.393 -0.1706  0.2735  0.2507
   23MOL   C23211276   4.314   2.320   1.402  0.1959 -0.1342  0.2692
   23MOL   C23311277   4.254   2.339   1.537  0.1870 -0.1448 -0.3150
   23MOL   C23411278   4.162   2.460   1.549  0.5572 -0.3999 -0.2793
   23MOL   C23511279   4.017   2.434   1.493 -0.7890  0.4673 -0.3212
   23MOL   H23611280   4.425   1.764   1.167 -0.3189  0.1658  1.0689
   23MOL   H23711281   4.444   1.778   1.006  1.1107 -0.8612  0.7124
   23MOL   H23811282   4.448   2.035   1.034 -2.8660 -0.7551  0.6420
   23MOL   H23911283   4.313   2.138   1.188  2.1193 -2.6700 -1.4608
   23MOL   H24011284   4.479   2.197   1.210  1.2505 -2.2978 -1.2712
   23MOL   H24111285   4.442   2.168   1.470  2.7594 -0.6943 -2.6456
   23MOL   H24211286   4.297   2.106   1.434 -0.1419  0.1903  0.1504
   23MOL   H24311287   4.403   2.380   1.386 -1.5959  2.9090  1.3486
   23MOL   H24411288   4.248   2.341   1.318 -1.8362 -0.9361  1.6301
   23MOL   H24511289   4.204   2.247   1.568  1.2933 -0.4199  0.7104
   23MOL   H24611290   4.335   2.356   1.607  0.8216 -2.6100 -0.3934
   23MOL   H24711291   4.165   2.492   1.653  1.4464 -1.6474  0.0975
   23MOL   H24811292   4.201   2.548   1.497  4.6162 -1.4980  0.7031
   23MOL   H24911293   3.978   2.338   1.526  0.9243  0.2581  1.1890
   23MOL   H25011294   3.962   2.521   1.529  0.0144  0.4594  0.9333
   23MOL   H25111295   4.005   2.437   1.384 -1.1539 -1.0890 -0.3304
   23MOL   C25211296   4.625   1.935   1.083  0.8954 -0.0629 -0.0892
   23MOL   C25311297   4.710   2.061   1.072  0.5625 -0.0033 -0.4684
   23MOL   O25411298   4.831   2.036   1.007  0.1857  0.2541  0.3642
   23MOL   C25511299   4.843   2.054   0.865 -0.3950  0.8970 -0.0953
   23MOL   C25611300   4.994   2.067   0.843  0.6033 -0.3358 -0.2689
   23MOL   C25711301   5.049   2.206   0.890 -0.2337 -0.2017  0.7233
   23MOL   C25811302   5.188   2.235   0.839  0.1690 -0.2683  0.8019
   23MOL   C25911303   5.220   2.384   0.849 -0.0524 -0.1404 -0.4444
   23MOL   C26011304   5.371   2.421   0.820 -0.3543  0.7431  0.8429
   23MOL   H26111305   4.653   1.873   1.168 -0.9547 -2.1081 -0.9564
   23MOL   H26211306   4.632   1.872   0.995  1.2250  2.3883 -1.8727
   23MOL   H26311307   4.670   2.141   1.010  0.3792 -0.6330 -1.1768
   23MOL   H26411308   4.792   2.147   0.841 -1.6608  0.7008  1.7106
   23MOL   H26511309   4.787   1.976   0.813 -0.6363  1.0700 -0.0947
   23MOL   H26611310   5.018   2.052   0.738  3.0916 -0.6672  0.3176
   23MOL   H26711311   5.044   1.982   0.888 -0.3330 -0.8728 -0.2382
   23MOL   H26811312   4.988   2.287   0.851  2.6209  1.9190  0.4775
   23MOL   H26911313   5.049   2.219   0.998  0.7708 -0.7354  0.7986
   23MOL   H27011314   5.262   2.173   0.889  1.3743  1.5951  1.3939
   23MOL   H27111315   5.191   2.212   0.732 -2.1366 -1.3393  0.9314
   23MOL   H27211316   5.168   2.442   0.773 -1.9725  0.5097  1.2958
   23MOL   H27311317   5.180   2.432   0.939 -1.1449 -0.3428 -0.8204
   23MOL   H27411318   5.389   2.526   0.798  1.3094  0.0796 -1.0618
   23MOL   H27511319   5.428   2.394   0.910 -1.7156 -0.1094  1.4667
   23MOL   H27611320   5.419   2.371   0.736 -0.4227  0.6836  0.8392
   23MOL   C27711321   4.755   2.107   1.210  0.2432  0.4915 -0.1000
   23MOL   C27811322   4.811   2.253   1.219  0.0762 -0.4597  0.6377
   23MOL   O27911323   4.697   2.340   1.213  0.6639  0.5276  0.0428
   23MOL   C28011324   4.704   2.455   1.122 -0.2242  0.5082 -0.8276
   23MOL   C28111325   4.589   2.552   1.158  0.3546  0.3395  0.4427
   23MOL   C28211326   4.643   2.629   1.279  0.1687 -0.5667 -0.0323
   23MOL   C28311327   4.541   2.726   1.345  0.2957  0.0567 -0.2387
   23MOL   C28411328   4.567   2.774   1.491 -0.3163 -0.0862 -0.3006
   23MOL   C28511329   4.446   2.863   1.546 -0.5085  0.1442 -0.6990
   23MOL   H28611330   4.673   2.106   1.281 -0.9414  0.9005 -1.4522
   23MOL   H28711331   4.823   2.038   1.262 -4.0017 -1.9806  2.5123
   23MOL   H28811332   4.872   2.283   1.134  0.5500 -1.8744  0.4602
   23MOL   H28911333   4.687   2.423   1.019 -1.5013 -1.9997  0.1187
   23MOL   H29011334   4.803   2.501   1.121 -0.4320  0.9517 -1.0607
   23MOL   H29111335   4.486   2.516   1.156 -0.1088  1.6640 -0.2287
   23MOL   H29211336   4.587   2.622   1.075  2.0970 -1.2732 -1.0142
   23MOL   H29311337   4.651   2.550   1.354 -2.5056  0.6923  1.6805
   23MOL   H29411338   4.733   2.682   1.250 -0.6648 -0.9702 -3.6374
   23MOL   H29511339   4.532   2.817   1.286 -0.7391  0.0100 -0.1662
   23MOL   H29611340   4.441   2.682   1.344 -0.2228  1.1550  1.9108
   23MOL   H29711341   4.583   2.684   1.550  0.8969 -1.7357 -3.0499
   23MOL   H29811342   4.661   2.830   1.496  0.9866 -2.1651 -1.0560
   23MOL   H29911343   4.416   2.946   1.482  1.2625  0.8394 -0.6514
   23MOL   H30011344   4.357   2.803   1.564 -1.2248  0.6824 -2.3094
   23MOL   H30111345   4.476   2.907   1.641  0.5717  0.2679 -1.0938
   23MOL   C30211346   4.889   2.278   1.353  1.2166 -0.2769 -0.1356
   23MOL   C30311347   5.031   2.202   1.369  0.2478 -0.2698 -0.1877
   23MOL   O30411348   5.044   2.181   1.507 -0.1390 -0.5814  0.1658
   23MOL   C30511349   5.033   2.049   1.549  0.6313 -0.5228 -0.0873
   23MOL   C30611350   5.093   2.036   1.684 -0.1300 -0.4458 -0.7497
   23MOL   C30711351   5.218   2.129   1.699  0.1115 -0.2294  0.0275
   23MOL   C30811352   5.265   2.139   1.847 -0.4189  0.3432  0.2598
   23MOL   C30911353   5.401   2.208   1.846  0.0377  0.0416  0.4427
   23MOL   C31011354   5.443   2.207   1.999  0.4623 -0.7580 -0.2753
   23MOL   H31111355   4.922   2.380   1.371  2.5823 -1.1609  2.7156
   23MOL   H31211356   4.822   2.254   1.436  1.4451 -1.9915 -0.4269
   23MOL   H31311357   5.022   2.106   1.319 -2.9673 -0.4742  0.6408
   23MOL   H31411358   5.096   1.993   1.481  1.8552  1.0885 -0.3102
   23MOL   H31511359   4.932   2.007   1.543  0.9250 -0.8886 -3.2088
   23MOL   H31611360   5.114   1.930   1.698  0.9382 -0.3169 -1.3183
   23MOL   H31711361   5.022   2.068   1.761  0.7459 -0.8069  0.2196
   23MOL   H31811362   5.296   2.091   1.633 -0.3923  0.3082 -0.8874
   23MOL   H31911363   5.206   2.233   1.668  0.3976 -0.9947 -2.7958
   23MOL   H32011364   5.191   2.202   1.896 -0.9252  0.8021 -1.0856
   23MOL   H32111365   5.284   2.038   1.883 -0.9296  0.3108  0.4383
   23MOL   H32211366   5.469   2.151   1.783 -0.8765 -1.1854  0.5393
   23MOL   H32311367   5.390   2.306   1.799  0.9045  0.1593  0.4709
   23MOL   H32411368   5.549   2.229   2.006  0.3830 -0.4606 -0.0389
   23MOL   H32511369   5.387   2.272   2.066  0.7591 -0.7685 -0.0186
   23MOL   H32611370   5.430   2.107   2.040 -1.3168 -0.0512  0.9466
   23MOL   C32711371   5.152   2.274   1.314 -0.4341 -0.0320 -0.3923
   23MOL   C32811372   5.285   2.190   1.306  0.6000  0.5496  0.6229
   23MOL   O32911373   5.256   2.091   1.206 -1.3312  0.3316  0.5176
   23MOL   C33011374   5.318   1.961   1.228 -0.5977 -0.1233  0.2917
   23MOL   C33111375   5.313   1.870   1.103 -0.6134  0.1619  0.3495
   23MOL   C33211376   5.187   1.788   1.110  0.0965 -0.3657 -0.2670
   23MOL   C33311377   5.183   1.703   0.981 -0.1914 -0.2945 -0.5205
   23MOL   C33411378   5.053   1.623   0.964  0.4446  0.2819 -0.0302
   23MOL   C33511379   4.922   1.702   0.930 -0.6187 -0.5275  0.8508
   23MOL   H33611380   5.190   2.357   1.375  0.2581 -1.5204  1.2548
   23MOL   H33711381   5.131   2.309   1.213  2.6938 -0.5428 -1.2415
   23MOL   H33811382   5.299   2.146   1.405 -0.9937 -0.7521  0.2931
   23MOL   H33911383   5.268   1.920   1.316 -1.8239  0.3278 -0.1806
   23MOL   H34011384   5.425   1.969   1.248 -0.4921  1.7335 -0.8338
   23MOL   H34111385   5.398   1.803   1.103  0.4913  1.5057 -1.2035
   23MOL   H34211386   5.310   1.934   1.015 -1.3444  2.4322  1.9604
   23MOL   H34311387   5.181   1.725   1.199  3.0479 -0.8975 -0.3896
   23MOL   H34411388   5.094   1.845   1.113 -0.8131 -1.7753 -1.1357
   23MOL   H34511389   5.189   1.770   0.895 -0.0933 -2.2690 -2.0909
   23MOL   H34611390   5.275   1.645   0.980  0.5456  0.8479  0.0772
   23MOL   H34711391   5.068   1.563   0.874  0.0285 -1.7927  1.2605
   23MOL   H34811392   5.029   1.558   1.048 -0.5367  0.9318  0.2087
   23MOL   H34911393   4.898   1.781   1.001 -0.7636 -0.0969  0.3276
   23MOL   H35011394   4.932   1.757   0.837 -0.9468  0.6800  1.5245
   23MOL   H35111395   4.842   1.628   0.933 -0.2576 -0.9097  1.0957
   23MOL   C35211396   5.398   2.282   1.252 -0.9371  0.0437 -0.4034
   23MOL   C35311397   5.440   2.413   1.313 -0.0024 -0.0711  0.7999
   23MOL   O35411398   5.544   2.468   1.231  0.1881  0.6104 -0.3039
   23MOL   C35511399   5.506   2.562   1.138 -0.2666 -0.9484  0.1332
   23MOL   C35611400   5.625   2.601   1.049  0.7891 -0.3590 -0.1400
   23MOL   C35711401   5.749   2.658   1.130 -0.0008 -0.9667 -0.2526
   23MOL   C35811402   5.853   2.744   1.054 -0.3792  0.3008  0.2609
   23MOL   C35911403   5.790   2.855   0.964  0.7165  0.3295  0.1246
   23MOL   C36011404   5.891   2.941   0.887 -0.2798  0.9004  0.7648
   23MOL   H36111405   5.489   2.225   1.233 -0.0200  1.5914 -0.7776
   23MOL   H36211406   5.361   2.306   1.152  1.0916  0.3856 -1.1063
   23MOL   H36311407   5.356   2.482   1.320  0.3351  0.5998 -1.3187
   23MOL   H36411408   5.462   2.651   1.183  3.0540 -0.0091  1.7065
   23MOL   H36511409   5.430   2.525   1.070 -0.2327 -0.2831 -0.2720
   23MOL   H36611410   5.578   2.678   0.987 -1.6193 -2.0566 -0.4655
   23MOL   H36711411   5.666   2.519   0.991  0.0350 -1.3751  0.7461
   23MOL   H36811412   5.708   2.724   1.206 -0.3110 -0.7112 -0.6373
   23MOL   H36911413   5.803   2.576   1.177 -0.3057 -0.7983  0.3875
   23MOL   H37011414   5.930   2.788   1.118  0.6777 -1.7212  0.3978
   23MOL   H37111415   5.901   2.678   0.983  0.0381  0.3420  0.5060
   23MOL   H37211416   5.722   2.802   0.898 -1.9526  0.4859  2.6552
   23MOL   H37311417   5.725   2.923   1.019 -0.9740 -0.8787 -0.3460
   23MOL   H37411418   5.844   3.018   0.825 -0.3762  0.5732  0.4315
   23MOL   H37511419   5.958   2.994   0.956  0.9776 -0.3406  0.5339
   23MOL   H37611420   5.957   2.883   0.823 -0.0159  1.6883  0.3052
   23MOL   C37711421   5.494   2.381   1.452 -0.1187  0.4783  1.0366
   23MOL   C37811422   5.531   2.509   1.534  0.3072 -0.2832  0.0365
   23MOL   O37911423   5.608   2.462   1.641  0.0565 -0.2424  0.4242
   23MOL   C38011424   5.750   2.488   1.633 -0.1705  0.1653 -0.1764
   23MOL   C38111425   5.830   2.438   1.755 -0.4181 -0.6229  0.2886
   23MOL   C38211426   5.798   2.523   1.878  0.2280 -0.8738  0.3566
   23MOL   C38311427   5.682   2.466   1.969 -0.3853  0.8305 -0.4102
   23MOL   C38411428   5.646   2.565   2.084 -0.1167 -0.1691 -0.3211
   23MOL   C38511429   5.540   2.515   2.178 -0.0548  0.2440 -0.0084
   23MOL   H38611430   5.427   2.325   1.516 -0.0809 -0.0978  0.5760
   23MOL   H38711431   5.583   2.321   1.435 -0.8262 -0.0669 -0.8999
   23MOL   H38811432   5.593   2.574   1.473  2.1643 -1.8571  0.2070
   23MOL   H38911433   5.769   2.593   1.612 -0.3639 -0.0417 -1.4166
   23MOL   H39011434   5.783   2.444   1.539  0.3572 -0.3466  0.2457
   23MOL   H39111435   5.936   2.443   1.729 -0.0208 -2.9351  1.4105
   23MOL   H39211436   5.811   2.331   1.756 -0.4109 -0.6193  1.6510
   23MOL   H39311437   5.892   2.549   1.928  0.3542  0.9051 -0.7856
   23MOL   H39411438   5.758   2.615   1.835 -1.6112 -2.6797 -1.9122
   23MOL   H39511439   5.592   2.433   1.916 -0.6240 -1.2694  1.2703
   23MOL   H39611440   5.720   2.379   2.021 -1.2190 -0.2319 -1.5426
   23MOL   H39711441   5.738   2.590   2.137  1.3375 -1.1212 -2.3362
   23MOL   H39811442   5.617   2.662   2.045  1.6009  0.2905 -0.5015
   23MOL   H39911443   5.510   2.592   2.250 -1.8649  0.9253 -1.4318
   23MOL   H40011444   5.450   2.490   2.122  0.4249 -0.2533 -0.5714
   23MOL   H40111445   5.568   2.429   2.237 -0.0242  0.3977  0.2006
   23MOL   C40211446   5.411   2.571   1.605 -0.1359 -0.4227 -0.1760
   23MOL   C40311447   5.432   2.709   1.672 -0.5154 -0.2491  0.1765
   23MOL   O40411448   5.336   2.730   1.771  0.5729 -0.7117  0.0608
   23MOL   C40511449   5.389   2.725   1.902  0.4667 -0.0017  0.0022
   23MOL   C40611450   5.282   2.737   2.002  0.1343  0.6945 -0.6516
   23MOL   C40711451   5.221   2.877   2.012  0.0747  0.4779 -0.0053
   23MOL   C40811452   5.104   2.882   2.110  0.1716 -0.4157  0.2274
   23MOL   C40911453   5.076   3.028   2.147  0.2358 -0.1366 -0.5250
   23MOL   C41011454   4.957   3.026   2.247  0.5803  0.1773 -0.3630
   23MOL   H41111455   5.364   2.500   1.673 -0.6373 -2.1823 -2.2745
   23MOL   H41211456   5.329   2.575   1.534  0.6261  0.2974 -1.0294
   23MOL   H41311457   5.531   2.714   1.718 -0.7002  0.6985  0.4794
   23MOL   H41411458   5.461   2.805   1.920 -1.7942  2.0628  0.0811
   23MOL   H41511459   5.435   2.627   1.920 -0.3522 -0.8387 -2.1773
   23MOL   H41611460   5.323   2.707   2.099  0.7974  1.6268 -0.6447
   23MOL   H41711461   5.198   2.668   1.991  0.6179  0.2577 -1.6702
   23MOL   H41811462   5.299   2.944   2.048 -0.5862  0.9090  0.6613
   23MOL   H41911463   5.198   2.930   1.920 -0.6965  0.6989  0.3079
   23MOL   H42011464   5.009   2.854   2.066  0.5012  1.5598 -1.8496
   23MOL   H42111465   5.121   2.832   2.205 -2.4990  1.2913  1.6380
   23MOL   H42211466   5.159   3.067   2.205 -1.4398  0.8461  1.2478
   23MOL   H42311467   5.052   3.092   2.062 -2.3461  0.5732  0.6654
   23MOL   H42411468   4.864   2.979   2.213  0.0875  0.2770  0.8122
   23MOL   H42511469   4.972   2.983   2.346  1.1935  1.4087  0.0887
   23MOL   H42611470   4.922   3.126   2.273 -0.2667  0.5851 -2.8739
   23MOL   C42711471   5.421   2.817   1.556  0.4756 -0.1564 -0.5081
   23MOL   C42811472   5.493   2.949   1.594 -0.0255 -0.9716 -0.2505
   23MOL   O42911473   5.495   3.035   1.482  0.2546  0.4987 -0.5880
   23MOL   C43011474   5.613   3.019   1.403 -0.2456 -0.9131 -0.3125
   23MOL   C43111475   5.605   3.109   1.278 -0.2664  0.6371  0.1459
   23MOL   C43211476   5.488   3.071   1.189 -0.3774  0.2547 -0.4525
   23MOL   C43311477   5.500   3.115   1.040 -0.8946  0.3678  0.2328
   23MOL   C43411478   5.398   3.052   0.941  0.0127 -0.0310 -0.1018
   23MOL   C43511479   5.429   3.088   0.802  0.7301  0.6560 -0.1219
   23MOL   H43611480   5.453   2.767   1.465 -0.9077 -1.0603 -0.5036
   23MOL   H43711481   5.317   2.834   1.530  0.5626 -0.4937 -1.0821
   23MOL   H43811482   5.588   2.920   1.639  1.3798 -0.6049 -2.8895
   23MOL   H43911483   5.639   2.914   1.392 -3.5838 -1.8106 -0.1251
   23MOL   H44011484   5.694   3.066   1.459  0.5444 -2.3806 -0.2218
   23MOL   H44111485   5.700   3.117   1.225 -0.6682  0.6331 -0.5855
   23MOL   H44211486   5.570   3.210   1.302 -0.9772  0.2971  0.5244
   23MOL   H44311487   5.497   2.963   1.196  1.4374  0.4761  1.0873
   23MOL   H44411488   5.393   3.101   1.233 -0.2225 -0.7931  0.6345
   23MOL   H44511489   5.485   3.219   1.011 -1.2408  0.4511  0.7213
   23MOL   H44611490   5.603   3.087   1.016 -1.4207 -0.4009 -1.2435
   23MOL   H44711491   5.394   2.944   0.955 -2.0567 -0.1215 -1.0773
   23MOL   H44811492   5.298   3.093   0.955 -0.0900 -0.4493  0.4213
   23MOL   H44911493   5.524   3.045   0.770  0.3384 -0.1787 -0.1859
   23MOL   H45011494   5.349   3.069   0.730  0.8270 -3.0588  0.6490
   23MOL   H45111495   5.446   3.194   0.785 -1.4800  1.5672  2.7843
   23MOL   C45211496   5.410   3.028   1.702  0.3164 -0.4044  0.0194
   23MOL   C45311497   5.498   3.137   1.766 -0.6235 -0.1246 -0.0962
   23MOL   O45411498   5.604   3.064   1.829 -0.2309  0.2396 -0.3494
   23MOL   C45511499   5.735   3.123   1.812 -0.7183 -0.0752  0.1602
   23MOL   C45611500   5.846   3.042   1.889  0.4329  0.3342  0.6680
   23MOL   C45711501   5.792   3.006   2.027  0.5090 -0.2020 -0.0722
   23MOL   C45811502   5.897   2.943   2.120 -0.6741  0.0595  0.0182
   23MOL   C45911503   5.857   2.923   2.270  0.5867  0.0567 -0.0095
   23MOL   C46011504   5.853   3.050   2.354 -0.5283 -0.6668  0.3913
   23MOL   H46111505   5.321   3.074   1.659 -0.5390 -0.0461  2.1395
   23MOL   H46211506   5.378   2.965   1.784 -0.9138  0.5708  0.2979
   23MOL   H46311507   5.531   3.210   1.693 -1.0503 -1.1158 -1.2911
   23MOL   H46411508   5.732   3.227   1.845 -0.0710  0.3786 -1.1546
   23MOL   H46511509   5.760   3.133   1.706  0.9754  0.6162  0.6092
   23MOL   H46611510   5.933   3.108   1.882 -0.1598  1.2771  2.0572
   23MOL   H46711511   5.854   2.955   1.825 -0.1321 -1.2709  2.7225
   23MOL   H46811512   5.757   3.101   2.068  0.9251  1.0712 -2.5222
   23MOL   H46911513   5.707   2.938   2.020  0.9763 -1.0498  2.2499
   23MOL   H47011514   5.920   2.842   2.084  1.2511 -0.2071  1.8891
   23MOL   H47111515   5.988   3.002   2.107  1.8241 -2.9914  2.7288
   23MOL   H47211516   5.770   2.859   2.277  1.0336 -0.6989 -1.2489
   23MOL   H47311517   5.940   2.866   2.314  2.1821  0.4138 -2.4267
   23MOL   H47411518   5.852   3.052   2.463  0.2588  0.9774  0.3875
   23MOL   H47511519   5.945   3.103   2.328 -2.5675  1.9651 -1.7664
   23MOL   H47611520   5.777   3.110   2.303 -0.3248 -0.3295  0.4824
   23MOL   C47711521   5.429   3.211   1.880  0.5641 -0.5862  0.3112
   23MOL   C47811522   5.299   3.274   1.845 -0.2322  0.1775  0.5077
   23MOL   O47911523   5.269   3.379   1.937 -0.3405 -0.3296  0.0908
   23MOL   C48011524   5.136   3.435   1.926 -0.3434 -0.0633  0.5446
   23MOL   C48111525   5.087   3.517   2.041  0.0911  0.3076  0.0088
   23MOL   C48211526   5.020   3.428   2.149  0.6068 -0.4808  0.4295
   23MOL   C48311527   4.985   3.507   2.278 -0.5345 -0.0170  0.1881
   23MOL   C48411528   4.852   3.584   2.281  0.3612  0.2312  0.0529
   23MOL   C48511529   4.731   3.498   2.254  0.5216 -0.1073 -0.2861
   23MOL   H48611530   5.419   3.139   1.961  2.2348 -0.8246  0.3282
   23MOL   H48711531   5.485   3.290   1.932 -0.2734  0.2352 -0.0209
   23MOL   H48811532   5.296   3.307   1.741  0.7378 -0.8228  0.1490
   23MOL   H48911533   5.063   3.361   1.893 -1.0098  0.4057  0.9531
   23MOL   H49011534   5.125   3.500   1.840 -0.9766 -0.4448  0.3249
   23MOL   H49111535   5.016   3.589   2.001  1.2519  0.8978 -1.0303
   23MOL   H49211536   5.180   3.556   2.082  0.9924  0.3303 -1.9944
   23MOL   H49311537   4.937   3.373   2.103  0.7962 -0.9179  0.6077
   23MOL   H49411538   5.099   3.355   2.169  0.4766 -0.3732  1.3524
   23MOL   H49511539   4.988   3.434   2.360  0.7232 -0.6423 -0.4117
   23MOL   H49611540   5.065   3.577   2.298  0.5811 -0.7987 -1.4036
   23MOL   H49711541   4.851   3.635   2.377 -0.6557 -0.0600  0.1990
   23MOL   H49811542   4.854   3.669   2.213 -0.5482 -1.2580 -1.8985
   23MOL   H49911543   4.640   3.554   2.275  0.4501 -0.7014  1.0335
   23MOL   H50011544   4.733   3.481   2.146  0.3664  2.1832 -0.6766
   23MOL   H50111545   4.723   3.410   2.319 -1.5511 -1.1138 -1.8430
   23MOL   H50211546   5.229   3.191   1.845 -0.0566  0.0069  2.5167
   24MOL     C111547   2.749   5.875   1.352  0.0346  0.1882  0.2358
   24MOL     C211548   2.649   5.770   1.305  0.2177  0.4067 -0.8196
   24MOL     O311549   2.520   5.820   1.317  0.4865  0.3282 -0.1231
   24MOL     C411550   2.454   5.821   1.194  0.5940  0.4097 -0.1984
   24MOL     C511551   2.319   5.879   1.243 -0.4535  0.2772  0.1253
   24MOL     C611552   2.224   5.923   1.129 -1.0637  0.0363  0.1353
   24MOL     C711553   2.080   5.876   1.158  0.0532  0.0884  0.1584
   24MOL     C811554   1.974   5.911   1.052  0.0243  0.1100  1.0497
   24MOL     C911555   1.951   6.065   1.040  0.5720 -0.5986 -0.0899
   24MOL    H1011556   2.732   5.973   1.307  1.9820  1.1979  1.6180
   24MOL    H1111557   2.751   5.886   1.460 -3.4078  0.7173  0.3015
   24MOL    H1211558   2.676   5.752   1.201  1.5650 -1.1405 -0.2209
   24MOL    H1311559   2.437   5.722   1.154  0.1079  0.2275  0.4466
   24MOL    H1411560   2.508   5.894   1.134  2.0666  1.5303  2.3530
   24MOL    H1511561   2.340   5.967   1.304  0.1238  0.7252 -0.7196
   24MOL    H1611562   2.269   5.811   1.312  1.0989 -0.8840  0.1226
   24MOL    H1711563   2.238   6.030   1.115 -0.6334 -0.1194 -0.7108
   24MOL    H1811564   2.254   5.871   1.038  1.5575  1.6012  0.0833
   24MOL    H1911565   2.075   5.767   1.164 -3.0224  0.2155  1.1207
   24MOL    H2011566   2.036   5.911   1.252  0.3446 -3.8104  1.8331
   24MOL    H2111567   1.873   5.872   1.059  0.5574 -1.8574 -1.2194
   24MOL    H2211568   2.003   5.867   0.956 -1.3386  0.5614  0.4227
   24MOL    H2311569   2.043   6.116   1.013  0.4605  0.5250  1.5319
   24MOL    H2411570   1.880   6.084   0.959 -0.7895 -1.1600  0.9384
   24MOL    H2511571   1.908   6.101   1.134  1.9563 -0.5295  0.5212
   24MOL    H2611572   2.846   5.848   1.310  1.8255  0.8886  3.7119
   24MOL    C2711573   2.661   5.644   1.390 -0.2803  0.3472 -0.6221
   24MOL    C2811574   2.586   5.525   1.336  0.0654 -0.3278 -0.0406
   24MOL    O2911575   2.658   5.466   1.230 -0.0268 -0.5788  0.6262
   24MOL    C3011576   2.595   5.379   1.137  0.2874  0.3657  0.3182
   24MOL    C3111577   2.696   5.317   1.044  0.4968 -0.1080 -0.1537
   24MOL    C3211578   2.772   5.194   1.100 -0.0382  0.2691  0.3422
   24MOL    C3311579   2.893   5.166   1.007 -0.4693  0.0470  0.4198
   24MOL    C3411580   2.974   5.042   1.042 -0.4965  0.0885  0.6245
   24MOL    C3511581   3.081   5.004   0.947 -0.0217  0.0807 -0.5997
   24MOL    H3611582   2.767   5.619   1.386 -0.2227  0.4985 -0.0418
   24MOL    H3711583   2.628   5.665   1.492  0.6630 -4.4419  0.7924
   24MOL    H3811584   2.489   5.556   1.298  0.8779 -0.4555 -2.3233
   24MOL    H3911585   2.527   5.442   1.080  0.2321 -0.4408 -0.5187
   24MOL    H4011586   2.528   5.305   1.182 -0.1441  1.5866  1.7191
   24MOL    H4111587   2.769   5.389   1.009  0.0239  1.1895  1.5057
   24MOL    H4211588   2.637   5.279   0.961  0.2517  2.5949 -1.2373
   24MOL    H4311589   2.818   5.204   1.199 -0.8421 -0.2145  0.7745
   24MOL    H4411590   2.710   5.105   1.102  0.1961  0.1108  0.5652
   24MOL    H4511591   2.868   5.162   0.901 -2.6993 -0.5022  0.9513
   24MOL    H4611592   2.960   5.252   1.006  0.2885 -0.5375 -1.2098
   24MOL    H4711593   3.017   5.065   1.139  1.7163 -2.7056  0.3680
   24MOL    H4811594   2.912   4.953   1.051  0.4801 -1.1548 -3.6537
   24MOL    H4911595   3.039   4.997   0.847 -2.0810  1.6199  0.1053
   24MOL    H5011596   3.158   5.078   0.927  0.0102 -0.3156 -1.9956
   24MOL    H5111597   3.127   4.908   0.971  0.9368  0.6835  0.0234
   24MOL    C5211598   2.575   5.417   1.445  0.3472 -1.2240  0.4383
   24MOL    C5311599   2.430   5.384   1.501 -0.2542 -0.4859 -0.0697
   24MOL    O5411600   2.454   5.308   1.615  0.3774 -0.6303 -0.2046
   24MOL    C5511601   2.485   5.168   1.597 -0.3313 -0.7234  0.0892
   24MOL    C5611602   2.472   5.085   1.722 -0.8997  0.1771  0.2791
   24MOL    C5711603   2.584   5.115   1.833 -0.2027  0.1073  0.4301
   24MOL    C5811604   2.605   4.992   1.918 -0.3426  0.2580  0.5412
   24MOL    C5911605   2.733   5.013   2.002 -0.1835  0.5718  0.1009
   24MOL    C6011606   2.767   4.886   2.069 -0.2547 -0.3854  1.1412
   24MOL    H6111607   2.624   5.439   1.539 -2.9702 -0.9058  2.1749
   24MOL    H6211608   2.629   5.326   1.419  1.4079 -0.9290  1.5845
   24MOL    H6311609   2.378   5.325   1.426  0.7139 -1.5805  0.1073
   24MOL    H6411610   2.584   5.150   1.555 -0.7700 -0.1319 -1.2515
   24MOL    H6511611   2.416   5.133   1.520 -0.1813  0.0281 -0.3983
   24MOL    H6611612   2.457   4.980   1.699  0.6442  0.1297 -0.5328
   24MOL    H6711613   2.380   5.123   1.767 -1.3902  0.8918 -1.3183
   24MOL    H6811614   2.676   5.140   1.782 -0.0597  0.0478  0.6583
   24MOL    H6911615   2.552   5.200   1.894 -0.4760 -0.3770  0.9645
   24MOL    H7011616   2.511   4.981   1.972 -0.9449  1.4007 -0.2418
   24MOL    H7111617   2.619   4.909   1.848 -1.6949  0.9468 -0.5771
   24MOL    H7211618   2.818   5.035   1.938  0.3897  3.8771  1.8597
   24MOL    H7311619   2.728   5.100   2.068  1.2672 -1.4775  3.0453
   24MOL    H7411620   2.694   4.843   2.137 -0.3919 -2.3439 -0.2155
   24MOL    H7511621   2.777   4.807   1.994  1.5798 -0.5985  1.6008
   24MOL    H7611622   2.847   4.888   2.142 -0.1667 -0.1013  1.0388
   24MOL    C7711623   2.363   5.518   1.538 -0.2729 -0.0813 -0.3337
   24MOL    C7811624   2.249   5.516   1.641 -0.1886 -0.2379  0.2738
   24MOL    O7911625   2.161   5.623   1.617 -0.3005 -0.1522 -0.0005
   24MOL    C8011626   2.069   5.623   1.504  0.0657  0.1926  0.1138
   24MOL    C8111627   1.967   5.738   1.510  0.2892  0.1724 -0.4799
   24MOL    C8211628   1.846   5.706   1.423  0.1287  0.0293 -0.0357
   24MOL    C8311629   1.745   5.830   1.406 -0.3299 -0.2935 -0.2308
   24MOL    C8411630   1.608   5.805   1.341 -0.4635  0.6465  0.0837
   24MOL    C8511631   1.619   5.831   1.190  0.3047  0.2832 -0.7936
   24MOL    H8611632   2.329   5.569   1.448  0.6555 -1.8556 -1.7248
   24MOL    H8711633   2.438   5.592   1.566 -0.6175 -0.3580  1.3776
   24MOL    H8811634   2.189   5.427   1.621  2.2143 -2.0580  0.9849
   24MOL    H8911635   2.022   5.524   1.499  1.1485 -0.3805  0.8598
   24MOL    H9011636   2.131   5.650   1.419  1.6535 -2.0345  0.4968
   24MOL    H9111637   2.014   5.834   1.488 -1.7338  1.2524 -0.2659
   24MOL    H9211638   1.932   5.757   1.612 -1.5349 -0.6046 -0.9334
   24MOL    H9311639   1.886   5.654   1.337 -1.2319 -3.7707  1.5065
   24MOL    H9411640   1.794   5.633   1.485 -0.9116  1.4787  0.8546
   24MOL    H9511641   1.735   5.867   1.508  1.1134  0.8122 -0.4777
   24MOL    H9611642   1.805   5.903   1.353  0.9468 -2.0266 -1.2403
   24MOL    H9711643   1.570   5.703   1.351 -1.0069  0.8755  0.3110
   24MOL    H9811644   1.546   5.880   1.389 -0.0525  0.7659  0.4367
   24MOL    H9911645   1.527   5.813   1.136  0.2841 -1.0616 -0.3386
   24MOL   H10011646   1.663   5.928   1.168 -1.9062  1.7822  1.0623
   24MOL   H10111647   1.687   5.755   1.152 -3.4298 -4.0118  0.6801
   24MOL   C10211648   2.280   5.510   1.794  0.6014  0.3828 -0.8043
   24MOL   C10311649   2.156   5.515   1.881  0.4065  0.1832  0.1717
   24MOL   O10411650   2.163   5.429   1.994  0.2193 -0.2587 -0.0736
   24MOL   C10511651   2.161   5.293   1.963 -0.1369 -0.7337 -0.7196
   24MOL   C10611652   2.254   5.209   2.057  1.2045 -0.2098 -0.8690
   24MOL   C10711653   2.234   5.233   2.205 -0.0236  0.3351 -0.0527
   24MOL   C10811654   2.329   5.157   2.290 -0.5919 -0.3816 -0.1877
   24MOL   C10911655   2.317   5.185   2.445 -0.5094 -0.3827 -0.6425
   24MOL   C11011656   2.441   5.117   2.521  0.4941 -0.6052  0.5356
   24MOL   H11111657   2.350   5.430   1.818 -0.8069 -0.7895 -0.5039
   24MOL   H11211658   2.333   5.604   1.810  1.7251 -0.5141  0.8404
   24MOL   H11311659   2.078   5.473   1.817  1.3206 -0.5555 -0.4705
   24MOL   H11411660   2.194   5.273   1.861  1.0493 -0.2306 -0.4455
   24MOL   H11511661   2.056   5.264   1.966 -0.7794  1.3815 -1.7450
   24MOL   H11611662   2.359   5.232   2.038  0.8269  2.3597 -0.0387
   24MOL   H11711663   2.243   5.104   2.031 -1.2759 -0.0063 -0.7698
   24MOL   H11811664   2.238   5.340   2.223  2.6663  0.2166  0.1830
   24MOL   H11911665   2.136   5.197   2.236  1.9249 -1.5981  4.3839
   24MOL   H12011666   2.332   5.050   2.269 -1.0231 -0.1484 -1.4551
   24MOL   H12111667   2.433   5.182   2.269 -0.9717  1.4047 -0.0114
   24MOL   H12211668   2.314   5.292   2.463 -0.4028 -0.2990 -1.1215
   24MOL   H12311669   2.227   5.133   2.477  0.3150 -2.4392 -1.5871
   24MOL   H12411670   2.537   5.165   2.503  0.2037  0.6903  2.2970
   24MOL   H12511671   2.434   5.126   2.629 -1.4109 -0.8663  0.4604
   24MOL   H12611672   2.451   5.009   2.507 -2.7802 -0.5976 -2.6239
   24MOL   C12711673   2.117   5.656   1.939  0.2822 -0.0035 -0.5024
   24MOL   C12811674   1.978   5.657   2.017 -0.3472  0.3012 -0.6147
   24MOL   O12911675   1.879   5.650   1.920  0.4949  0.4365 -0.1724
   24MOL   C13011676   1.762   5.573   1.954 -0.0821 -0.5513  0.4043
   24MOL   C13111677   1.645   5.586   1.862  0.7176  0.0090 -0.3541
   24MOL   C13211678   1.632   5.730   1.815 -0.5168  0.8110 -0.9065
   24MOL   C13311679   1.506   5.751   1.725  0.1626 -0.1320 -0.2947
   24MOL   C13411680   1.473   5.901   1.714 -0.6098 -0.2107 -0.2254
   24MOL   C13511681   1.337   5.914   1.643 -0.8038  0.2797  0.5000
   24MOL   H13611682   2.195   5.684   2.010 -0.0244 -0.8761  0.1945
   24MOL   H13711683   2.108   5.733   1.863  0.1224  1.0807  0.5913
   24MOL   H13811684   1.980   5.568   2.080 -2.4732  0.8411  0.2437
   24MOL   H13911685   1.724   5.602   2.053 -0.9931  1.9160 -0.6319
   24MOL   H14011686   1.782   5.466   1.950 -0.1179 -0.5770  0.8540
   24MOL   H14111687   1.556   5.561   1.920  0.3016  1.1811 -0.4872
   24MOL   H14211688   1.638   5.517   1.778 -1.4339  0.4731 -0.5873
   24MOL   H14311689   1.628   5.799   1.899  0.9853 -1.5281  1.1214
   24MOL   H14411690   1.723   5.769   1.770 -1.8825  2.3163 -2.4573
   24MOL   H14511691   1.531   5.705   1.629  0.5727  1.5923 -1.0500
   24MOL   H14611692   1.423   5.694   1.765 -0.8780  1.2136 -0.4815
   24MOL   H14711693   1.479   5.941   1.815  2.1494  1.7428 -1.0861
   24MOL   H14811694   1.547   5.956   1.656 -0.2715 -1.5173 -1.0555
   24MOL   H14911695   1.300   6.016   1.648 -0.6667  0.3802 -0.4768
   24MOL   H15011696   1.334   5.891   1.536 -0.9407  0.1067  0.5405
   24MOL   H15111697   1.258   5.853   1.686 -0.9298  1.2388  1.6384
   24MOL   C15211698   1.968   5.786   2.101  0.3231 -0.2849  0.6551
   24MOL   C15311699   2.050   5.802   2.233  0.3901 -0.7235 -0.2030
   24MOL   O15411700   2.041   5.931   2.286 -0.4560  0.3221 -0.2603
   24MOL   C15511701   2.140   6.029   2.235 -0.1429 -0.3959 -0.9465
   24MOL   C15611702   2.175   6.124   2.350  0.2737 -0.4209 -0.3608
   24MOL   C15711703   2.052   6.182   2.424 -0.5579 -0.4209  0.0509
   24MOL   C15811704   2.096   6.278   2.543 -0.0338  0.2677 -0.2060
   24MOL   C15911705   1.975   6.320   2.630 -0.6026  0.3747 -0.0229
   24MOL   C16011706   2.020   6.395   2.751 -0.5690  0.5987 -0.9077
   24MOL   H16111707   1.992   5.857   2.022 -1.6820 -1.8756 -1.4625
   24MOL   H16211708   1.864   5.809   2.124  0.6024  1.8958 -0.2183
   24MOL   H16311709   2.155   5.775   2.221  0.6183  0.6507 -1.4190
   24MOL   H16411710   2.101   6.085   2.150 -0.4917  0.9768  0.0924
   24MOL   H16511711   2.236   5.986   2.207 -1.3996 -2.9836 -1.4284
   24MOL   H16611712   2.242   6.203   2.315 -0.8499  0.2312 -1.0579
   24MOL   H16711713   2.241   6.067   2.416 -0.6289 -0.2281  0.7226
   24MOL   H16811714   1.995   6.230   2.345  0.1476 -1.5206 -1.1579
   24MOL   H16911715   1.992   6.100   2.464 -1.7441  0.5074  0.2104
   24MOL   H17011716   2.169   6.226   2.606 -0.4837  1.4984  1.3714
   24MOL   H17111717   2.151   6.364   2.507  1.6539  0.1439  1.9491
   24MOL   H17211718   1.914   6.388   2.571 -0.6143 -0.6251 -1.1840
   24MOL   H17311719   1.916   6.236   2.666  1.9456 -0.2296  2.9151
   24MOL   H17411720   2.063   6.325   2.823 -0.4804  0.7106 -0.8508
   24MOL   H17511721   2.098   6.471   2.739  1.8910 -1.8421 -0.8344
   24MOL   H17611722   1.937   6.437   2.807  0.3862 -0.9390  1.7463
   24MOL   C17711723   1.998   5.712   2.351  0.3900  0.1021  0.1284
   24MOL   C17811724   2.104   5.693   2.461  0.1551  0.3372 -0.5379
   24MOL   O17911725   2.042   5.676   2.589  0.3730 -0.3031 -0.4833
   24MOL   C18011726   1.945   5.571   2.598  0.5448 -0.0875  0.1714
   24MOL   C18111727   1.888   5.554   2.737  0.1395 -0.3430 -0.0225
   24MOL   C18211728   1.746   5.500   2.746 -0.4902 -0.2646 -0.1992
   24MOL   C18311729   1.681   5.508   2.883 -0.7310  0.1291 -0.2444
   24MOL   C18411730   1.542   5.440   2.892 -0.5049 -0.0655 -0.4711
   24MOL   C18511731   1.533   5.283   2.862  0.3139 -0.6111 -0.3878
   24MOL   H18611732   1.911   5.758   2.397  1.5547  3.2340 -0.6654
   24MOL   H18711733   1.979   5.613   2.312 -0.1426  0.6280 -0.9655
   24MOL   H18811734   2.154   5.790   2.467  0.9567 -0.0419 -1.0260
   24MOL   H18911735   1.999   5.479   2.577 -0.3463 -0.1667 -1.8299
   24MOL   H19011736   1.865   5.570   2.525 -2.4977 -2.1539  3.4017
   24MOL   H19111737   1.878   5.653   2.780 -0.1892  0.7724 -2.6030
   24MOL   H19211738   1.955   5.494   2.798 -1.5408 -0.0744  2.1327
   24MOL   H19311739   1.683   5.543   2.667  0.1469  1.4828  0.2328
   24MOL   H19411740   1.751   5.396   2.714  0.2495 -0.0693 -0.7116
   24MOL   H19511741   1.751   5.466   2.955 -0.2046  0.6822 -0.4275
   24MOL   H19611742   1.668   5.614   2.906 -2.3791 -0.6363  2.6505
   24MOL   H19711743   1.505   5.452   2.994 -0.1055  0.2958 -0.3681
   24MOL   H19811744   1.471   5.485   2.822  1.6208 -1.8414 -3.9251
   24MOL   H19911745   1.580   5.216   2.934 -0.7253 -1.2975 -0.3379
   24MOL   H20011746   1.431   5.249   2.848  0.9151 -1.8354 -1.9055
   24MOL   H20111747   1.587   5.271   2.768  0.4872 -0.3940 -0.3178
   24MOL   C20211748   2.207   5.579   2.430 -0.6469  0.4298  0.1679
   24MOL   C20311749   2.342   5.598   2.506  0.5010 -0.0878  0.1422
   24MOL   O20411750   2.439   5.528   2.424  0.3912  1.0246  0.2304
   24MOL   C20511751   2.492   5.593   2.310 -0.1370 -0.0981  0.1732
   24MOL   C20611752   2.512   5.499   2.194  0.4065  0.6342 -0.5308
   24MOL   C20711753   2.614   5.565   2.100 -0.2378 -0.2007  0.0236
   24MOL   C20811754   2.663   5.470   1.987 -0.4452 -0.1954 -0.7848
   24MOL   C20911755   2.758   5.531   1.884 -0.0664  0.5125  0.0419
   24MOL   C21011756   2.683   5.617   1.779 -0.0495 -0.1325  0.0273
   24MOL   H21111757   2.171   5.477   2.448 -1.0000  0.3962 -0.6721
   24MOL   H21211758   2.216   5.586   2.321  1.2117  2.8836  0.4427
   24MOL   H21311759   2.384   5.699   2.502  2.8903 -0.9428  2.2091
   24MOL   H21411760   2.581   5.642   2.349  0.6770 -0.3943 -1.2785
   24MOL   H21511761   2.440   5.683   2.279  2.7954  2.2343  1.7765
   24MOL   H21611762   2.417   5.481   2.143  0.2964 -1.0352  0.2037
   24MOL   H21711763   2.548   5.408   2.242  1.1902  2.2188  2.0178
   24MOL   H21811764   2.556   5.635   2.040  0.1116 -0.2097 -0.3315
   24MOL   H21911765   2.700   5.612   2.149 -0.2821 -0.5325  0.4201
   24MOL   H22011766   2.708   5.390   2.045 -1.9800 -1.9339 -1.9205
   24MOL   H22111767   2.579   5.420   1.938 -0.1987 -0.7413 -0.6526
   24MOL   H22211768   2.842   5.587   1.923  0.8553  1.5703 -3.2899
   24MOL   H22311769   2.803   5.445   1.834  0.3591  1.6306 -1.5340
   24MOL   H22411770   2.633   5.545   1.714  0.4216 -0.8175  0.4138
   24MOL   H22511771   2.607   5.679   1.826  1.1667  0.6731  0.9702
   24MOL   H22611772   2.748   5.678   1.716 -2.4735  2.6656  0.1407
   24MOL   C22711773   2.334   5.537   2.653  0.1918 -0.3937 -0.9205
   24MOL   C22811774   2.453   5.572   2.746 -0.5549  0.6321  0.4321
   24MOL   O22911775   2.584   5.558   2.685 -0.1130 -0.3070 -0.1743
   24MOL   C23011776   2.633   5.422   2.691  0.2282  0.1590 -0.0503
   24MOL   C23111777   2.788   5.404   2.656  0.1401 -0.2659 -0.0570
   24MOL   C23211778   2.875   5.471   2.766  0.4426 -0.5663 -0.0539
   24MOL   C23311779   3.019   5.491   2.718  0.6303  0.0599  0.6886
   24MOL   C23411780   3.119   5.528   2.827 -0.4157 -0.5062  0.9255
   24MOL   C23511781   3.085   5.662   2.895  0.1077 -0.4537 -0.0439
   24MOL   H23611782   2.243   5.558   2.709  0.2751  0.4866 -1.1050
   24MOL   H23711783   2.340   5.428   2.649  2.0807 -0.3908  1.1573
   24MOL   H23811784   2.448   5.510   2.836  0.3606  2.3238  1.6655
   24MOL   H23911785   2.577   5.365   2.617  0.6603 -1.0658  0.5413
   24MOL   H24011786   2.602   5.373   2.784 -1.0486  0.2897 -0.4056
   24MOL   H24111787   2.804   5.443   2.555  1.4400  0.5497  0.4514
   24MOL   H24211788   2.810   5.298   2.665  1.3958 -0.0937 -0.9620
   24MOL   H24311789   2.832   5.564   2.804  0.1980 -0.8949  0.4958
   24MOL   H24411790   2.873   5.413   2.859 -0.2738 -1.4024 -0.5832
   24MOL   H24511791   3.055   5.399   2.672  2.1008 -0.1069  2.1331
   24MOL   H24611792   3.008   5.560   2.635  0.6957  0.1637  0.7662
   24MOL   H24711793   3.119   5.449   2.902  4.0077  0.2039  1.8152
   24MOL   H24811794   3.221   5.527   2.789 -1.0079 -1.2489 -0.6637
   24MOL   H24911795   3.059   5.737   2.820  0.5009  0.6292  0.8854
   24MOL   H25011796   3.006   5.649   2.968 -0.9658 -0.2586 -1.1619
   24MOL   H25111797   3.168   5.712   2.945  0.6384  0.2758 -1.6095
   24MOL   C25211798   2.444   5.707   2.811  0.6718 -0.3308  0.5739
   24MOL   C25311799   2.548   5.733   2.927 -0.3897  0.3472  0.0060
   24MOL   O25411800   2.508   5.657   3.042 -0.1878 -0.4081 -0.4381
   24MOL   C25511801   2.607   5.557   3.089  0.0185  0.2344  0.0529
   24MOL   C25611802   2.530   5.459   3.174 -0.6466 -0.5138  0.6408
   24MOL   C25711803   2.459   5.519   3.299  0.4925 -0.2984  0.1421
   24MOL   C25811804   2.398   5.405   3.380 -0.4410  0.3158  0.5355
   24MOL   C25911805   2.368   5.424   3.534 -0.0547 -0.4119 -0.6310
   24MOL   C26011806   2.503   5.436   3.607  0.8312 -0.4320 -0.1804
   24MOL   H26111807   2.465   5.783   2.735  0.4319 -0.8545 -0.0226
   24MOL   H26211808   2.339   5.715   2.837  0.2744 -1.7401 -0.5613
   24MOL   H26311809   2.649   5.715   2.889 -0.9840  0.2825 -1.5777
   24MOL   H26411810   2.674   5.613   3.154 -0.6529  0.7611  0.2860
   24MOL   H26511811   2.670   5.512   3.012  1.2343 -1.2780  1.8898
   24MOL   H26611812   2.594   5.374   3.202  1.5868  0.6299 -0.8261
   24MOL   H26711813   2.462   5.420   3.098 -0.7147 -0.3997  0.6435
   24MOL   H26811814   2.535   5.563   3.363  1.0814  0.6231 -1.1674
   24MOL   H26911815   2.381   5.593   3.277 -0.5123 -1.4519 -0.1879
   24MOL   H27011816   2.308   5.372   3.329  0.0592 -2.0296  1.1293
   24MOL   H27111817   2.461   5.317   3.374 -0.1315  0.6133 -0.6207
   24MOL   H27211818   2.310   5.510   3.566 -0.0771 -1.1735  1.4994
   24MOL   H27311819   2.298   5.345   3.563 -1.0235  0.0841 -1.5999
   24MOL   H27411820   2.573   5.357   3.583  0.6384 -0.6159 -0.1369
   24MOL   H27511821   2.559   5.526   3.582  2.7023 -1.4412  0.3340
   24MOL   H27611822   2.480   5.431   3.714 -1.4420 -0.2367 -0.6253
   24MOL   C27711823   2.549   5.884   2.964  0.4644  0.3381 -0.6084
   24MOL   C27811824   2.648   5.913   3.075  0.5116  0.0400  0.3580
   24MOL   O27911825   2.698   6.046   3.058 -0.4745  0.5053 -0.2595
   24MOL   C28011826   2.817   6.047   2.983 -0.1912 -0.2955 -0.1594
   24MOL   C28111827   2.883   6.189   2.984 -0.1205 -0.4657 -0.5106
   24MOL   C28211828   2.950   6.238   3.111 -0.5061  0.3896  0.7035
   24MOL   C28311829   3.035   6.367   3.104 -0.2436 -0.2158  0.4068
   24MOL   C28411830   2.930   6.483   3.072 -0.1004  0.2451  0.1918
   24MOL   C28511831   3.001   6.615   3.046  0.3826 -0.6801  0.3051
   24MOL   H28611832   2.583   5.930   2.871 -0.5927 -1.5756 -1.9902
   24MOL   H28711833   2.457   5.928   3.003 -0.3116 -0.4082 -1.5529
   24MOL   H28811834   2.736   5.849   3.067  2.1929  2.1757  1.0600
   24MOL   H28911835   2.793   6.013   2.882  0.2975 -2.0149  0.2907
   24MOL   H29011836   2.891   5.978   3.021  0.2797  0.3506  0.1128
   24MOL   H29111837   2.805   6.260   2.956  0.8137  0.5412 -0.5828
   24MOL   H29211838   2.960   6.188   2.906  2.6173  0.5682  2.0863
   24MOL   H29311839   2.869   6.243   3.184 -1.4747  1.1347 -0.4066
   24MOL   H29411840   3.021   6.164   3.149  1.0039  1.4584 -0.0186
   24MOL   H29511841   3.084   6.386   3.199 -0.9251 -1.8296  1.1098
   24MOL   H29611842   3.108   6.368   3.024  1.2965  0.1451  1.7873
   24MOL   H29711843   2.864   6.451   2.991  1.1107 -0.4210 -0.5564
   24MOL   H29811844   2.868   6.494   3.161  1.1082 -0.3888  1.1195
   24MOL   H29911845   3.040   6.630   2.945  1.0099  0.4706  0.7087
   24MOL   H30011846   2.932   6.698   3.055  1.5081  0.3208 -0.1024
   24MOL   H30111847   3.080   6.643   3.116 -0.3463  3.2529 -0.3049
   24MOL   C30211848   2.586   5.916   3.214 -0.3807  0.4101  0.9051
   24MOL   C30311849   2.694   5.918   3.317  0.2656 -0.3198 -0.2031
   24MOL   O30411850   2.760   5.798   3.300  0.1157  0.2242  0.1106
   24MOL   C30511851   2.897   5.798   3.343  0.3230  0.0170  0.5637
   24MOL   C30611852   2.954   5.652   3.362 -0.6853  0.3591 -0.0062
   24MOL   C30711853   2.871   5.549   3.435  0.5258 -0.7282 -0.5292
   24MOL   C30811854   2.939   5.408   3.432 -0.4080 -0.3813  0.5192
   24MOL   C30911855   2.861   5.305   3.516 -0.4635 -1.2966 -0.7304
   24MOL   C31011856   2.917   5.169   3.492 -0.0595 -0.2824  0.2266
   24MOL   H31111857   2.523   6.004   3.221  0.0172  0.8147 -0.4238
   24MOL   H31211858   2.523   5.828   3.227 -0.2346  0.2176  0.3539
   24MOL   H31311859   2.754   6.009   3.304  2.1887 -1.5936 -0.4816
   24MOL   H31411860   2.915   5.858   3.431  1.8778  1.4724 -0.7177
   24MOL   H31511861   2.955   5.840   3.261  0.4733  2.5021  1.8970
   24MOL   H31611862   3.049   5.666   3.414 -0.8516  1.4749  0.0201
   24MOL   H31711863   2.976   5.611   3.264 -0.6046 -0.2115  0.2509
   24MOL   H31811864   2.856   5.582   3.538  0.9632  0.2926 -0.7862
   24MOL   H31911865   2.774   5.539   3.387  0.8395  3.7029 -2.4013
   24MOL   H32011866   2.940   5.378   3.327 -2.2935  0.6896  0.1636
   24MOL   H32111867   3.041   5.425   3.466 -0.9976  2.6154  0.9448
   24MOL   H32211868   2.850   5.317   3.623 -1.2244 -0.9965 -0.8400
   24MOL   H32311869   2.761   5.298   3.474 -0.8898 -1.4137  0.3077
   24MOL   H32411870   2.863   5.089   3.542  1.0330 -0.7418  0.6888
   24MOL   H32511871   2.921   5.145   3.385 -1.3133 -0.6538  0.2523
   24MOL   H32611872   3.017   5.171   3.534 -0.1364 -0.4843  0.4204
   24MOL   C32711873   2.629   5.909   3.457  0.6212  0.3129 -0.1505
   24MOL   C32811874   2.602   6.033   3.537  0.7254  0.6388  0.0884
   24MOL   O32911875   2.537   5.983   3.651 -0.4115  0.2553  0.0282
   24MOL   C33011876   2.407   6.049   3.675  0.4094 -0.7817  0.4124
   24MOL   C33111877   2.338   6.005   3.800  0.0903  0.1198  0.0463
   24MOL   C33211878   2.239   5.891   3.779  0.0571 -0.1593 -0.2421
   24MOL   C33311879   2.161   5.864   3.911 -0.1252  0.1713 -0.3622
   24MOL   C33411880   2.034   5.942   3.917 -0.4407 -0.2076 -0.6494
   24MOL   C33511881   1.916   5.879   3.846  0.0028 -0.8799  0.9293
   24MOL   H33611882   2.680   5.832   3.514  1.0062  0.7314  0.0803
   24MOL   H33711883   2.528   5.869   3.452  0.1758  1.3119  0.6950
   24MOL   H33811884   2.552   6.111   3.481  0.3894 -1.4949 -2.6700
   24MOL   H33911885   2.341   6.047   3.588 -1.0940  1.0484  1.4720
   24MOL   H34011886   2.415   6.156   3.693 -1.5556 -0.2607 -1.6090
   24MOL   H34111887   2.271   6.089   3.820 -0.5853 -0.3885 -0.0671
   24MOL   H34211888   2.403   5.996   3.887  1.7012  1.6964 -0.9780
   24MOL   H34311889   2.176   5.901   3.691  0.2484 -0.2423 -0.3896
   24MOL   H34411890   2.300   5.805   3.753  1.3599  0.0203  2.1005
   24MOL   H34511891   2.147   5.756   3.911 -0.4387  0.2050 -1.0284
   24MOL   H34611892   2.215   5.887   4.003 -1.8319 -2.3518  1.3198
   24MOL   H34711893   2.014   5.958   4.023 -1.5426  1.4116 -1.0852
   24MOL   H34811894   2.045   6.042   3.875 -1.1293  0.2819  0.3259
   24MOL   H34911895   1.832   5.949   3.852 -0.9894 -1.8075 -1.4893
   24MOL   H35011896   1.942   5.861   3.741  0.2253 -0.4583  0.9075
   24MOL   H35111897   1.890   5.781   3.884 -1.5634 -0.4728  0.9651
   24MOL   C35211898   2.727   6.094   3.592  0.2395 -0.5483  0.2927
   24MOL   C35311899   2.727   6.243   3.621 -0.5463  0.1878 -0.6406
   24MOL   O35411900   2.700   6.311   3.497 -0.1940 -0.0903  0.1087
   24MOL   C35511901   2.621   6.427   3.510 -0.0781 -0.2788  1.7066
   24MOL   C35611902   2.620   6.504   3.379  1.1419  0.7110 -0.3023
   24MOL   C35711903   2.558   6.646   3.388 -0.2053 -0.3301  0.2886
   24MOL   C35811904   2.468   6.668   3.261  1.2991  0.8251 -0.0797
   24MOL   C35911905   2.546   6.702   3.132  0.0698  1.0872  0.0189
   24MOL   C36011906   2.614   6.844   3.134 -0.1579 -0.0017 -0.0950
   24MOL   H36111907   2.755   6.033   3.678  0.8118 -0.4459  0.1796
   24MOL   H36211908   2.805   6.085   3.517 -0.6731  2.0364 -1.0354
   24MOL   H36311909   2.653   6.275   3.694  2.0504 -0.0343  2.1892
   24MOL   H36411910   2.667   6.483   3.593  0.3398  1.6574  0.2097
   24MOL   H36511911   2.521   6.393   3.536 -0.4236 -0.1511  0.5280
   24MOL   H36611912   2.557   6.448   3.310  0.0558  0.9985  0.4632
   24MOL   H36711913   2.718   6.510   3.331  0.7413 -1.0748 -1.3778
   24MOL   H36811914   2.498   6.654   3.478 -0.4883  0.8502  0.0006
   24MOL   H36911915   2.632   6.726   3.393  2.3501 -2.7194  1.8437
   24MOL   H37011916   2.402   6.585   3.234  0.5853  0.9687  1.1868
   24MOL   H37111917   2.406   6.754   3.289 -0.0565  0.0284 -0.5680
   24MOL   H37211918   2.612   6.623   3.099 -0.2810  1.7165 -2.3505
   24MOL   H37311919   2.463   6.707   3.060 -0.5702  0.7317  0.7274
   24MOL   H37411920   2.665   6.857   3.038 -1.5988 -2.0070 -1.1856
   24MOL   H37511921   2.544   6.928   3.137 -0.8650 -0.5508 -0.8467
   24MOL   H37611922   2.678   6.846   3.222 -0.8353 -0.1826  0.4036
   24MOL   C37711923   2.864   6.289   3.670 -0.0823  0.4038  0.3441
   24MOL   C37811924   2.892   6.224   3.807  0.1525 -0.1483 -0.1155
   24MOL   O37911925   2.784   6.272   3.890 -0.2754 -0.3830  0.0010
   24MOL   C38011926   2.729   6.184   3.982  0.5298  0.8895  0.2049
   24MOL   C38111927   2.666   6.275   4.088  0.0237  0.4240  0.2157
   24MOL   C38211928   2.620   6.193   4.211  0.2829  0.3925 -0.4263
   24MOL   C38311929   2.570   6.293   4.312 -0.0881 -0.1430 -0.2046
   24MOL   C38411930   2.527   6.229   4.446  0.1899 -0.5772 -0.0414
   24MOL   C38511931   2.497   6.344   4.545  0.8357 -0.3795 -1.0830
   24MOL   H38611932   2.924   6.255   3.585  1.1308 -1.5533  1.9126
   24MOL   H38711933   2.879   6.396   3.678 -0.5298  0.4899  0.0136
   24MOL   H38811934   2.902   6.116   3.795  1.6635 -0.0861  0.4365
   24MOL   H38911935   2.807   6.124   4.029 -0.8510 -0.2211  1.0906
   24MOL   H39011936   2.665   6.114   3.929 -0.6380 -0.2293  2.9631
   24MOL   H39111937   2.586   6.334   4.043 -3.2875 -2.9369  1.4557
   24MOL   H39211938   2.746   6.340   4.122  2.0442 -0.8203 -2.0312
   24MOL   H39311939   2.544   6.122   4.178 -0.2143  0.6842  0.0685
   24MOL   H39411940   2.707   6.152   4.261 -0.2870 -2.5423 -1.7686
   24MOL   H39511941   2.648   6.366   4.333 -2.5974  3.1511 -1.8473
   24MOL   H39611942   2.491   6.354   4.270  1.1324  1.9827  0.5456
   24MOL   H39711943   2.439   6.165   4.440  0.4569 -0.8344 -1.2797
   24MOL   H39811944   2.604   6.167   4.492  0.0429 -1.1782 -0.5949
   24MOL   H39911945   2.584   6.377   4.602  0.5764  2.2496 -2.1375
   24MOL   H40011946   2.460   6.434   4.496 -0.6723  0.7465  1.9261
   24MOL   H40111947   2.425   6.310   4.620  1.4047  0.1120 -0.2945
   24MOL   C40211948   3.024   6.271   3.880  0.8976  0.3568 -0.1525
   24MOL   C40311949   3.146   6.246   3.796  0.2924 -0.8017  0.4843
   24MOL   O40411950   3.156   6.106   3.791  0.6427  0.1727  0.2448
   24MOL   C40511951   3.210   6.062   3.667 -0.1623  0.1054 -0.8300
   24MOL   C40611952   3.217   5.913   3.691 -0.0052  0.2008 -0.0145
   24MOL   C40711953   3.255   5.824   3.575 -0.3264 -0.0893 -0.6090
   24MOL   C40811954   3.286   5.675   3.616  0.0978  0.1077  0.2861
   24MOL   C40911955   3.205   5.617   3.728  0.3296  0.1592  0.1892
   24MOL   C41011956   3.239   5.469   3.754 -0.5951  0.5263  0.0565
   24MOL   H41111957   3.024   6.215   3.974  1.4580  1.6111  0.6091
   24MOL   H41211958   3.022   6.374   3.917  0.2584 -0.0962  1.1236
   24MOL   H41311959   3.139   6.305   3.705  0.4827 -2.3522 -0.5654
   24MOL   H41411960   3.306   6.110   3.647 -0.3276  1.2568  1.0298
   24MOL   H41511961   3.135   6.075   3.589 -1.4536  0.1330  0.4028
   24MOL   H41611962   3.119   5.884   3.728 -0.6071  0.1119 -1.6371
   24MOL   H41711963   3.292   5.890   3.767 -1.4453  0.9438  1.6788
   24MOL   H41811964   3.189   5.833   3.489 -0.8962  0.5273 -0.1157
   24MOL   H41911965   3.349   5.866   3.539  0.0246 -1.4828 -1.3420
   24MOL   H42011966   3.287   5.616   3.525  1.0621  2.2022 -1.1069
   24MOL   H42111967   3.389   5.663   3.650  0.6841  1.3030 -1.0180
   24MOL   H42211968   3.235   5.670   3.818  2.6709  1.2666 -1.2007
   24MOL   H42311969   3.097   5.612   3.716 -0.0250  0.8906  2.7437
   24MOL   H42411970   3.344   5.448   3.774 -0.2816 -0.7348 -2.5925
   24MOL   H42511971   3.164   5.435   3.826 -0.8783  0.3978 -0.2968
   24MOL   H42611972   3.224   5.419   3.658 -0.1414 -0.7878  0.6639
   24MOL   C42711973   3.271   6.300   3.868  0.3480  0.5387  0.2501
   24MOL   C42811974   3.306   6.445   3.823 -0.2575 -0.3635 -0.7595
   24MOL   O42911975   3.346   6.454   3.689 -0.0824 -0.2071 -0.0904
   24MOL   C43011976   3.481   6.406   3.665  0.8556 -0.1380 -0.1367
   24MOL   C43111977   3.495   6.421   3.511 -0.2669  0.8159 -0.0612
   24MOL   C43211978   3.464   6.293   3.438 -1.2334 -0.2978  0.2527
   24MOL   C43311979   3.320   6.273   3.391  0.3413  0.2268  0.4355
   24MOL   C43411980   3.295   6.139   3.327  0.2379 -0.2172 -0.4831
   24MOL   C43511981   3.332   6.121   3.179  0.1849 -0.3883  0.0054
   24MOL   H43611982   3.258   6.300   3.976 -0.5066  1.1510  0.1503
   24MOL   H43711983   3.346   6.222   3.858 -1.3861 -1.2359  0.8200
   24MOL   H43811984   3.388   6.486   3.881 -0.5998  0.3142 -0.7580
   24MOL   H43911985   3.493   6.303   3.698 -0.3386 -0.0705  0.5133
   24MOL   H44011986   3.556   6.462   3.721  1.8428 -1.5164 -0.0542
   24MOL   H44111987   3.598   6.451   3.488  0.6188 -3.5157 -2.1525
   24MOL   H44211988   3.432   6.505   3.481  1.8371  2.8406  1.0515
   24MOL   H44311989   3.530   6.296   3.351 -1.4670 -1.0868  0.0401
   24MOL   H44411990   3.503   6.207   3.493 -0.3227  1.1999  1.9898
   24MOL   H44511991   3.260   6.270   3.482  1.4281  0.8969  1.1965
   24MOL   H44611992   3.279   6.353   3.329  1.1506 -0.0247 -0.4320
   24MOL   H44711993   3.320   6.055   3.393  1.7151 -0.0378 -0.7971
   24MOL   H44811994   3.188   6.131   3.314 -0.1353  1.8982  1.0036
   24MOL   H44911995   3.439   6.109   3.165  0.5981  0.4784  2.2069
   24MOL   H45011996   3.297   6.027   3.134 -3.3398  1.3043 -0.9725
   24MOL   H45111997   3.292   6.198   3.113  1.2382  0.2938  0.1469
   24MOL   C45211998   3.200   6.543   3.850  0.4440  0.0639  0.3513
   24MOL   C45311999   3.222   6.682   3.791  1.4039  0.1033 -0.7316
   24MOL   O45412000   3.338   6.742   3.848 -0.4184 -0.2714  0.1493
   24MOL   C45512001   3.403   6.829   3.755 -0.3710  0.1010  0.6218
   24MOL   C45612002   3.522   6.895   3.822  0.1495  0.3130 -0.0717
   24MOL   C45712003   3.584   6.997   3.726  0.1524 -0.0490  0.5717
   24MOL   C45812004   3.705   7.070   3.780 -0.0603  0.1002 -0.9682
   24MOL   C45912005   3.798   7.142   3.682  0.7298 -0.2732  0.1189
   24MOL   C46012006   3.879   7.047   3.599 -0.2480  0.0344  0.3221
   24MOL   H46112007   3.117   6.521   3.783  0.0124  1.0834  0.5380
   24MOL   H46212008   3.164   6.546   3.952  0.2437  2.7020  0.2465
   24MOL   H46312009   3.233   6.664   3.684  2.0515  1.0326 -0.8228
   24MOL   H46412010   3.337   6.907   3.717  0.6100  1.6768  2.0877
   24MOL   H46512011   3.434   6.781   3.662 -0.2556 -0.1222  0.7747
   24MOL   H46612012   3.594   6.820   3.853  1.2722  1.1417 -0.6289
   24MOL   H46712013   3.479   6.937   3.914 -0.0792 -1.7952  0.8073
   24MOL   H46812014   3.603   6.949   3.630 -0.8370  2.6152 -0.9984
   24MOL   H46912015   3.509   7.068   3.691  0.4329  0.7415  1.5495
   24MOL   H47012016   3.673   7.137   3.859  1.4317  0.7235 -0.8723
   24MOL   H47112017   3.773   6.997   3.825  0.5848  1.2195 -0.1045
   24MOL   H47212018   3.746   7.218   3.622  0.4823  0.7171  1.5621
   24MOL   H47312019   3.871   7.204   3.735  1.7531 -0.4110 -1.0976
   24MOL   H47412020   3.897   6.956   3.656 -2.1552  0.3397  1.4386
   24MOL   H47512021   3.819   7.010   3.516  2.0253 -0.9517 -0.9381
   24MOL   H47612022   3.970   7.090   3.556 -0.9330  0.6766 -0.5050
   24MOL   C47712023   3.101   6.776   3.821  0.4409  0.2921 -0.3212
   24MOL   C47812024   2.979   6.740   3.734  0.8720 -0.2005 -0.6007
   24MOL   O47912025   3.008   6.756   3.601 -0.1317  0.2908 -0.1988
   24MOL   C48012026   2.906   6.726   3.503 -0.0403  0.1360  0.3411
   24MOL   C48112027   2.952   6.789   3.376 -1.0182  0.1323  0.4128
   24MOL   C48212028   2.996   6.940   3.387 -0.6583 -0.0369 -0.1719
   24MOL   C48312029   3.054   7.004   3.257 -0.2763 -0.1038  0.5263
   24MOL   C48412030   3.090   7.150   3.289  0.1154 -0.0006  0.8559
   24MOL   C48512031   3.139   7.229   3.164 -0.2971 -0.8627 -0.0827
   24MOL   H48612032   3.081   6.777   3.928 -0.0841  2.6222 -0.4031
   24MOL   H48712033   3.117   6.882   3.799 -0.3541  0.4622 -0.1000
   24MOL   H48812034   2.947   6.638   3.757  0.6391 -0.1342 -0.6298
   24MOL   H48912035   2.815   6.784   3.519 -1.0439 -1.0309 -1.0950
   24MOL   H49012036   2.879   6.621   3.500 -0.6179  0.1574  3.0251
   24MOL   H49112037   2.890   6.755   3.293  0.8403 -0.9200 -0.5882
   24MOL   H49212038   3.049   6.743   3.353 -0.8494  0.1401  1.0980
   24MOL   H49312039   2.910   6.998   3.421  0.8977  1.4118  1.3711
   24MOL   H49412040   3.061   6.951   3.473  1.0856  0.1041 -1.4790
   24MOL   H49512041   3.142   6.947   3.226  1.7694  1.6025  3.0181
   24MOL   H49612042   2.972   7.010   3.186 -1.1949 -1.9722  1.4014
   24MOL   H49712043   3.007   7.200   3.339  0.1609  1.0410 -0.0698
   24MOL   H49812044   3.179   7.144   3.352 -0.1512 -3.9883  0.9405
   24MOL   H49912045   3.217   7.180   3.107  1.2307  0.1133  1.1152
   24MOL   H50012046   3.058   7.251   3.094 -0.2519  0.2137  0.1952
   24MOL   H50112047   3.190   7.317   3.204 -1.1083 -0.2139 -0.4389
   24MOL   H50212048   2.898   6.808   3.760 -0.0783 -1.2683 -0.7163
   25MOL     C112049   4.673   4.436   2.456  0.0701 -0.3585 -0.5239
   25MOL     C212050   4.627   4.458   2.601 -0.2208 -0.5528 -0.1250
   25MOL     O312051   4.486   4.423   2.615 -0.4842  0.7697  0.3021
   25MOL     C412052   4.468   4.291   2.660 -0.1396  0.3591  0.2019
   25MOL     C512053   4.324   4.275   2.719  0.1515  0.1445 -0.2324
   25MOL     C612054   4.207   4.281   2.619  0.6534 -0.2230 -0.1394
   25MOL     C712055   4.063   4.271   2.671  0.7292 -0.2232 -0.0945
   25MOL     C812056   3.949   4.260   2.565  0.3506  0.8581 -0.1270
   25MOL     C912057   3.956   4.128   2.492  0.5544  0.1442 -0.0376
   25MOL    H1012058   4.668   4.330   2.432  0.5594 -0.2489 -1.1331
   25MOL    H1112059   4.623   4.496   2.379 -0.0325 -0.8624 -0.8543
   25MOL    H1212060   4.696   4.400   2.662  0.7527  2.9852  2.2922
   25MOL    H1312061   4.532   4.262   2.743 -1.1279 -0.8258  0.5685
   25MOL    H1412062   4.470   4.217   2.580 -1.2888 -0.9527  1.3650
   25MOL    H1512063   4.309   4.362   2.784 -0.7457 -0.7250  0.7428
   25MOL    H1612064   4.311   4.182   2.774 -2.0768  0.7661  0.3452
   25MOL    H1712065   4.212   4.372   2.560  1.9111 -0.4097 -0.3268
   25MOL    H1812066   4.217   4.201   2.546 -0.1512 -0.3384 -0.1350
   25MOL    H1912067   4.061   4.180   2.732 -3.3088  1.1844  2.0864
   25MOL    H2012068   4.039   4.363   2.725  2.1313  0.0956  0.0080
   25MOL    H2112069   3.938   4.337   2.488 -1.0239 -0.5489 -1.3637
   25MOL    H2212070   3.854   4.270   2.619  0.3953  1.9085 -0.2384
   25MOL    H2312071   3.864   4.110   2.437  0.3145 -2.3383  1.1015
   25MOL    H2412072   4.033   4.141   2.415 -0.0569  0.8431 -0.5318
   25MOL    H2512073   3.971   4.038   2.551 -0.6077 -0.4665 -0.6546
   25MOL    H2612074   4.780   4.456   2.463 -0.0823  0.7547 -1.2220
   25MOL    C2712075   4.621   4.607   2.650  0.4522  0.8796  0.0714
   25MOL    C2812076   4.600   4.614   2.799 -0.1554 -0.4583 -0.1620
   25MOL    O2912077   4.731   4.586   2.856  0.6154 -0.5495  0.7381
   25MOL    C3012078   4.740   4.530   2.983  0.5541  0.2618 -0.1898
   25MOL    C3112079   4.889   4.516   3.021 -0.9977 -0.1403 -0.8160
   25MOL    C3212080   4.904   4.458   3.162 -0.2848 -0.1293 -1.0352
   25MOL    C3312081   5.038   4.374   3.171  0.0633  0.5576  0.0315
   25MOL    C3412082   5.076   4.331   3.312 -0.5026  0.2679 -0.2000
   25MOL    C3512083   5.223   4.279   3.313  0.4554 -0.2168 -0.3518
   25MOL    H3612084   4.715   4.658   2.633  1.9895 -2.0275 -0.4057
   25MOL    H3712085   4.543   4.665   2.600  1.2220  1.3509 -0.5947
   25MOL    H3812086   4.520   4.542   2.814 -2.5731  1.7483 -2.0143
   25MOL    H3912087   4.690   4.434   2.995 -1.3268  1.3362  0.8477
   25MOL    H4012088   4.698   4.600   3.055 -0.7575 -0.5377 -0.1640
   25MOL    H4112089   4.940   4.611   3.003 -0.0248 -0.3938  0.5618
   25MOL    H4212090   4.942   4.447   2.955 -0.7992  0.2977 -1.1205
   25MOL    H4312091   4.900   4.535   3.239 -3.2898 -0.1867 -1.0851
   25MOL    H4412092   4.826   4.383   3.177  0.0447 -0.0578  1.1777
   25MOL    H4512093   5.033   4.280   3.116  0.3917  0.3632  0.3279
   25MOL    H4612094   5.124   4.436   3.147  0.5728  0.0100  0.4336
   25MOL    H4712095   5.069   4.412   3.385 -1.0200 -0.9486  1.1301
   25MOL    H4812096   5.009   4.250   3.341 -1.5082  1.2533  0.2667
   25MOL    H4912097   5.291   4.359   3.284  0.7752 -0.6925 -0.9320
   25MOL    H5012098   5.256   4.253   3.413  2.6397 -0.4977 -1.1145
   25MOL    H5112099   5.251   4.210   3.233  2.6466 -0.5186  0.6397
   25MOL    C5212100   4.550   4.757   2.841  0.8294 -0.0098  0.2990
   25MOL    C5312101   4.401   4.790   2.795 -0.4050  1.0162 -0.1408
   25MOL    O5412102   4.315   4.831   2.903  0.4504 -0.4366  0.1692
   25MOL    C5512103   4.217   4.737   2.930  0.2218  0.4745 -0.7997
   25MOL    C5612104   4.128   4.771   3.052  0.6184  0.4456  0.4306
   25MOL    C5712105   3.993   4.700   3.035  0.0305 -0.7871  0.3420
   25MOL    C5812106   4.005   4.548   3.035 -0.0745  0.4206 -0.0191
   25MOL    C5912107   4.071   4.486   3.164 -0.2620 -0.5401 -0.0057
   25MOL    C6012108   4.072   4.330   3.159 -0.6114  0.8567 -0.0154
   25MOL    H6112109   4.620   4.834   2.809  0.7510  1.2693  3.0039
   25MOL    H6212110   4.560   4.760   2.950 -0.1648 -0.0520  0.4008
   25MOL    H6312111   4.359   4.709   2.735  0.5497  0.3351  0.0909
   25MOL    H6412112   4.272   4.644   2.944  1.4781  1.3671  0.3885
   25MOL    H6512113   4.151   4.734   2.843  0.4948  1.0360 -1.0314
   25MOL    H6612114   4.116   4.880   3.054 -0.4481  0.3096  2.1857
   25MOL    H6712115   4.179   4.747   3.146  0.6957  0.5133  0.4066
   25MOL    H6812116   3.926   4.730   3.116 -0.2938  0.1308 -0.2600
   25MOL    H6912117   3.941   4.730   2.944  0.8200 -2.4746 -0.6871
   25MOL    H7012118   3.907   4.503   3.025  1.5260 -2.9102 -1.6453
   25MOL    H7112119   4.052   4.513   2.942 -1.0933  0.4106 -0.5335
   25MOL    H7212120   4.175   4.515   3.173 -0.5122  0.1758  0.5853
   25MOL    H7312121   4.020   4.537   3.245 -0.0815  0.8700 -0.7552
   25MOL    H7412122   4.151   4.292   3.094  0.2385  1.7839  0.4764
   25MOL    H7512123   4.096   4.284   3.255  2.0516  0.5439 -0.7850
   25MOL    H7612124   3.971   4.303   3.127 -0.9154 -1.0766  2.4327
   25MOL    C7712125   4.401   4.921   2.711  0.6507  0.4501 -0.2079
   25MOL    C7812126   4.270   4.952   2.634  0.2620 -0.4885 -0.5558
   25MOL    O7912127   4.256   4.866   2.522 -0.1238 -0.0258 -0.0884
   25MOL    C8012128   4.174   4.750   2.525 -0.3569 -1.1684  0.3951
   25MOL    C8112129   4.161   4.676   2.397  0.2089  0.7041 -0.6451
   25MOL    C8212130   4.286   4.597   2.353 -0.0789 -0.0987 -0.0679
   25MOL    C8312131   4.256   4.505   2.228 -0.1352 -0.1887 -0.1460
   25MOL    C8412132   4.383   4.446   2.156  0.0814 -0.3096 -0.1868
   25MOL    C8512133   4.342   4.354   2.051 -0.1491  0.0016 -0.1847
   25MOL    H8612134   4.471   4.907   2.629  0.2098 -1.0722 -0.3464
   25MOL    H8712135   4.445   5.004   2.767  1.8245 -0.9131  0.9182
   25MOL    H8812136   4.189   4.962   2.707 -0.2788  3.3946 -1.5328
   25MOL    H8912137   4.074   4.776   2.561 -0.6230  0.9512 -1.7091
   25MOL    H9012138   4.222   4.684   2.597 -0.7416 -0.7397  1.0515
   25MOL    H9112139   4.134   4.759   2.331 -0.5242  1.3963  0.4914
   25MOL    H9212140   4.082   4.602   2.398  0.1743  0.7416 -0.4760
   25MOL    H9312141   4.365   4.671   2.343 -1.1470  1.0040 -0.4331
   25MOL    H9412142   4.312   4.534   2.439 -2.8196 -0.5477  0.4912
   25MOL    H9512143   4.195   4.418   2.251 -2.3861  0.9773 -1.5177
   25MOL    H9612144   4.191   4.563   2.163 -0.4928 -0.0625  0.3163
   25MOL    H9712145   4.424   4.536   2.111 -2.2683  0.8208 -0.1416
   25MOL    H9812146   4.458   4.400   2.221  2.8574  2.2131 -1.4839
   25MOL    H9912147   4.427   4.323   1.990  0.4960  1.9346 -0.2940
   25MOL   H10012148   4.297   4.264   2.093 -2.1980 -0.1342 -2.5651
   25MOL   H10112149   4.266   4.390   1.982 -0.2722  0.5356  0.2280
   25MOL   C10212150   4.293   5.086   2.562 -0.0063  0.2386  0.3466
   25MOL   C10312151   4.171   5.130   2.475 -0.6241  1.2896 -0.7943
   25MOL   O10412152   4.074   5.211   2.541 -0.2886  0.2891 -0.3935
   25MOL   C10512153   3.994   5.155   2.639 -0.2103  0.0985 -0.1914
   25MOL   C10612154   3.879   5.257   2.669  0.4374  0.2192  0.6994
   25MOL   C10712155   3.761   5.198   2.751 -0.0965 -0.1231 -0.0557
   25MOL   C10812156   3.800   5.157   2.894  0.5003  0.4702 -0.6001
   25MOL   C10912157   3.679   5.096   2.975 -0.5089  0.2689 -0.1159
   25MOL   C11012158   3.551   5.179   2.971 -0.2548 -0.6581 -0.8754
   25MOL   H11112159   4.302   5.155   2.646 -2.6296 -0.7603  1.5067
   25MOL   H11212160   4.391   5.077   2.514  0.1433  5.9330 -0.7714
   25MOL   H11312161   4.118   5.044   2.435  1.6884  0.3641 -2.0108
   25MOL   H11412162   4.052   5.132   2.727  0.0282 -1.5064 -0.7447
   25MOL   H11512163   3.963   5.063   2.588 -0.0945 -1.8742  3.1803
   25MOL   H11612164   3.826   5.285   2.578  0.3734 -0.7975  0.4196
   25MOL   H11712165   3.907   5.354   2.712 -0.5745  0.0101  1.8781
   25MOL   H11812166   3.681   5.271   2.754 -0.3186 -0.4655  3.5765
   25MOL   H11912167   3.725   5.104   2.709 -1.4177 -1.3598  3.7274
   25MOL   H12012168   3.883   5.087   2.889  1.8416  2.0548 -1.0549
   25MOL   H12112169   3.826   5.254   2.936  0.0223 -0.3794  1.6803
   25MOL   H12212170   3.670   4.998   2.929  2.4772 -0.3861  0.6038
   25MOL   H12312171   3.706   5.077   3.079 -2.1744 -1.5587  0.0161
   25MOL   H12412172   3.517   5.170   2.868 -2.2206  1.4594 -0.4658
   25MOL   H12512173   3.476   5.134   3.036  1.0201 -0.8691  0.4850
   25MOL   H12612174   3.548   5.284   2.999 -1.8262 -0.9400  0.0567
   25MOL   C12712175   4.230   5.217   2.356  0.7637  0.0032 -0.1555
   25MOL   C12812176   4.293   5.138   2.241  0.4116 -0.0672  0.5907
   25MOL   O12912177   4.343   5.227   2.139  0.4222  0.3361  0.3333
   25MOL   C13012178   4.456   5.309   2.177  0.1298 -0.4264 -0.0397
   25MOL   C13112179   4.491   5.371   2.042  0.0622 -0.0748 -0.4061
   25MOL   C13212180   4.488   5.280   1.922 -0.2448  0.6723  0.0513
   25MOL   C13312181   4.568   5.345   1.811  0.1902  0.3948  0.5837
   25MOL   C13412182   4.514   5.487   1.763 -0.6988  0.1231 -0.9439
   25MOL   C13512183   4.617   5.534   1.661 -0.5829 -0.3561  0.4131
   25MOL   H13612184   4.150   5.276   2.309  1.7898  1.2978 -0.3083
   25MOL   H13712185   4.299   5.296   2.386 -0.0100  1.0941 -1.2154
   25MOL   H13812186   4.382   5.096   2.288  0.3764 -0.1267  0.6047
   25MOL   H13912187   4.536   5.246   2.217 -0.5532 -0.8478  0.6950
   25MOL   H14012188   4.428   5.385   2.250 -0.7566  1.4225 -2.2589
   25MOL   H14112189   4.585   5.425   2.059 -0.3740 -0.0242  2.0826
   25MOL   H14212190   4.417   5.449   2.024 -0.8574 -1.0323 -0.8302
   25MOL   H14312191   4.518   5.185   1.965 -0.5112 -0.0848 -1.3827
   25MOL   H14412192   4.384   5.275   1.887 -0.2804 -0.6193  0.3350
   25MOL   H14512193   4.676   5.336   1.818  0.2361 -0.7569 -1.1163
   25MOL   H14612194   4.566   5.279   1.723  0.9893 -1.6419  2.0454
   25MOL   H14712195   4.410   5.475   1.734 -0.4288 -1.4747 -1.2739
   25MOL   H14812196   4.517   5.557   1.847 -0.0370 -2.5781  1.3825
   25MOL   H14912197   4.719   5.521   1.698  0.3887  0.1627 -1.9581
   25MOL   H15012198   4.602   5.473   1.573 -1.0571 -1.5376  1.3116
   25MOL   H15112199   4.593   5.640   1.645  0.7033 -0.1033  0.1136
   25MOL   C15212200   4.214   5.029   2.166 -0.5390  0.8153  0.0557
   25MOL   C15312201   4.297   4.939   2.067 -0.7914  0.1434  0.2461
   25MOL   O15412202   4.384   4.866   2.151  0.7040 -0.3095 -0.3093
   25MOL   C15512203   4.513   4.852   2.091  0.8865 -0.1537  0.2895
   25MOL   C15612204   4.608   4.764   2.169  0.8430 -0.3218  0.9561
   25MOL   C15712205   4.661   4.841   2.293  0.4547 -0.1143  0.7711
   25MOL   C15812206   4.785   4.768   2.343  0.5127  0.0244 -0.8339
   25MOL   C15912207   4.873   4.864   2.441 -0.1131  0.0026 -0.3843
   25MOL   C16012208   4.995   4.796   2.503 -0.0136 -0.5236 -0.1328
   25MOL   H16112209   4.160   4.958   2.228  3.0887 -3.0592 -0.9765
   25MOL   H16212210   4.141   5.091   2.114  0.3734  3.3952  1.7567
   25MOL   H16312211   4.340   5.010   1.996 -1.2164  1.3068  1.1296
   25MOL   H16412212   4.557   4.948   2.065  1.5816 -0.7444 -0.7043
   25MOL   H16512213   4.496   4.812   1.991  3.4895 -2.7702  0.8405
   25MOL   H16612214   4.686   4.724   2.104 -1.6195 -2.2676 -0.8759
   25MOL   H16712215   4.564   4.670   2.204  2.3092 -0.5670  2.2202
   25MOL   H16812216   4.684   4.946   2.273  0.7636 -0.0469  1.4886
   25MOL   H16912217   4.590   4.843   2.376  0.7443 -0.8296  1.0419
   25MOL   H17012218   4.747   4.682   2.398  1.9374 -0.0247  0.1019
   25MOL   H17112219   4.864   4.740   2.273  1.6935 -0.1432  0.5511
   25MOL   H17212220   4.903   4.947   2.377 -1.7297  1.0948  0.2255
   25MOL   H17312221   4.805   4.899   2.519  1.0493 -0.1931  0.7164
   25MOL   H17412222   5.048   4.870   2.563  0.6445 -0.0887 -1.2498
   25MOL   H17512223   4.963   4.706   2.557  1.5572 -1.8452 -1.3434
   25MOL   H17612224   5.068   4.766   2.428  1.9764  0.6928  1.2626
   25MOL   C17712225   4.201   4.838   2.002 -0.9260  0.2645  0.1943
   25MOL   C17812226   4.138   4.896   1.868 -0.3059  0.1183 -0.1263
   25MOL   O17912227   4.239   4.956   1.786 -0.8228 -0.3922 -0.2753
   25MOL   C18012228   4.204   5.073   1.712  0.4551 -0.1583 -0.1560
   25MOL   C18112229   4.291   5.096   1.585 -0.2311  0.1137 -0.3774
   25MOL   C18212230   4.256   5.225   1.500  0.4146  0.3695 -0.0038
   25MOL   C18312231   4.346   5.254   1.383 -0.5327 -0.0964 -0.3184
   25MOL   C18412232   4.289   5.364   1.291  0.3483  0.2504  0.3618
   25MOL   C18512233   4.366   5.368   1.164 -0.0196  0.2990  0.9557
   25MOL   H18612234   4.258   4.749   1.974 -0.7934  0.4553 -0.1496
   25MOL   H18712235   4.125   4.802   2.071 -1.5814  0.0146 -0.6417
   25MOL   H18812236   4.066   4.972   1.897 -1.0256 -0.4152 -0.4975
   25MOL   H18912237   4.205   5.146   1.793 -0.4207 -1.1450  0.7649
   25MOL   H19012238   4.098   5.075   1.685  0.6287  3.1226 -0.8214
   25MOL   H19112239   4.282   5.005   1.526  0.7620  0.0110 -0.3890
   25MOL   H19212240   4.395   5.111   1.616 -1.1522  2.2909  1.8393
   25MOL   H19312241   4.149   5.220   1.478  0.5946 -1.5536 -0.4711
   25MOL   H19412242   4.266   5.314   1.563 -0.9692  0.5331 -0.0071
   25MOL   H19512243   4.446   5.277   1.421 -1.2028 -2.9676  3.4635
   25MOL   H19612244   4.369   5.163   1.327  2.0935  0.4526 -0.1897
   25MOL   H19712245   4.188   5.328   1.269 -0.0549  2.5104 -1.6520
   25MOL   H19812246   4.279   5.464   1.332 -2.5892  0.9760 -1.9552
   25MOL   H19912247   4.335   5.452   1.101 -3.5451 -0.5073  1.5108
   25MOL   H20012248   4.461   5.390   1.213  0.4334 -1.0831  0.6968
   25MOL   H20112249   4.370   5.270   1.117 -1.6262 -0.2319  1.8978
   25MOL   C20212250   4.063   4.794   1.780 -0.2451 -0.2152 -0.5544
   25MOL   C20312251   3.928   4.732   1.834  0.2419 -0.1101  0.3075
   25MOL   O20412252   3.896   4.626   1.749  0.3928  0.4029 -0.2214
   25MOL   C20512253   3.834   4.509   1.810 -0.0095 -0.3369 -0.6893
   25MOL   C20612254   3.931   4.433   1.900  0.0774 -0.4503 -0.5849
   25MOL   C20712255   3.879   4.298   1.940 -0.2809 -0.6359 -0.7241
   25MOL   C20812256   3.967   4.224   2.047  0.0827  0.0946  0.4730
   25MOL   C20912257   3.906   4.087   2.079  0.7129 -0.3727 -0.4900
   25MOL   C21012258   3.760   4.082   2.138 -0.1014  0.7908  0.1633
   25MOL   H21112259   4.037   4.846   1.688  1.5439  0.6989 -0.5688
   25MOL   H21212260   4.129   4.712   1.753  0.9305  0.0386  1.4506
   25MOL   H21312261   3.950   4.702   1.936 -0.3336  0.0228  0.4727
   25MOL   H21412262   3.807   4.435   1.734  1.1417 -1.1963 -0.2813
   25MOL   H21512263   3.748   4.540   1.869  1.8195  2.8886  0.4789
   25MOL   H21612264   3.939   4.493   1.991 -2.1139  1.2398 -1.4519
   25MOL   H21712265   4.028   4.433   1.850 -0.4694  0.4986 -1.6802
   25MOL   H21812266   3.776   4.305   1.976  0.8507 -2.7303  3.1993
   25MOL   H21912267   3.870   4.231   1.855 -1.4793 -3.0603  1.2546
   25MOL   H22012268   4.067   4.198   2.012 -0.0633  2.2874 -1.6321
   25MOL   H22112269   3.978   4.279   2.140 -1.9087  1.8968 -0.3306
   25MOL   H22212270   3.896   4.022   1.992  0.1831 -1.5241  0.4107
   25MOL   H22312271   3.979   4.034   2.140 -0.2020 -1.7771 -0.5896
   25MOL   H22412272   3.758   3.992   2.200 -1.0984 -0.7175 -2.0041
   25MOL   H22512273   3.739   4.176   2.188  1.5473  1.2235  0.0667
   25MOL   H22612274   3.689   4.069   2.056  1.7793 -2.2636 -1.0614
   25MOL   C22712275   3.797   4.819   1.830  0.0288 -0.3500 -0.0850
   25MOL   C22812276   3.798   4.960   1.894  0.3879  0.1892  0.0598
   25MOL   O22912277   3.673   5.012   1.869 -0.5740 -0.5158  0.2706
   25MOL   C23012278   3.677   5.115   1.770 -0.2756 -0.2048 -0.0273
   25MOL   C23112279   3.540   5.183   1.767  0.2316  0.2734  1.1418
   25MOL   C23212280   3.423   5.088   1.741 -0.2608  0.5282 -0.7154
   25MOL   C23312281   3.289   5.154   1.749 -0.4857 -0.4196 -0.0970
   25MOL   C23412282   3.168   5.075   1.708 -0.4370  0.0317 -0.0979
   25MOL   C23512283   3.035   5.153   1.696 -0.1593 -0.1819  0.0584
   25MOL   H23612284   3.774   4.827   1.724 -0.3421  0.5175  0.0533
   25MOL   H23712285   3.710   4.765   1.869  0.7069 -1.9558 -0.7651
   25MOL   H23812286   3.876   5.023   1.850 -1.0759  1.5711 -0.5979
   25MOL   H23912287   3.699   5.065   1.676 -0.1511  1.0535 -0.6743
   25MOL   H24012288   3.758   5.184   1.796 -1.9647  1.0464  2.1102
   25MOL   H24112289   3.525   5.257   1.688  0.7157  0.6249  1.3805
   25MOL   H24212290   3.531   5.245   1.856  2.7645 -0.2587  1.8042
   25MOL   H24312291   3.423   5.039   1.644 -0.2384  0.7435 -0.8233
   25MOL   H24412292   3.428   5.005   1.812  1.4611  2.9529  2.1293
   25MOL   H24512293   3.272   5.195   1.848  0.3441 -1.0621  0.3175
   25MOL   H24612294   3.290   5.233   1.674 -2.8307 -0.1593  0.1157
   25MOL   H24712295   3.199   5.040   1.610  2.3173 -1.0366  1.1169
   25MOL   H24812296   3.147   4.992   1.775 -1.3809 -0.0494 -0.4753
   25MOL   H24912297   3.060   5.255   1.663  1.9798 -0.1732  1.5762
   25MOL   H25012298   2.965   5.121   1.619  0.5010 -0.2915 -0.4985
   25MOL   H25112299   2.986   5.174   1.791 -1.0923  1.6969 -0.8050
   25MOL   C25212300   3.806   4.947   2.048 -0.2210 -0.2828  0.0738
   25MOL   C25312301   3.789   5.079   2.115  0.2349  0.3067  0.6325
   25MOL   O25412302   3.899   5.162   2.077  0.2478  0.6385  0.4725
   25MOL   C25512303   3.895   5.292   2.135  0.5237  0.1947 -0.5733
   25MOL   C25612304   3.931   5.397   2.030  0.4715  0.1086 -0.3251
   25MOL   C25712305   4.068   5.365   1.977 -0.5903  0.1159 -0.5118
   25MOL   C25812306   4.116   5.463   1.867  0.6028 -0.2969 -0.9990
   25MOL   C25912307   4.053   5.443   1.734 -0.3222 -0.4572  0.3293
   25MOL   C26012308   4.087   5.554   1.625 -0.1730  0.2029 -0.1567
   25MOL   H26112309   3.726   4.878   2.077 -0.5931 -0.5077 -1.4193
   25MOL   H26212310   3.900   4.896   2.071 -0.0999 -1.6914 -3.1924
   25MOL   H26312311   3.693   5.127   2.096  0.7543  1.6289  1.2680
   25MOL   H26412312   3.965   5.299   2.218  0.9569  1.8985 -1.0568
   25MOL   H26512313   3.797   5.312   2.178  0.9534  0.0689  0.4552
   25MOL   H26612314   3.923   5.502   2.058 -2.3962 -0.1428 -0.0895
   25MOL   H26712315   3.860   5.375   1.950 -0.7956  3.8120 -0.3006
   25MOL   H26812316   4.133   5.379   2.063 -0.3112 -1.4346 -0.4598
   25MOL   H26912317   4.084   5.263   1.941 -0.6488 -0.9384  2.3328
   25MOL   H27012318   4.082   5.559   1.906  0.0428 -1.2044  0.7705
   25MOL   H27112319   4.224   5.470   1.863  0.5789  0.6745 -0.0402
   25MOL   H27212320   4.071   5.345   1.692 -0.9307 -0.7383  0.7125
   25MOL   H27312321   3.944   5.435   1.745 -0.8683  1.8136 -2.7043
   25MOL   H27412322   4.196   5.559   1.623 -0.0215 -1.8970  1.3450
   25MOL   H27512323   4.040   5.531   1.529  1.3696  0.3568 -0.9683
   25MOL   H27612324   4.041   5.647   1.659 -0.5219  0.4879 -1.3527
   25MOL   C27712325   3.815   5.046   2.270  0.0971 -1.0342 -0.6142
   25MOL   C27812326   3.715   4.952   2.337 -0.5387  0.0384  0.0397
   25MOL   O27912327   3.741   4.959   2.474 -0.5759 -0.4844  0.0714
   25MOL   C28012328   3.805   4.843   2.533  0.5998  0.0194  0.2943
   25MOL   C28112329   3.690   4.741   2.563  0.4164  0.1918 -0.5371
   25MOL   C28212330   3.749   4.598   2.590 -0.1596 -0.0786  0.3482
   25MOL   C28312331   3.634   4.487   2.597 -0.6545 -0.0211 -0.7349
   25MOL   C28412332   3.519   4.514   2.691  0.1923  0.6657 -0.2744
   25MOL   C28512333   3.438   4.382   2.701 -0.1050 -0.8698  0.1056
   25MOL   H28612334   3.916   5.006   2.283  0.5656  0.3428  0.0131
   25MOL   H28712335   3.806   5.141   2.322  0.6513  0.0856 -2.5342
   25MOL   H28812336   3.729   4.848   2.305  0.7452  0.1281  0.2952
   25MOL   H28912337   3.855   4.868   2.627 -1.8902 -2.6833  2.4013
   25MOL   H29012338   3.874   4.797   2.463 -0.6414  0.0336 -0.9640
   25MOL   H29112339   3.622   4.738   2.478 -1.1740  0.7589  0.6744
   25MOL   H29212340   3.628   4.780   2.644  0.1235 -0.2596 -0.5371
   25MOL   H29312341   3.824   4.583   2.512 -1.7071 -0.0331 -1.1568
   25MOL   H29412342   3.809   4.595   2.681 -0.0338 -1.7105  0.2127
   25MOL   H29512343   3.597   4.480   2.495 -1.7134 -1.0595 -0.2982
   25MOL   H29612344   3.686   4.394   2.620 -0.9045  0.1544  0.6103
   25MOL   H29712345   3.567   4.538   2.786 -0.1514  1.0427 -0.1983
   25MOL   H29812346   3.458   4.594   2.649 -1.4690  0.8985  2.5064
   25MOL   H29912347   3.503   4.307   2.744  0.2667  0.3095  1.6452
   25MOL   H30012348   3.358   4.403   2.772  0.5350  0.5036  0.4500
   25MOL   H30112349   3.407   4.337   2.607 -0.9548  0.6988 -0.3813
   25MOL   C30212350   3.565   4.997   2.317 -0.4503 -0.2362 -0.0193
   25MOL   C30312351   3.483   4.936   2.205  0.3405 -0.0230  0.3272
   25MOL   O30412352   3.351   4.988   2.215 -0.3671  0.0451  0.1995
   25MOL   C30512353   3.324   5.099   2.134  0.6708 -0.9029  0.0882
   25MOL   C30612354   3.175   5.140   2.170  0.1689  0.3034  0.2361
   25MOL   C30712355   3.106   5.251   2.081 -0.7875 -0.4692  0.3990
   25MOL   C30812356   2.991   5.336   2.141 -0.2047  0.1715 -0.3127
   25MOL   C30912357   3.019   5.398   2.280  0.1779 -0.5674 -0.2738
   25MOL   C31012358   2.914   5.502   2.310 -0.0963 -0.1126 -0.6117
   25MOL   H31112359   3.514   4.967   2.409 -0.0362  3.0458  1.3651
   25MOL   H31212360   3.543   5.104   2.321  0.0856 -0.1532  0.9813
   25MOL   H31312361   3.527   4.973   2.112 -1.9525  2.1375  0.0519
   25MOL   H31412362   3.332   5.070   2.029 -0.0910 -0.7642 -0.0071
   25MOL   H31512363   3.396   5.179   2.154 -0.7530  0.8673 -1.6290
   25MOL   H31612364   3.174   5.174   2.273 -1.4836  0.0476  0.3098
   25MOL   H31712365   3.108   5.054   2.175 -0.1472  0.6376  2.1733
   25MOL   H31812366   3.178   5.326   2.050 -0.2531 -0.7369  0.9743
   25MOL   H31912367   3.063   5.210   1.990 -1.1682 -0.6893  0.6741
   25MOL   H32012368   2.987   5.420   2.070  0.0014  0.9554  0.5951
   25MOL   H32112369   2.891   5.293   2.127 -0.4578  0.9177 -0.8488
   25MOL   H32212370   3.018   5.323   2.358 -0.2721 -1.1315 -0.8179
   25MOL   H32312371   3.118   5.442   2.290 -0.4428  0.5723  0.9611
   25MOL   H32412372   2.909   5.582   2.236 -1.3530  1.1983  0.8563
   25MOL   H32512373   2.815   5.456   2.314  1.0172 -2.4080  1.5063
   25MOL   H32612374   2.935   5.540   2.410  1.2791 -1.7913 -0.2529
   25MOL   C32712375   3.479   4.784   2.213 -0.2336  0.2299  0.2403
   25MOL   C32812376   3.384   4.721   2.115 -0.2798 -0.2424 -0.2638
   25MOL   O32912377   3.429   4.740   1.985  0.1465  0.6105  0.1408
   25MOL   C33012378   3.330   4.743   1.889  0.4085  0.2633  0.5089
   25MOL   C33112379   3.395   4.732   1.757 -0.5085 -0.9101  0.0770
   25MOL   C33212380   3.310   4.744   1.630  0.2673  0.1117 -0.3235
   25MOL   C33312381   3.391   4.756   1.494  0.1888 -0.2227 -0.0670
   25MOL   C33412382   3.294   4.738   1.377  0.9880  0.4131  0.9955
   25MOL   C33512383   3.376   4.734   1.246 -0.2357  0.3102  0.1058
   25MOL   H33612384   3.456   4.757   2.316 -0.7872  0.8929  0.2932
   25MOL   H33712385   3.584   4.755   2.206 -0.0505  0.0220  3.1160
   25MOL   H33812386   3.287   4.770   2.122 -0.4389 -0.7604  1.5454
   25MOL   H33912387   3.275   4.837   1.889  0.9861  0.6040  0.5712
   25MOL   H34012388   3.262   4.658   1.896  1.0256 -0.3065 -0.2821
   25MOL   H34112389   3.453   4.641   1.742 -0.7369 -1.0391 -0.0235
   25MOL   H34212390   3.466   4.815   1.751 -1.1408 -0.3070  0.7955
   25MOL   H34312391   3.260   4.647   1.640 -2.4713  1.1795 -2.8261
   25MOL   H34412392   3.239   4.825   1.645  1.8970  1.4964 -0.0440
   25MOL   H34512393   3.437   4.855   1.482  1.1891 -0.7051 -0.2599
   25MOL   H34612394   3.466   4.678   1.486  0.6328  0.1125  0.8005
   25MOL   H34712395   3.242   4.642   1.375  1.8973 -0.0818  1.2316
   25MOL   H34812396   3.219   4.817   1.367  1.9656  1.2013 -0.2411
   25MOL   H34912397   3.431   4.828   1.246  0.8376 -0.3203  0.8025
   25MOL   H35012398   3.446   4.652   1.231 -0.4552 -0.4879  3.1375
   25MOL   H35112399   3.314   4.726   1.156  0.1816  2.9032 -0.4630
   25MOL   C35212400   3.360   4.565   2.136 -0.4661  0.6155  0.0375
   25MOL   C35312401   3.294   4.510   2.264 -0.6840  0.2239 -0.0761
   25MOL   O35412402   3.286   4.370   2.261  0.0797 -0.1897 -0.1589
   25MOL   C35512403   3.413   4.313   2.297 -0.4053  0.4844  0.5912
   25MOL   C35612404   3.417   4.165   2.323  0.2137 -0.3534 -0.3110
   25MOL   C35712405   3.405   4.084   2.195 -0.5979 -0.3376  1.0804
   25MOL   C35812406   3.430   3.939   2.221  0.1614  0.5624 -0.2764
   25MOL   C35912407   3.375   3.852   2.111  0.3070 -0.3759  0.4191
   25MOL   C36012408   3.404   3.712   2.158 -0.2363 -0.5420 -0.3755
   25MOL   H36112409   3.299   4.526   2.054 -0.7117  0.7433  0.1600
   25MOL   H36212410   3.459   4.523   2.119 -0.3641  0.2204  1.5226
   25MOL   H36312411   3.342   4.549   2.354  0.7312 -0.5156 -0.4986
   25MOL   H36412412   3.451   4.359   2.388  0.2560  1.6965 -0.2840
   25MOL   H36512413   3.479   4.335   2.213 -0.6188 -1.7278 -0.1874
   25MOL   H36612414   3.353   4.134   2.406  2.8493  0.6917  2.1680
   25MOL   H36712415   3.510   4.134   2.369  0.2040  0.3869  0.2150
   25MOL   H36812416   3.311   4.105   2.143  1.5777  3.9448 -1.3783
   25MOL   H36912417   3.476   4.118   2.120 -1.1139 -0.9800  0.3005
   25MOL   H37012418   3.534   3.909   2.232 -0.4730 -1.6337  0.0453
   25MOL   H37112419   3.378   3.910   2.312  0.4856  0.8971  0.0136
   25MOL   H37212420   3.266   3.858   2.107  0.3388  1.9605  1.8024
   25MOL   H37312421   3.426   3.875   2.017 -0.9123  1.9052  0.2535
   25MOL   H37412422   3.511   3.694   2.169 -0.1494  0.4940  0.4869
   25MOL   H37512423   3.354   3.686   2.251 -1.5459  1.1657 -0.5942
   25MOL   H37612424   3.366   3.640   2.085 -0.2187  2.0663 -3.0707
   25MOL   C37712425   3.146   4.556   2.257 -0.2391  0.4345  0.0591
   25MOL   C37812426   3.044   4.496   2.361  0.6120 -0.4545  0.6054
   25MOL   O37912427   2.921   4.573   2.336 -0.1143 -0.0495 -0.2903
   25MOL   C38012428   2.828   4.503   2.254  0.3147 -0.0611  0.7170
   25MOL   C38112429   2.685   4.545   2.282 -0.2950  0.6336 -0.3302
   25MOL   C38212430   2.628   4.450   2.398 -0.0597 -0.8531  0.1931
   25MOL   C38312431   2.581   4.312   2.353  0.6174 -0.0545  0.0719
   25MOL   C38412432   2.431   4.327   2.302 -1.2390 -0.3501  0.1955
   25MOL   C38512433   2.378   4.199   2.238  0.1660  0.1376 -0.0151
   25MOL   H38612434   3.131   4.664   2.249 -1.7011  0.1563 -1.1799
   25MOL   H38712435   3.113   4.545   2.154 -0.0353  0.7072 -0.0349
   25MOL   H38812436   3.026   4.390   2.346  3.8057 -0.8404 -0.8625
   25MOL   H38912437   2.836   4.395   2.264 -2.5031 -0.1492  2.5186
   25MOL   H39012438   2.857   4.513   2.149  1.0756  0.1619  0.9428
   25MOL   H39112439   2.633   4.534   2.187 -0.3636  0.3362 -0.2573
   25MOL   H39212440   2.685   4.651   2.305 -0.3283  1.2745 -3.0734
   25MOL   H39312441   2.709   4.441   2.471 -0.7738 -0.4465  1.0393
   25MOL   H39412442   2.553   4.510   2.450  1.7158  1.3286  0.3320
   25MOL   H39512443   2.647   4.248   2.295 -0.9730 -0.1216 -1.7126
   25MOL   H39612444   2.558   4.242   2.433 -1.7146 -0.6307 -1.0615
   25MOL   H39712445   2.371   4.365   2.385 -3.1282 -0.0433 -1.2861
   25MOL   H39812446   2.429   4.410   2.231 -4.0356 -1.6655 -1.3548
   25MOL   H39912447   2.291   4.226   2.178 -0.4082 -1.6189 -0.0265
   25MOL   H40012448   2.463   4.165   2.179 -0.5871 -1.8292 -0.0253
   25MOL   H40112449   2.360   4.124   2.316 -1.6156 -0.3679 -0.8817
   25MOL   C40212450   3.106   4.521   2.499  0.3103  0.9338  0.3487
   25MOL   C40312451   3.025   4.463   2.613 -0.3846 -0.1406 -0.2081
   25MOL   O40412452   3.061   4.523   2.748  0.5581  0.1375  0.1422
   25MOL   C40512453   3.017   4.655   2.773 -0.3224 -0.3457 -0.0949
   25MOL   C40612454   3.077   4.697   2.904 -0.4621 -1.0249  0.1084
   25MOL   C40712455   3.232   4.719   2.888 -0.2481  0.0325 -0.2367
   25MOL   C40812456   3.308   4.740   3.019 -0.3647 -0.8127 -0.0452
   25MOL   C40912457   3.461   4.754   2.993 -0.3877  0.3576 -0.1626
   25MOL   C41012458   3.531   4.807   3.114 -0.1879  0.2914 -0.1246
   25MOL   H41112459   3.129   4.628   2.505  0.2882  0.9680 -0.1191
   25MOL   H41212460   3.193   4.455   2.501 -2.0098 -2.1812  1.3535
   25MOL   H41312461   2.919   4.479   2.595 -0.0119  0.3314 -2.0030
   25MOL   H41412462   2.909   4.657   2.787 -0.1733 -1.8668  1.4100
   25MOL   H41512463   3.036   4.728   2.694 -0.4697 -0.4011 -0.1817
   25MOL   H41612464   3.058   4.620   2.978 -0.5956 -0.4281  0.6917
   25MOL   H41712465   3.029   4.792   2.925  2.0567  0.0834  1.1088
   25MOL   H41812466   3.285   4.635   2.843 -1.0214  0.2970 -1.6788
   25MOL   H41912467   3.251   4.804   2.822  1.3994  0.5894  0.9299
   25MOL   H42012468   3.260   4.822   3.071  0.2618 -0.2948 -0.2829
   25MOL   H42112469   3.301   4.647   3.076 -0.3823  1.0785  3.1614
   25MOL   H42212470   3.507   4.658   2.968 -0.0834  0.0268  1.5548
   25MOL   H42312471   3.482   4.824   2.913  0.4950  0.3026  0.0076
   25MOL   H42412472   3.637   4.817   3.092 -0.0884 -0.1850  0.1326
   25MOL   H42512473   3.485   4.897   3.153 -2.9219 -1.0842 -0.0202
   25MOL   H42612474   3.514   4.719   3.176 -2.2542  1.2121  0.6700
   25MOL   C42712475   3.046   4.305   2.625  0.4297 -0.3826  0.0100
   25MOL   C42812476   2.952   4.237   2.720 -0.0901 -0.7847  0.3918
   25MOL   O42912477   2.823   4.235   2.672 -0.8371  0.0053 -0.1324
   25MOL   C43012478   2.724   4.268   2.777 -0.4032  0.3061  0.2079
   25MOL   C43112479   2.582   4.241   2.720  0.5761  0.1861  0.7640
   25MOL   C43212480   2.475   4.216   2.829 -0.1355 -0.4121 -0.6543
   25MOL   C43312481   2.337   4.159   2.777 -0.2699  0.0515 -0.3543
   25MOL   C43412482   2.239   4.119   2.888  0.2112  0.0945  0.7879
   25MOL   C43512483   2.123   4.035   2.831  0.5433 -0.0514 -0.7150
   25MOL   H43612484   3.027   4.254   2.531  1.8962 -1.1254  0.1099
   25MOL   H43712485   3.150   4.292   2.653 -0.0476  0.0645  2.0729
   25MOL   H43812486   2.948   4.293   2.814 -2.5223 -2.2446  1.1962
   25MOL   H43912487   2.735   4.367   2.819  1.8765 -0.0016  0.3815
   25MOL   H44012488   2.733   4.202   2.863 -0.4047 -1.1856 -0.9137
   25MOL   H44112489   2.581   4.156   2.651 -0.1909 -0.8598  2.0488
   25MOL   H44212490   2.545   4.324   2.661 -1.4857  0.5616  2.5348
   25MOL   H44312491   2.527   4.148   2.895  2.1976  1.9086 -0.0440
   25MOL   H44412492   2.462   4.302   2.895  3.6349 -0.6792  0.5094
   25MOL   H44512493   2.285   4.234   2.718  2.2448  1.3203 -1.0141
   25MOL   H44612494   2.349   4.078   2.705 -1.5698  0.2789 -0.8449
   25MOL   H44712495   2.295   4.060   2.961 -0.2932 -1.5716 -0.1417
   25MOL   H44812496   2.206   4.206   2.944  1.4732 -0.2460  2.0983
   25MOL   H44912497   2.041   4.011   2.899 -1.2582 -0.6571 -3.0410
   25MOL   H45012498   2.078   4.075   2.741  0.1259  2.8524  0.7128
   25MOL   H45112499   2.149   3.932   2.807  0.3019 -0.2188 -0.2790
   25MOL   C45212500   2.974   4.087   2.753 -0.0150 -0.1297  0.2352
   25MOL   C45312501   3.106   4.041   2.835  0.2617  0.4277 -0.4092
   25MOL   O45412502   3.185   3.981   2.736  0.0755 -0.4663 -0.8619
   25MOL   C45512503   3.319   3.981   2.779  0.2625 -0.4668  0.4326
   25MOL   C45612504   3.386   3.898   2.669  0.2800  0.8148 -0.0852
   25MOL   C45712505   3.539   3.898   2.680 -0.1568  0.5306 -0.6859
   25MOL   C45812506   3.614   3.816   2.569 -0.1470 -0.6657 -0.1416
   25MOL   C45912507   3.765   3.839   2.569  0.3859  0.0779  0.3056
   25MOL   C46012508   3.835   3.758   2.459  0.3473  0.1510  0.8172
   25MOL   H46112509   2.883   4.051   2.802  1.7331 -3.7508  1.0037
   25MOL   H46212510   2.983   4.031   2.661 -2.0612 -0.5610  0.2710
   25MOL   H46312511   3.150   4.128   2.884  0.4918 -0.5511  1.1601
   25MOL   H46412512   3.332   3.939   2.879  1.2554 -0.3054  0.3779
   25MOL   H46512513   3.353   4.084   2.781 -0.2059 -0.3132  0.4989
   25MOL   H46612514   3.354   3.934   2.572 -1.8646  0.1474  0.3502
   25MOL   H46712515   3.357   3.793   2.674  1.7150  0.4820  2.1559
   25MOL   H46812516   3.570   4.002   2.689 -1.3133  0.7503  0.9032
   25MOL   H46912517   3.564   3.840   2.768 -2.6985  0.4855  0.0449
   25MOL   H47012518   3.588   3.711   2.577 -0.5990 -0.5321  0.1495
   25MOL   H47112519   3.577   3.851   2.472  2.0085  2.8655  0.2202
   25MOL   H47212520   3.779   3.946   2.556  1.7469  0.0884  1.6600
   25MOL   H47312521   3.807   3.812   2.666 -0.1327  0.3906  0.6216
   25MOL   H47412522   3.806   3.799   2.362 -0.1374 -0.0643  0.8705
   25MOL   H47512523   3.941   3.775   2.479  1.2132 -2.7999 -0.9191
   25MOL   H47612524   3.808   3.652   2.457  0.4285  0.1405 -0.7516
   25MOL   C47712525   3.064   3.936   2.942  0.2146 -0.2579 -0.5238
   25MOL   C47812526   2.998   4.001   3.063 -0.0453 -0.2872 -0.3350
   25MOL   O47912527   2.931   3.893   3.141  0.3300  0.3223 -0.2371
   25MOL   C48012528   2.830   3.944   3.220 -0.5634 -0.4916 -0.1397
   25MOL   C48112529   2.696   3.944   3.142  0.6629 -0.7771 -0.2425
   25MOL   C48212530   2.644   3.819   3.074  0.3452 -0.4069  0.1761
   25MOL   C48312531   2.518   3.840   2.986  1.1451 -0.0100 -0.6981
   25MOL   C48412532   2.456   3.707   2.927 -0.0565  0.8501  0.6604
   25MOL   C48512533   2.344   3.736   2.819  0.2208  0.3326  0.1721
   25MOL   H48612534   3.000   3.865   2.891  0.0762 -1.9509  1.9301
   25MOL   H48712535   3.148   3.875   2.977  1.1434 -0.6445 -3.2772
   25MOL   H48812536   3.063   4.054   3.132 -1.1423  1.8751 -0.9293
   25MOL   H48912537   2.852   4.048   3.247 -0.6195 -0.6504  0.5411
   25MOL   H49012538   2.809   3.884   3.309 -0.2454 -0.6926 -0.2010
   25MOL   H49112539   2.704   4.014   3.059 -0.4668  0.2835  0.5117
   25MOL   H49212540   2.619   3.973   3.215  1.1993  0.7233 -0.2514
   25MOL   H49312541   2.715   3.772   3.006 -0.3033 -0.2202 -0.6402
   25MOL   H49412542   2.607   3.746   3.147  0.8602 -0.5015  0.3453
   25MOL   H49512543   2.446   3.889   3.051  1.3185  1.4806 -1.5987
   25MOL   H49612544   2.534   3.911   2.904  0.4485 -0.1478 -0.9601
   25MOL   H49712545   2.538   3.647   2.888  0.4095  2.3071 -0.7039
   25MOL   H49812546   2.417   3.642   3.005 -1.6587  2.3178  1.1276
   25MOL   H49912547   2.332   3.651   2.752 -1.6373  1.7250 -1.2619
   25MOL   H50012548   2.240   3.738   2.851  0.5783 -3.0218  1.8182
   25MOL   H50112549   2.370   3.827   2.765  0.8253 -0.2258 -0.4977
   25MOL   H50212550   2.925   4.078   3.040  0.6318  0.3418 -0.4028
   26MOL     C112551   5.738   2.244   3.265  0.5166  0.0945 -0.2647
   26MOL     C212552   5.807   2.250   3.129  0.7006 -0.2320 -0.0855
   26MOL     O312553   5.909   2.355   3.122 -0.3849  0.1649 -0.1453
   26MOL     C412554   6.013   2.326   3.209 -0.3335  0.9797  0.1536
   26MOL     C512555   6.121   2.434   3.171 -0.7056 -0.2547  0.3931
   26MOL     C612556   6.263   2.418   3.235  0.7678  0.7691 -0.3310
   26MOL     C712557   6.367   2.515   3.180  0.1857  0.5386 -0.5720
   26MOL     C812558   6.506   2.494   3.236  0.0129 -0.1617  0.4143
   26MOL     C912559   6.582   2.620   3.212 -0.0345  0.7905  0.0102
   26MOL    H1012560   5.811   2.217   3.342  1.0379  2.5370  0.1335
   26MOL    H1112561   5.697   2.339   3.299  0.9824 -0.1539  1.0241
   26MOL    H1212562   5.859   2.157   3.106 -0.8661 -0.9361 -0.8547
   26MOL    H1312563   6.059   2.230   3.186  1.0707  1.9085 -1.0777
   26MOL    H1412564   5.990   2.331   3.315  1.5732  1.5980  0.5561
   26MOL    H1512565   6.078   2.531   3.198 -1.4510 -0.4527 -0.0696
   26MOL    H1612566   6.124   2.445   3.063  0.3689 -2.2945  0.2014
   26MOL    H1712567   6.263   2.425   3.344  0.1498 -2.7737 -0.0392
   26MOL    H1812568   6.291   2.318   3.201 -3.2900 -1.1606  1.6933
   26MOL    H1912569   6.367   2.519   3.071 -3.4237  0.1839 -0.6398
   26MOL    H2012570   6.326   2.612   3.207 -0.4875 -0.0264  0.4937
   26MOL    H2112571   6.567   2.417   3.188  1.3030  0.2800  1.3203
   26MOL    H2212572   6.508   2.470   3.342 -0.1019 -1.5281  0.1124
   26MOL    H2312573   6.513   2.695   3.251 -1.4839 -1.0635  1.1246
   26MOL    H2412574   6.671   2.628   3.273  0.3924  0.5124 -0.5667
   26MOL    H2512575   6.591   2.645   3.106 -2.8995 -1.5935 -0.9030
   26MOL    H2612576   5.659   2.170   3.274  0.2492  0.4519  0.3857
   26MOL    C2712577   5.708   2.274   3.010  0.5097  0.1571  0.4706
   26MOL    C2812578   5.769   2.259   2.864 -0.3272 -0.0719  0.2359
   26MOL    O2912579   5.796   2.119   2.841 -0.0716 -0.1044 -0.0780
   26MOL    C3012580   5.689   2.030   2.813  0.4085  0.0593 -0.1183
   26MOL    C3112581   5.727   1.889   2.841  1.0788 -0.0029 -0.1153
   26MOL    C3212582   5.724   1.837   2.994 -0.0594  0.5367 -0.6870
   26MOL    C3312583   5.801   1.701   3.008 -1.3958  0.2312 -0.1923
   26MOL    C3412584   5.780   1.631   3.135 -0.8609 -0.2458 -0.7520
   26MOL    C3512585   5.826   1.489   3.132 -0.9628 -0.0858 -0.7752
   26MOL    H3612586   5.616   2.215   3.014  0.5492  0.0438 -0.1767
   26MOL    H3712587   5.675   2.378   3.016 -1.4891 -0.3010 -1.5803
   26MOL    H3812588   5.863   2.313   2.873 -1.7278  2.3698  0.6055
   26MOL    H3912589   5.669   2.036   2.706  0.0154  2.2697  0.0550
   26MOL    H4012590   5.601   2.056   2.872 -0.0573  1.6023 -1.4426
   26MOL    H4112591   5.823   1.869   2.794 -0.1924  0.1708 -2.8859
   26MOL    H4212592   5.650   1.824   2.800  1.0320 -0.1710  0.2369
   26MOL    H4312593   5.769   1.907   3.064 -0.6904  1.7484 -1.4744
   26MOL    H4412594   5.620   1.819   3.024  1.1564 -0.5067  3.2640
   26MOL    H4512595   5.769   1.635   2.928 -1.3603  0.9700 -0.8197
   26MOL    H4612596   5.907   1.723   3.001 -1.6119  1.0104 -1.1140
   26MOL    H4712597   5.820   1.689   3.218 -0.2660 -0.6657 -0.7431
   26MOL    H4812598   5.673   1.633   3.159 -0.7072 -1.8055  0.1517
   26MOL    H4912599   5.815   1.457   3.235 -4.3824 -2.5902 -1.8208
   26MOL    H5012600   5.763   1.423   3.071 -2.8886 -0.3571  1.4510
   26MOL    H5112601   5.924   1.499   3.085 -1.0500  0.9455 -0.7332
   26MOL    C5212602   5.688   2.323   2.750  0.3667 -0.4314  0.5305
   26MOL    C5312603   5.770   2.327   2.613 -0.1274 -0.1699  0.4645
   26MOL    O5412604   5.734   2.217   2.532 -0.0993  0.1271  0.3679
   26MOL    C5512605   5.845   2.135   2.490  0.1280  0.5606  0.1105
   26MOL    C5612606   5.794   2.012   2.414 -1.1632 -0.3160 -0.2248
   26MOL    C5712607   5.689   2.041   2.309 -0.0853  0.0413 -0.0280
   26MOL    C5812608   5.684   1.932   2.203 -0.1263  0.7030  0.3085
   26MOL    C5912609   5.784   1.941   2.084  0.7649  0.6505  0.7947
   26MOL    C6012610   5.757   1.846   1.966 -0.6942 -0.2488  0.1978
   26MOL    H6112611   5.655   2.421   2.785  1.8309  1.4103 -2.9979
   26MOL    H6212612   5.601   2.260   2.734  0.1701  0.1518 -0.7682
   26MOL    H6312613   5.877   2.321   2.629  0.1481 -0.5116 -1.3764
   26MOL    H6412614   5.910   2.116   2.575  0.4041 -0.6778 -0.3716
   26MOL    H6512615   5.912   2.185   2.421  1.3769 -1.6664 -0.3353
   26MOL    H6612616   5.761   1.941   2.489  0.3160 -0.2986  0.4717
   26MOL    H6712617   5.886   1.978   2.367 -0.7725  0.3860  0.0252
   26MOL    H6812618   5.599   2.048   2.370 -0.6844 -1.6658 -0.6671
   26MOL    H6912619   5.715   2.138   2.267  0.6132 -0.6847 -1.2971
   26MOL    H7012620   5.674   1.837   2.256 -0.5120 -0.6969 -2.1871
   26MOL    H7112621   5.591   1.934   2.147  1.5085 -2.4810 -2.6903
   26MOL    H7212622   5.798   2.039   2.040 -0.9982  0.6066  0.1280
   26MOL    H7312623   5.880   1.925   2.134 -0.2241 -3.5481  1.5651
   26MOL    H7412624   5.664   1.875   1.916  1.3339  2.5763 -2.1423
   26MOL    H7512625   5.835   1.853   1.891 -3.4293  1.1773 -2.6586
   26MOL    H7612626   5.759   1.743   2.001 -1.9150 -0.0004  1.0383
   26MOL    C7712627   5.731   2.455   2.524  0.1536  0.7768  0.1822
   26MOL    C7812628   5.764   2.594   2.590  0.7059  0.0813 -0.0388
   26MOL    O7912629   5.682   2.694   2.543  0.3570 -0.0626 -0.0006
   26MOL    C8012630   5.543   2.684   2.571 -0.3872  0.1319 -0.3850
   26MOL    C8112631   5.487   2.819   2.594  0.0550  0.6516 -0.0395
   26MOL    C8212632   5.503   2.904   2.470 -0.0064  0.2891 -0.2868
   26MOL    C8312633   5.423   3.037   2.480  0.2735 -0.3267  0.4832
   26MOL    C8412634   5.416   3.109   2.344  0.0784  0.2681  0.0511
   26MOL    C8512635   5.341   3.246   2.354 -0.0530  0.2732  0.0095
   26MOL    H8612636   5.625   2.457   2.500 -0.0513  1.0626  1.1123
   26MOL    H8712637   5.782   2.442   2.428 -0.5052  0.3963 -0.1235
   26MOL    H8812638   5.733   2.579   2.693 -0.3971  0.8617 -0.2579
   26MOL    H8912639   5.524   2.630   2.664 -0.8308 -1.1805 -1.2181
   26MOL    H9012640   5.479   2.642   2.493 -1.0285  0.3594  0.0183
   26MOL    H9112641   5.542   2.868   2.674 -0.6580 -0.3206  1.0632
   26MOL    H9212642   5.382   2.811   2.621  0.0524  0.8752  0.0223
   26MOL    H9312643   5.609   2.930   2.462  0.0531 -0.0717 -0.6972
   26MOL    H9412644   5.481   2.851   2.377  0.1453  0.8091 -0.6276
   26MOL    H9512645   5.327   3.019   2.527  1.0618 -3.1090  1.1015
   26MOL    H9612646   5.471   3.106   2.549  0.8998  0.1894 -0.4439
   26MOL    H9712647   5.519   3.108   2.309 -0.7427  1.4862 -2.5369
   26MOL    H9812648   5.370   3.036   2.278 -0.0885  1.0493 -0.7054
   26MOL    H9912649   5.393   3.319   2.417  1.7921 -1.5017  0.6072
   26MOL   H10012650   5.322   3.277   2.251 -1.7578 -3.6935 -0.9535
   26MOL   H10112651   5.249   3.224   2.407 -0.1241 -1.6496 -0.8955
   26MOL   C10212652   5.915   2.632   2.590  0.0436 -0.2811  0.5295
   26MOL   C10312653   5.967   2.700   2.719 -0.2000 -0.1587  0.2392
   26MOL   O10412654   6.110   2.695   2.708 -0.0422  0.4692  0.2095
   26MOL   C10512655   6.176   2.587   2.772 -0.5414  0.3733 -0.2935
   26MOL   C10612656   6.327   2.581   2.753 -0.0957 -0.0866  0.6278
   26MOL   C10712657   6.396   2.714   2.810  0.8312 -0.5876  0.4048
   26MOL   C10812658   6.539   2.742   2.752  0.0302  0.8078 -0.0804
   26MOL   C10912659   6.606   2.882   2.793  0.0854 -0.9453  0.1547
   26MOL   C11012660   6.547   3.000   2.719 -0.0738 -0.4393 -0.1875
   26MOL   H11112661   5.970   2.540   2.569 -1.8541 -0.7794 -2.6609
   26MOL   H11212662   5.931   2.688   2.497 -1.2764 -2.7615 -1.2437
   26MOL   H11312663   5.928   2.644   2.804 -0.1446 -1.9463 -0.8919
   26MOL   H11412664   6.131   2.496   2.732  1.4540 -0.1666 -1.3585
   26MOL   H11512665   6.155   2.598   2.879 -1.1749 -0.2385 -0.3531
   26MOL   H11612666   6.357   2.581   2.648 -0.9160  0.3845  0.3841
   26MOL   H11712667   6.363   2.486   2.791 -0.0975 -0.7279 -0.9478
   26MOL   H11812668   6.330   2.799   2.791 -0.3087 -1.1505  1.7552
   26MOL   H11912669   6.405   2.710   2.918  2.5961 -0.3271  0.2856
   26MOL   H12012670   6.610   2.673   2.798  1.8626  3.2450  0.8379
   26MOL   H12112671   6.543   2.714   2.647  1.4452 -0.7420  0.3546
   26MOL   H12212672   6.598   2.902   2.900  1.1604  0.6942 -0.0584
   26MOL   H12312673   6.714   2.883   2.786  0.2180 -2.9828  1.5507
   26MOL   H12412674   6.584   3.093   2.762  1.8468 -1.3632  0.2148
   26MOL   H12512675   6.561   2.980   2.613 -1.3455 -0.7152 -0.3044
   26MOL   H12612676   6.440   3.005   2.737 -0.0131  0.7592 -0.1393
   26MOL   C12712677   5.931   2.849   2.723 -0.5704  0.7478  0.4246
   26MOL   C12812678   5.916   2.922   2.865  0.3654 -0.2743 -0.5734
   26MOL   O12912679   5.915   3.064   2.850 -0.1136  0.8224  0.1985
   26MOL   C13012680   5.788   3.123   2.818 -0.2526 -0.1477  1.2177
   26MOL   C13112681   5.708   3.160   2.937 -0.1701  0.0818 -0.9925
   26MOL   C13212682   5.797   3.254   3.022  0.7257 -0.2590 -0.1047
   26MOL   C13312683   5.715   3.295   3.143 -0.1271  0.5481 -1.1560
   26MOL   C13412684   5.796   3.389   3.237 -0.1779 -0.4559  0.0580
   26MOL   C13512685   5.742   3.419   3.375  0.9415 -0.1159 -0.0321
   26MOL   H13612686   5.994   2.914   2.663  0.0968  0.2171  0.5539
   26MOL   H13712687   5.828   2.848   2.685 -0.5934 -0.1742  0.4955
   26MOL   H13812688   5.827   2.891   2.920  0.7761  1.4101  1.1257
   26MOL   H13912689   5.738   3.047   2.758  0.1766  1.5752 -1.3877
   26MOL   H14012690   5.803   3.205   2.748 -0.9575 -0.5717  0.5648
   26MOL   H14112691   5.685   3.070   2.994  0.7414  0.5595  0.1475
   26MOL   H14212692   5.617   3.215   2.911 -2.0899 -2.6850 -0.3912
   26MOL   H14312693   5.886   3.207   3.062  1.1232  1.2926  0.8471
   26MOL   H14412694   5.834   3.333   2.956 -1.4873 -0.0441 -1.1656
   26MOL   H14512695   5.623   3.350   3.122 -1.7380 -0.2933  3.2100
   26MOL   H14612696   5.687   3.207   3.201 -0.0476  0.7733 -0.7742
   26MOL   H14712697   5.901   3.360   3.239  0.0171  0.1705 -0.5910
   26MOL   H14812698   5.813   3.488   3.195  1.6694 -2.2718 -3.7247
   26MOL   H14912699   5.730   3.329   3.435 -1.4487  0.9828  1.1818
   26MOL   H15012700   5.799   3.490   3.435  3.9613 -2.4168 -0.0113
   26MOL   H15112701   5.645   3.464   3.356  1.2942  0.4837 -0.4163
   26MOL   C15212702   6.039   2.900   2.954  0.6721 -0.3515  0.2027
   26MOL   C15312703   6.002   2.913   3.106 -0.9955  0.1679  0.0146
   26MOL   O15412704   5.914   2.802   3.135  0.0320  0.3952  0.3617
   26MOL   C15512705   5.805   2.834   3.230  0.6204  0.0589 -0.1846
   26MOL   C15612706   5.687   2.731   3.239 -0.0398 -0.4621  0.1121
   26MOL   C15712707   5.622   2.702   3.105 -0.1650 -0.1875 -0.1103
   26MOL   C15812708   5.505   2.605   3.107  0.2020 -0.4851 -0.1018
   26MOL   C15912709   5.422   2.603   2.976  0.4506 -0.1115 -0.2490
   26MOL   C16012710   5.314   2.496   2.980 -0.2297 -0.0276 -0.1336
   26MOL   H16112711   6.076   2.798   2.944  0.2437 -0.4556 -0.3527
   26MOL   H16212712   6.122   2.966   2.928 -0.4305  0.4150 -1.4634
   26MOL   H16312713   5.944   3.005   3.105 -1.5209 -0.1272  1.8249
   26MOL   H16412714   5.753   2.924   3.199  1.3417  0.4467 -0.2662
   26MOL   H16512715   5.846   2.842   3.331  0.3660 -1.7971  0.0955
   26MOL   H16612716   5.609   2.757   3.311  0.9751 -3.0735  2.2182
   26MOL   H16712717   5.749   2.649   3.274 -1.1897 -1.3412  0.1364
   26MOL   H16812718   5.586   2.796   3.062 -1.5180 -0.2521  0.8548
   26MOL   H16912719   5.694   2.669   3.031  1.2734 -0.7121  1.4977
   26MOL   H17012720   5.539   2.504   3.131 -0.4942 -0.2954  1.7354
   26MOL   H17112721   5.435   2.636   3.184  0.0328 -2.6258  0.6536
   26MOL   H17212722   5.370   2.698   2.967  0.7499  0.1325  0.5970
   26MOL   H17312723   5.481   2.590   2.886  1.9052  1.4006  0.4688
   26MOL   H17412724   5.254   2.514   3.070 -0.2358 -0.0545 -0.1324
   26MOL   H17512725   5.245   2.516   2.898  0.6621 -1.6570 -1.3021
   26MOL   H17612726   5.346   2.392   2.980 -1.3100 -0.3751  0.8793
   26MOL   C17712727   6.139   2.903   3.187 -1.3113 -0.1714  0.0355
   26MOL   C17812728   6.128   2.924   3.336  0.0946  0.3636 -0.0229
   26MOL   O17912729   6.257   2.908   3.392  0.6927  0.2875  0.1160
   26MOL   C18012730   6.270   2.803   3.491 -0.3536  0.4368  0.4027
   26MOL   C18112731   6.409   2.810   3.558 -0.1146  0.6807 -0.1605
   26MOL   C18212732   6.447   2.950   3.623 -1.1148  0.1033 -0.1698
   26MOL   C18312733   6.598   2.947   3.662  0.8227 -0.4540  0.1614
   26MOL   C18412734   6.642   3.073   3.730 -0.4090 -0.2771 -0.8022
   26MOL   C18512735   6.754   3.032   3.822 -0.0766 -0.4773 -0.0309
   26MOL   H18612736   6.192   2.808   3.173  1.6781  1.7875 -2.6768
   26MOL   H18712737   6.207   2.978   3.146 -3.8233  1.2742 -1.6410
   26MOL   H18812738   6.063   2.849   3.380 -0.5745  0.8849 -0.1098
   26MOL   H18912739   6.248   2.713   3.434 -0.4792  1.3876 -1.0748
   26MOL   H19012740   6.189   2.812   3.563 -2.3012 -0.6228 -1.5711
   26MOL   H19112741   6.485   2.793   3.481 -0.6983  2.7674 -1.2438
   26MOL   H19212742   6.413   2.723   3.622  3.3144  1.6147  1.0426
   26MOL   H19312743   6.433   3.032   3.553  0.2126  0.2268 -0.3116
   26MOL   H19412744   6.380   2.967   3.707 -2.5166  0.0117 -1.2514
   26MOL   H19512745   6.629   2.859   3.718  2.6311 -0.1739 -0.3715
   26MOL   H19612746   6.654   2.942   3.568  0.7547  0.8885  0.0515
   26MOL   H19712747   6.678   3.138   3.650  1.3131 -0.5669 -0.2839
   26MOL   H19812748   6.575   3.139   3.785  2.3218  2.2805 -0.4408
   26MOL   H19912749   6.713   2.994   3.916  1.0819 -1.4523  0.0856
   26MOL   H20012750   6.815   2.953   3.779  0.4752 -0.6484  1.0486
   26MOL   H20112751   6.815   3.116   3.856  0.6739 -0.5003 -1.3129
   26MOL   C20212752   6.084   3.066   3.370 -0.1017  0.5705 -0.2549
   26MOL   C20312753   6.050   3.088   3.521  0.2108 -0.8576  0.1557
   26MOL   O20412754   5.945   2.995   3.549 -0.5571  0.1484  0.2045
   26MOL   C20512755   5.927   2.961   3.687 -0.2979  0.5968 -0.3763
   26MOL   C20612756   5.812   2.863   3.702 -0.1303  0.1146  0.4354
   26MOL   C20712757   5.863   2.724   3.652  0.4556 -0.0975 -0.0948
   26MOL   C20812758   5.749   2.627   3.642  0.2428  0.5355  0.4293
   26MOL   C20912759   5.785   2.487   3.580 -0.0676  0.3555 -0.6687
   26MOL   C21012760   5.676   2.372   3.587  0.3712 -0.2385 -0.1578
   26MOL   H21112761   6.162   3.136   3.339 -0.3908  1.6340  1.3578
   26MOL   H21212762   5.993   3.092   3.315 -1.1897  1.4245  1.8733
   26MOL   H21312763   6.137   3.060   3.579 -0.4115  1.3966  2.2347
   26MOL   H21412764   5.899   3.049   3.745 -1.2251 -0.3146  0.5842
   26MOL   H21512765   6.024   2.935   3.730 -0.9058  0.9781  1.2763
   26MOL   H21612766   5.724   2.899   3.649  1.7537  0.9065 -2.2590
   26MOL   H21712767   5.788   2.857   3.808 -0.2648 -2.1982  0.2896
   26MOL   H21812768   5.924   2.733   3.562  0.4621  2.8759  0.1347
   26MOL   H21912769   5.925   2.701   3.739  0.3254  1.0368  0.3173
   26MOL   H22012770   5.687   2.627   3.731  0.1291  0.3446  0.3514
   26MOL   H22112771   5.683   2.678   3.571  0.9525 -0.5664 -1.0705
   26MOL   H22212772   5.810   2.510   3.476 -4.4195 -0.9271 -2.0896
   26MOL   H22312773   5.877   2.459   3.633 -0.9316  0.4673  0.9192
   26MOL   H22412774   5.620   2.343   3.676 -2.1888  0.0024 -1.6397
   26MOL   H22512775   5.595   2.390   3.517  0.4190  0.6761  0.0169
   26MOL   H22612776   5.713   2.275   3.551 -0.9282  0.2720 -3.0246
   26MOL   C22712777   6.007   3.229   3.553 -0.2028 -0.0572  0.0709
   26MOL   C22812778   6.053   3.285   3.683  0.0340  0.7624  0.0517
   26MOL   O22912779   6.192   3.312   3.664  0.4895 -0.1750 -0.8000
   26MOL   C23012780   6.265   3.323   3.785 -0.0131 -0.1741 -0.3694
   26MOL   C23112781   6.402   3.394   3.754  0.9202  0.0628 -0.2194
   26MOL   C23212782   6.491   3.393   3.881  0.2792 -0.3018  0.7167
   26MOL   C23312783   6.633   3.448   3.836  0.0569 -0.3497 -0.0136
   26MOL   C23412784   6.721   3.469   3.956 -0.0227 -0.5279  0.0139
   26MOL   C23512785   6.863   3.502   3.921  0.4244 -0.4367  0.2843
   26MOL   H23612786   6.030   3.303   3.476 -2.4191 -0.2319 -0.7926
   26MOL   H23712787   5.898   3.227   3.557 -0.1686 -0.9890  0.5099
   26MOL   H23812788   6.038   3.223   3.771  1.7494 -1.2544 -1.0461
   26MOL   H23912789   6.287   3.223   3.821 -1.6192 -0.0459  0.9731
   26MOL   H24012790   6.212   3.379   3.861 -0.9747 -0.6993 -0.6436
   26MOL   H24112791   6.374   3.495   3.726  1.3474 -0.0612 -1.0879
   26MOL   H24212792   6.451   3.358   3.664 -1.6132 -2.7870 -0.5412
   26MOL   H24312793   6.443   3.449   3.961 -2.2794 -0.6659 -0.5337
   26MOL   H24412794   6.500   3.290   3.916 -0.3877 -0.7071 -0.2755
   26MOL   H24512795   6.685   3.390   3.760 -3.7033 -2.6931 -0.9316
   26MOL   H24612796   6.617   3.539   3.779 -1.7797  0.2835  1.4435
   26MOL   H24712797   6.684   3.550   4.019  0.2923 -0.0919 -0.3641
   26MOL   H24812798   6.716   3.376   4.013  1.7301 -0.1914  0.7555
   26MOL   H24912799   6.910   3.417   3.872  1.4423  1.8836 -2.9698
   26MOL   H25012800   6.872   3.590   3.857 -1.3385  0.2221  0.9049
   26MOL   H25112801   6.925   3.517   4.010  4.0619 -0.7511 -2.0892
   26MOL   C25212802   5.973   3.424   3.709  0.1621  0.3096  0.0752
   26MOL   C25312803   5.828   3.426   3.760  0.2737 -0.4108  0.6858
   26MOL   O25412804   5.793   3.565   3.728  0.5525 -0.0990  0.1445
   26MOL   C25512805   5.654   3.591   3.720 -0.7086 -0.2357  0.4432
   26MOL   C25612806   5.614   3.739   3.686 -0.3895  0.1364 -0.1749
   26MOL   C25712807   5.649   3.778   3.546 -0.2507  0.8621  0.1105
   26MOL   C25812808   5.558   3.887   3.491 -0.0566  0.0822  0.3895
   26MOL   C25912809   5.581   4.023   3.561 -0.1219  0.4569 -0.2468
   26MOL   C26012810   5.480   4.129   3.510  0.1251  0.1607 -0.5643
   26MOL   H26112811   6.031   3.476   3.786  2.6328 -2.4907  0.1845
   26MOL   H26212812   5.977   3.483   3.617 -1.4143  0.3517  0.0126
   26MOL   H26312813   5.768   3.358   3.699 -0.0248  0.7110 -0.3070
   26MOL   H26412814   5.595   3.558   3.805 -1.7211 -2.6849 -1.1488
   26MOL   H26512815   5.629   3.525   3.636  0.8646  1.0029 -1.0392
   26MOL   H26612816   5.658   3.808   3.758 -0.2615  0.0281 -0.1509
   26MOL   H26712817   5.506   3.752   3.695 -0.1636  2.1253 -0.1186
   26MOL   H26812818   5.751   3.815   3.534  0.4824 -0.5048  1.8359
   26MOL   H26912819   5.646   3.698   3.472 -2.2370  0.0563  1.0159
   26MOL   H27012820   5.579   3.907   3.386 -1.2351 -1.1770 -0.1046
   26MOL   H27112821   5.456   3.851   3.499 -0.4041  0.8631 -0.4921
   26MOL   H27212822   5.572   4.019   3.670 -1.5462 -1.9183 -0.4115
   26MOL   H27312823   5.680   4.055   3.527  1.3660 -2.8907  0.6962
   26MOL   H27412824   5.483   4.213   3.579  1.7435 -1.1995  1.0992
   26MOL   H27512825   5.501   4.157   3.407  0.4648 -0.2771 -0.6173
   26MOL   H27612826   5.385   4.076   3.525 -0.2251 -0.1311 -3.4814
   26MOL   C27712827   5.820   3.394   3.915 -0.2550 -0.4892 -0.1268
   26MOL   C27812828   5.690   3.329   3.961  0.8240  0.2245 -0.1323
   26MOL   O27912829   5.668   3.216   3.878 -0.3498  0.0431  0.0228
   26MOL   C28012830   5.530   3.194   3.858  0.5533  0.1747 -0.4156
   26MOL   C28112831   5.518   3.075   3.766 -0.0721  0.2348  0.0802
   26MOL   C28212832   5.372   3.056   3.722 -0.5583 -0.0239 -0.1964
   26MOL   C28312833   5.359   2.942   3.617  0.3786  0.5807  0.0907
   26MOL   C28412834   5.388   2.797   3.670  0.7572  0.0261 -0.3875
   26MOL   C28512835   5.332   2.691   3.579  0.2851 -0.0900  0.2636
   26MOL   H28612836   5.901   3.324   3.937 -0.0661  0.1946  1.3850
   26MOL   H28712837   5.835   3.483   3.977 -0.8323 -0.1750 -0.4320
   26MOL   H28812838   5.607   3.399   3.956  1.3964  1.0474  1.6148
   26MOL   H28912839   5.479   3.268   3.795 -1.0573 -1.2907 -0.8900
   26MOL   H29012840   5.471   3.175   3.948  0.9416 -0.3212 -0.2639
   26MOL   H29112841   5.554   2.985   3.816  3.1144  1.0967 -0.6076
   26MOL   H29212842   5.582   3.081   3.679 -1.8869 -1.7641 -1.4798
   26MOL   H29312843   5.307   3.024   3.803  1.1182  1.0718  1.6480
   26MOL   H29412844   5.332   3.147   3.679 -2.7514  0.0110  1.8655
   26MOL   H29512845   5.255   2.954   3.587  1.1239  1.9585 -1.9865
   26MOL   H29612846   5.433   2.954   3.538  2.3761 -0.2642  1.7618
   26MOL   H29712847   5.495   2.780   3.683  0.3397 -2.5129  0.0054
   26MOL   H29812848   5.340   2.785   3.767  2.1864  0.7654  0.4189
   26MOL   H29912849   5.310   2.716   3.475 -0.6804  1.1789  0.7648
   26MOL   H30012850   5.386   2.597   3.589  0.4163 -0.0077  0.3225
   26MOL   H30112851   5.232   2.671   3.616  0.2870 -3.5560 -1.4222
   26MOL   C30212852   5.708   3.274   4.104  0.5465 -0.0567  0.3100
   26MOL   C30312853   5.649   3.359   4.217 -0.1754  0.0873  0.0976
   26MOL   O30412854   5.752   3.459   4.238 -1.0181  0.2131  0.2301
   26MOL   C30512855   5.716   3.572   4.311  0.4473 -0.4963 -0.7414
   26MOL   C30612856   5.803   3.685   4.257  0.5492 -0.8722 -0.0377
   26MOL   C30712857   5.795   3.822   4.332  0.0634 -0.0634 -1.2729
   26MOL   C30812858   5.878   3.939   4.265 -0.2424 -0.0089 -0.6158
   26MOL   C30912859   6.033   3.922   4.261 -0.4615  0.0996 -0.3251
   26MOL   C31012860   6.097   4.030   4.177  0.1661 -0.6627  0.4976
   26MOL   H31112861   5.656   3.178   4.108 -1.0164  0.7833  0.5632
   26MOL   H31212862   5.808   3.249   4.140  0.3453 -0.7617  0.3898
   26MOL   H31312863   5.560   3.406   4.176 -0.5518  0.8417  1.7305
   26MOL   H31412864   5.742   3.554   4.415  1.2870 -2.3901 -1.2590
   26MOL   H31512865   5.610   3.593   4.297  0.6149 -0.1694 -1.5451
   26MOL   H31612866   5.767   3.693   4.154  2.3701 -2.8269 -0.8608
   26MOL   H31712867   5.904   3.645   4.250  0.0580 -1.9619 -0.9882
   26MOL   H31812868   5.692   3.855   4.349 -0.2353 -1.2801 -0.5897
   26MOL   H31912869   5.844   3.798   4.426 -1.0708 -1.1297 -0.9334
   26MOL   H32012870   5.840   3.961   4.165 -2.8225  0.9521  0.5298
   26MOL   H32112871   5.859   4.027   4.327  1.0688 -0.5494  0.5630
   26MOL   H32212872   6.079   3.922   4.360  0.2901 -0.1132 -0.6715
   26MOL   H32312873   6.053   3.828   4.210 -1.4912 -0.8556  1.0036
   26MOL   H32412874   6.036   4.058   4.091 -0.5881 -1.1565  0.8665
   26MOL   H32512875   6.100   4.125   4.231  0.3853  0.8570 -2.1348
   26MOL   H32612876   6.200   4.010   4.148  0.6289  1.6374  0.4344
   26MOL   C32712877   5.625   3.285   4.350 -0.2276  0.4279 -0.2944
   26MOL   C32812878   5.550   3.146   4.342  0.7133 -0.0513 -0.8734
   26MOL   O32912879   5.508   3.109   4.474 -0.3124  0.1038 -0.1974
   26MOL   C33012880   5.602   3.071   4.579 -0.2103  0.1960  0.1091
   26MOL   C33112881   5.531   2.990   4.688 -0.6324  0.4566  0.1022
   26MOL   C33212882   5.628   2.894   4.767 -0.1267 -0.3275  0.0364
   26MOL   C33312883   5.544   2.807   4.865 -0.2476  0.0138  1.2853
   26MOL   C33412884   5.639   2.726   4.955 -0.5486 -0.0656 -0.7218
   26MOL   C33512885   5.564   2.642   5.055  0.3566  0.0124 -0.6551
   26MOL   H33612886   5.576   3.346   4.426 -0.1620 -0.2791  0.3287
   26MOL   H33712887   5.725   3.266   4.389 -0.0308  0.7095 -0.6605
   26MOL   H33812888   5.624   3.081   4.295 -0.7075 -1.4995 -1.1840
   26MOL   H33912889   5.635   3.170   4.611  1.2784  0.7569 -2.9393
   26MOL   H34012890   5.689   3.021   4.536  1.1622 -0.3162  3.3291
   26MOL   H34112891   5.450   2.928   4.651 -0.8275  1.5467 -1.3063
   26MOL   H34212892   5.476   3.063   4.747  1.9157  2.0216  0.5830
   26MOL   H34312893   5.677   2.836   4.689  1.2768 -2.0205  2.1215
   26MOL   H34412894   5.707   2.946   4.821 -1.4988  0.9601  0.8503
   26MOL   H34512895   5.482   2.871   4.928 -0.9564  0.7443 -0.1401
   26MOL   H34612896   5.475   2.747   4.806 -0.9417  2.4078 -0.4230
   26MOL   H34712897   5.711   2.670   4.896 -2.9306 -2.9679 -0.9720
   26MOL   H34812898   5.701   2.802   5.002  1.5171 -2.1335  0.0076
   26MOL   H34912899   5.495   2.700   5.116 -1.8736 -3.7211  0.5357
   26MOL   H35012900   5.514   2.570   4.991  0.4232 -0.0534 -0.6327
   26MOL   H35112901   5.643   2.589   5.109  0.3320  2.0196  1.4393
   26MOL   C35212902   5.418   3.156   4.267  0.4755 -0.3786  0.4784
   26MOL   C35312903   5.378   3.014   4.228 -0.3466  0.9731 -0.4004
   26MOL   O35412904   5.475   2.954   4.138  0.1873  0.0911  0.1255
   26MOL   C35512905   5.522   2.825   4.177 -0.1513  1.0391  0.5462
   26MOL   C35612906   5.602   2.768   4.055 -0.4092 -0.5971 -0.1928
   26MOL   C35712907   5.706   2.656   4.109 -0.3487  0.4825  0.7305
   26MOL   C35812908   5.781   2.588   3.986 -0.7367 -0.2471 -0.2939
   26MOL   C35912909   5.892   2.500   4.039  0.4673  0.0727 -0.5430
   26MOL   C36012910   5.944   2.413   3.923  0.2841  0.1748 -0.4761
   26MOL   H36112911   5.338   3.199   4.327 -0.3581 -1.3809  0.0978
   26MOL   H36212912   5.423   3.213   4.175 -1.3509  2.3883  2.0267
   26MOL   H36312913   5.366   2.955   4.318 -3.0539  0.7207 -0.8668
   26MOL   H36412914   5.447   2.751   4.207  1.6021 -1.7219 -1.6104
   26MOL   H36512915   5.595   2.850   4.253  1.8246  1.3785 -1.4082
   26MOL   H36612916   5.644   2.845   3.991 -1.9535  1.1824  0.8933
   26MOL   H36712917   5.528   2.710   4.001 -0.2146  0.1084 -1.2220
   26MOL   H36812918   5.779   2.703   4.175  0.3277  0.1659  0.2247
   26MOL   H36912919   5.665   2.582   4.177  0.4242  0.0893  0.7776
   26MOL   H37012920   5.706   2.529   3.933  0.5208 -0.4628 -1.8819
   26MOL   H37112921   5.820   2.665   3.919  1.1903 -0.1505  0.9208
   26MOL   H37212922   5.975   2.558   4.080  0.0266  1.9030 -2.2087
   26MOL   H37312923   5.858   2.432   4.117  2.3263 -2.7774 -2.1091
   26MOL   H37412924   6.018   2.344   3.964 -1.0495 -0.6257  0.6482
   26MOL   H37512925   5.866   2.368   3.862 -0.5143 -0.4707  1.0002
   26MOL   H37612926   5.990   2.473   3.844  1.2518 -1.8384 -1.4710
   26MOL   C37712927   5.241   3.011   4.151 -0.1562  0.3734  0.1549
   26MOL   C37812928   5.124   3.099   4.195  0.4144  0.2161 -0.6976
   26MOL   O37912929   5.096   3.067   4.327 -0.2180 -0.4621 -0.2420
   26MOL   C38012930   5.008   3.156   4.392 -0.3356  0.4730  0.0557
   26MOL   C38112931   5.016   3.127   4.543 -0.6898  1.4090  0.1173
   26MOL   C38212932   5.144   3.174   4.625 -0.4622  0.1530 -0.3031
   26MOL   C38312933   5.128   3.144   4.775 -0.3885 -0.6898 -0.3634
   26MOL   C38412934   5.238   3.183   4.877  0.5215 -0.6428  0.6977
   26MOL   C38512935   5.224   3.110   5.010 -0.4461  0.1819 -0.3039
   26MOL   H38612936   5.275   3.049   4.054  0.5318 -2.0430 -0.6017
   26MOL   H38712937   5.211   2.907   4.137 -0.1155  0.3705  0.0842
   26MOL   H38812938   5.144   3.206   4.185 -2.2156  0.7513 -0.4919
   26MOL   H38912939   4.903   3.145   4.364 -0.2727  1.8423 -0.7366
   26MOL   H39012940   5.048   3.254   4.368  0.9301  0.1344  0.7810
   26MOL   H39112941   5.002   3.021   4.563  2.5308  1.2251  1.7567
   26MOL   H39212942   4.922   3.170   4.578 -2.1826 -1.2095 -0.5484
   26MOL   H39312943   5.227   3.117   4.583 -0.3532  0.5939 -0.6896
   26MOL   H39412944   5.159   3.281   4.610  2.0383 -0.2343 -0.7444
   26MOL   H39512945   5.030   3.180   4.807 -0.5014 -0.5636 -0.8436
   26MOL   H39612946   5.126   3.035   4.775 -0.7700 -0.6962 -1.3400
   26MOL   H39712947   5.338   3.177   4.833 -0.4081 -1.6156 -1.3451
   26MOL   H39812948   5.220   3.290   4.886 -1.6630 -0.7592 -1.6610
   26MOL   H39912949   5.124   3.122   5.051  0.2273 -2.0559  2.1926
   26MOL   H40012950   5.235   3.002   4.998 -1.5530 -0.0160  0.4563
   26MOL   H40112951   5.300   3.144   5.081  0.1409  1.0845 -1.3503
   26MOL   C40212952   4.996   3.068   4.109 -0.0466 -0.1646 -0.1295
   26MOL   C40312953   5.007   3.090   3.964 -0.1076 -0.5426 -0.5877
   26MOL   O40412954   5.007   3.231   3.945 -0.3001  0.5279  0.0388
   26MOL   C40512955   5.029   3.287   3.810 -0.0066 -0.3575 -0.0628
   26MOL   C40612956   5.089   3.427   3.819 -0.6012  0.4571 -0.4481
   26MOL   C40712957   5.224   3.437   3.894  0.8662  0.0494  0.1954
   26MOL   C40812958   5.263   3.582   3.936  0.2318  0.5832  0.5596
   26MOL   C40912959   5.360   3.591   4.047  0.0769 -0.0713 -0.3991
   26MOL   C41012960   5.387   3.735   4.114  0.0654  0.7907  0.1233
   26MOL   H41112961   4.906   3.122   4.139  0.3656  0.9070 -0.7832
   26MOL   H41212962   4.969   2.964   4.128 -0.3408 -0.3502 -1.5004
   26MOL   H41312963   5.099   3.047   3.926 -0.7284 -0.6726 -1.9916
   26MOL   H41412964   4.932   3.294   3.759 -0.4354  3.2966  1.0780
   26MOL   H41512965   5.100   3.230   3.751 -0.7641  0.0144 -1.3594
   26MOL   H41612966   5.018   3.488   3.875  1.5013  0.9323  1.7676
   26MOL   H41712967   5.084   3.480   3.724 -1.0395  0.4727 -0.4174
   26MOL   H41812968   5.222   3.366   3.976  1.5240  0.2773  0.4059
   26MOL   H41912969   5.300   3.393   3.829  1.8984 -0.2388  1.5850
   26MOL   H42012970   5.312   3.634   3.853 -0.1015  0.3007  0.1864
   26MOL   H42112971   5.170   3.633   3.961  0.3197 -0.0543  2.2848
   26MOL   H42212972   5.333   3.515   4.121 -1.8797  1.1190  0.1288
   26MOL   H42312973   5.459   3.556   4.018  1.1185 -0.0290  2.9595
   26MOL   H42412974   5.304   3.767   4.178  1.0627  1.1207  1.2683
   26MOL   H42512975   5.468   3.738   4.186 -0.4360 -0.8854  0.7792
   26MOL   H42612976   5.404   3.817   4.045 -0.4288  0.7735 -0.0234
   26MOL   C42712977   4.878   3.025   3.890 -0.8919  0.4670  0.6453
   26MOL   C42812978   4.895   2.970   3.746 -0.1158 -0.3065  0.8879
   26MOL   O42912979   4.915   3.064   3.644  0.1235 -0.2346  0.1844
   26MOL   C43012980   4.796   3.094   3.571  0.7895  0.4432  0.3749
   26MOL   C43112981   4.823   3.177   3.444 -0.0344 -0.3383  0.4067
   26MOL   C43212982   4.921   3.129   3.332  0.8138  0.2822 -0.1449
   26MOL   C43312983   4.932   3.222   3.214 -0.2011 -0.1728  0.4074
   26MOL   C43412984   5.010   3.355   3.246 -0.4796  0.3617 -0.2176
   26MOL   C43512985   5.000   3.453   3.134 -0.0792  0.5403 -0.3570
   26MOL   H43612986   4.841   2.940   3.946 -1.3392  1.1202  1.3490
   26MOL   H43712987   4.802   3.102   3.899 -2.7309 -1.3981  1.3920
   26MOL   H43812988   4.806   2.908   3.734  0.6692 -1.2733 -0.0281
   26MOL   H43912989   4.716   3.132   3.634 -0.4564 -0.8115 -0.4242
   26MOL   H44012990   4.776   2.997   3.525 -0.4399  0.9043 -0.0747
   26MOL   H44112991   4.863   3.266   3.493  0.9978  0.6064 -2.0954
   26MOL   H44212992   4.729   3.214   3.405  1.3684  2.4676 -0.4440
   26MOL   H44312993   5.015   3.092   3.372  0.3287 -1.2205 -0.3460
   26MOL   H44412994   4.862   3.046   3.291 -0.5564  1.6402 -0.9747
   26MOL   H44512995   4.994   3.174   3.137  0.2117 -0.2393  0.7797
   26MOL   H44612996   4.838   3.252   3.168 -0.9702 -0.0971  2.0033
   26MOL   H44712997   4.975   3.403   3.338 -0.7226 -1.1191  0.4831
   26MOL   H44812998   5.110   3.329   3.283 -0.7099  1.4440  1.2188
   26MOL   H44912999   5.017   3.553   3.173 -1.2542  0.9308 -0.8398
   26MOL   H45013000   5.083   3.437   3.064  1.7054 -1.8248  2.1916
   26MOL   H45113001   4.905   3.447   3.082 -0.8456 -0.2371  1.1181
   26MOL   C45213002   5.007   2.864   3.716 -0.3234  0.8570 -0.4428
   26MOL   C45313003   4.965   2.718   3.766 -0.8848 -0.6579 -0.3628
   26MOL   O45413004   5.075   2.644   3.816 -0.1575  0.3403  0.3055
   26MOL   C45513005   5.122   2.654   3.949 -0.4797 -0.7650 -0.5414
   26MOL   C45613006   5.248   2.579   3.970 -0.0617  0.1427  0.0656
   26MOL   C45713007   5.244   2.432   3.930  0.2006 -0.4390 -0.5241
   26MOL   C45813008   5.382   2.366   3.948 -0.2093 -0.9099 -0.3373
   26MOL   C45913009   5.395   2.214   3.915 -0.0610 -0.9587  0.3760
   26MOL   C46013010   5.348   2.174   3.774  0.0328 -0.2614  0.2781
   26MOL   H46113011   5.041   2.863   3.613 -1.2513 -1.7027 -0.7485
   26MOL   H46213012   5.097   2.895   3.770  0.6498 -0.3953 -1.3217
   26MOL   H46313013   4.899   2.719   3.852  0.0853 -1.7895  0.4000
   26MOL   H46413014   5.049   2.622   4.023  0.6362  0.1654  0.9878
   26MOL   H46513015   5.139   2.760   3.970  2.0449 -1.2358 -0.0903
   26MOL   H46613016   5.265   2.591   4.077  0.3266  1.2381 -0.1145
   26MOL   H46713017   5.338   2.624   3.928  0.5813 -1.3189 -0.1519
   26MOL   H46813018   5.166   2.372   3.978  0.6497  1.3354  2.5641
   26MOL   H46913019   5.218   2.429   3.824 -0.7104  2.4861 -0.4232
   26MOL   H47013020   5.455   2.425   3.893  0.2672 -4.7290 -4.1502
   26MOL   H47113021   5.422   2.368   4.049 -3.5104  0.0163  1.0299
   26MOL   H47213022   5.500   2.185   3.926 -0.3045 -2.2421 -0.6618
   26MOL   H47313023   5.337   2.159   3.989  0.3814 -1.7780  0.1185
   26MOL   H47413024   5.353   2.065   3.782 -1.5429 -0.3084  0.8485
   26MOL   H47513025   5.248   2.209   3.749 -0.0415 -1.0591 -0.5708
   26MOL   H47613026   5.419   2.217   3.703  0.5629  0.4537  1.2182
   26MOL   C47713027   4.895   2.641   3.654 -0.1978 -0.0168  0.5896
   26MOL   C47813028   4.823   2.513   3.704 -0.3324 -0.0460 -0.0789
   26MOL   O47913029   4.720   2.547   3.796  0.5364  0.3454  0.1022
   26MOL   C48013030   4.755   2.506   3.923 -0.9577  0.1171 -0.3080
   26MOL   C48113031   4.651   2.571   4.017 -0.3954 -0.2663  0.4387
   26MOL   C48213032   4.682   2.710   4.063  0.3762  0.2477 -0.1035
   26MOL   C48313033   4.553   2.785   4.111  0.3660 -0.4361  0.0149
   26MOL   C48413034   4.573   2.940   4.103  0.6798  0.0599 -0.2258
   26MOL   C48513035   4.446   3.003   4.165  0.3560  0.1969 -0.0850
   26MOL   H48613036   4.814   2.697   3.606  1.5598  1.0221 -1.2417
   26MOL   H48713037   4.969   2.614   3.578 -0.3895  2.0548 -0.3566
   26MOL   H48813038   4.786   2.466   3.613 -1.1821 -2.1439  1.3225
   26MOL   H48913039   4.859   2.512   3.956 -1.0531 -0.9831  0.2042
   26MOL   H49013040   4.738   2.399   3.909 -0.7548  0.1515 -0.8419
   26MOL   H49113041   4.652   2.511   4.109  0.4959 -0.5354  0.2649
   26MOL   H49213042   4.558   2.571   3.962 -0.8634  0.5674  1.2228
   26MOL   H49313043   4.743   2.689   4.151  0.1118  0.7423  0.2022
   26MOL   H49413044   4.744   2.781   4.008 -1.1525  1.8848  0.2017
   26MOL   H49513045   4.466   2.764   4.050  2.0546 -2.4793 -1.7948
   26MOL   H49613046   4.543   2.752   4.214 -1.9563  0.6502  0.1619
   26MOL   H49713047   4.657   2.985   4.156  1.0533  0.6629 -1.3359
   26MOL   H49813048   4.588   2.970   4.000  1.2446  0.6444  0.0250
   26MOL   H49913049   4.415   2.956   4.258 -0.8672  0.1066 -0.5294
   26MOL   H50013050   4.446   3.112   4.171 -1.3698  0.4418 -3.3935
   26MOL   H50113051   4.360   2.988   4.101  2.2988  3.6034 -3.7148
   26MOL   H50213052   4.899   2.443   3.738  1.3433  1.7420 -0.0284
   27MOL     C113053   4.116   1.811   1.474 -0.1987  0.1352  0.2826
   27MOL     C213054   4.182   1.720   1.576 -0.0573 -0.1266  0.3324
   27MOL     O313055   4.320   1.747   1.564  0.2207  0.2219 -0.1613
   27MOL     C413056   4.388   1.831   1.650  0.2866 -0.2556 -0.3137
   27MOL     C513057   4.529   1.852   1.588  0.0512  0.7404  0.1870
   27MOL     C613058   4.641   1.930   1.657 -0.0235 -0.0008  0.6816
   27MOL     C713059   4.673   1.873   1.790  0.4490 -0.1151 -0.5410
   27MOL     C813060   4.798   1.935   1.853  0.7145 -0.2951  0.8601
   27MOL     C913061   4.807   1.901   2.001  0.5425 -0.2864 -0.4915
   27MOL    H1013062   4.157   1.912   1.474 -1.6796  0.7783 -1.2897
   27MOL    H1113063   4.115   1.777   1.371  1.4806 -1.0262  0.6240
   27MOL    H1213064   4.144   1.743   1.675 -0.3510 -2.3507  0.7775
   27MOL    H1313065   4.395   1.794   1.753  1.0696 -0.4715 -0.4410
   27MOL    H1413066   4.328   1.921   1.657  0.0764 -0.3595 -0.8074
   27MOL    H1513067   4.508   1.907   1.497 -0.5030 -1.0605 -0.8043
   27MOL    H1613068   4.571   1.755   1.559  0.1829  0.5349  1.0494
   27MOL    H1713069   4.723   1.918   1.585 -0.2682  1.8065  0.0827
   27MOL    H1813070   4.623   2.037   1.672  0.4022  0.0335  0.9699
   27MOL    H1913071   4.586   1.903   1.848  2.5498  1.0476  2.1281
   27MOL    H2013072   4.675   1.764   1.784 -0.2518 -0.1298 -0.5376
   27MOL    H2113073   4.792   2.044   1.847 -2.2038 -0.5411 -1.5876
   27MOL    H2213074   4.894   1.900   1.813  0.0977 -1.0706  0.0442
   27MOL    H2313075   4.750   1.959   2.073 -0.4267 -1.3824 -0.3688
   27MOL    H2413076   4.780   1.800   2.029  1.2527 -0.3333  0.0251
   27MOL    H2513077   4.912   1.924   2.021  0.8636 -0.8104 -1.5184
   27MOL    H2613078   4.007   1.811   1.479 -0.3043 -3.0542 -0.9613
   27MOL    C2713079   4.162   1.571   1.549  0.1443 -0.3206  0.5570
   27MOL    C2813080   4.080   1.492   1.652 -0.4745  0.5128 -0.6863
   27MOL    O2913081   3.940   1.527   1.639 -0.0548  0.1228  0.0364
   27MOL    C3013082   3.875   1.516   1.513  0.4089  0.1537  0.1339
   27MOL    C3113083   3.736   1.582   1.522 -0.1005 -0.0774  0.9847
   27MOL    C3213084   3.625   1.507   1.603  0.2667 -0.0701  0.1511
   27MOL    C3313085   3.641   1.505   1.758  0.1076 -0.0952 -0.3322
   27MOL    C3413086   3.656   1.647   1.806 -1.3282  0.0768 -0.6634
   27MOL    C3513087   3.675   1.654   1.958 -0.0153  0.7106  0.4435
   27MOL    H3613088   4.126   1.553   1.448  0.2019 -4.5919  1.1860
   27MOL    H3713089   4.259   1.521   1.544  0.4578  0.2216  1.1940
   27MOL    H3813090   4.117   1.519   1.751 -1.4389  0.1496 -0.2184
   27MOL    H3913091   3.857   1.418   1.469  1.3621  0.1730 -0.3068
   27MOL    H4013092   3.927   1.572   1.436 -1.4867 -0.3436 -1.5672
   27MOL    H4113093   3.692   1.581   1.422 -0.9133 -1.1456  1.3395
   27MOL    H4213094   3.742   1.688   1.544  0.3100  0.0421  0.3230
   27MOL    H4313095   3.531   1.551   1.570  0.6546 -0.1265 -1.0596
   27MOL    H4413096   3.631   1.406   1.562  0.1261 -0.4819  1.1317
   27MOL    H4513097   3.557   1.458   1.810  0.0598 -1.8604 -1.9300
   27MOL    H4613098   3.732   1.450   1.781 -1.1942 -0.9119  3.1450
   27MOL    H4713099   3.750   1.681   1.762 -1.8418 -1.7168 -3.2852
   27MOL    H4813100   3.570   1.708   1.780 -1.2125  0.3357 -0.4349
   27MOL    H4913101   3.774   1.623   1.992 -1.5199 -2.6694  2.0275
   27MOL    H5013102   3.656   1.755   1.996 -0.3747  0.2365  1.5428
   27MOL    H5113103   3.595   1.597   2.004 -0.9864  2.5309  1.0796
   27MOL    C5213104   4.103   1.338   1.637 -0.2277  0.7834  0.0489
   27MOL    C5313105   4.039   1.258   1.755  0.0626  0.7461  1.1417
   27MOL    O5413106   4.026   1.118   1.717 -0.2364  0.3552  0.5587
   27MOL    C5513107   3.895   1.079   1.703 -0.2393 -0.1932  0.7112
   27MOL    C5613108   3.891   0.933   1.640  0.0261  0.2733  0.9904
   27MOL    C5713109   3.958   0.823   1.737 -0.7124  0.4855  0.5458
   27MOL    C5813110   3.922   0.679   1.702 -0.6691  0.1545  0.6874
   27MOL    C5913111   3.961   0.578   1.811 -0.5575  0.3072 -0.8329
   27MOL    C6013112   3.889   0.442   1.794  0.5823  0.4145  0.1601
   27MOL    H6113113   4.208   1.310   1.640 -0.6294 -0.6616  1.3867
   27MOL    H6213114   4.065   1.305   1.540  0.4512  1.1926 -0.3559
   27MOL    H6313115   3.945   1.300   1.790 -0.8792 -1.0043  0.7840
   27MOL    H6413116   3.834   1.145   1.641 -0.1531  0.2110  1.0560
   27MOL    H6513117   3.848   1.092   1.800  0.9083  0.6271  1.1634
   27MOL    H6613118   3.929   0.926   1.538 -2.0878 -0.1002  0.2000
   27MOL    H6713119   3.785   0.909   1.628  0.2281 -1.2891  2.1974
   27MOL    H6813120   4.065   0.842   1.732 -0.9055  1.6972  0.8657
   27MOL    H6913121   3.939   0.845   1.842  0.0429  3.0188  0.1763
   27MOL    H7013122   3.815   0.667   1.681 -0.4031  1.4043 -1.6167
   27MOL    H7113123   3.967   0.658   1.605 -3.6147  0.4361 -0.8147
   27MOL    H7213124   4.069   0.566   1.823 -0.6600  1.8551  2.2314
   27MOL    H7313125   3.927   0.628   1.902  1.4838  0.3506 -0.0606
   27MOL    H7413126   3.789   0.453   1.753  0.2152 -0.6655  0.7461
   27MOL    H7513127   3.933   0.391   1.708 -2.0380  0.3046 -1.1546
   27MOL    H7613128   3.880   0.386   1.887 -1.7567 -0.6384 -0.6445
   27MOL    C7713129   4.140   1.276   1.877  0.6066  0.9865 -0.0876
   27MOL    C7813130   4.085   1.214   2.007 -0.8668  0.3943 -0.0065
   27MOL    O7913131   3.997   1.312   2.058  0.2505 -0.0393 -0.0928
   27MOL    C8013132   3.894   1.273   2.144  0.3946  0.0459  0.6334
   27MOL    C8113133   3.759   1.305   2.077  0.1881 -1.0400  0.2890
   27MOL    C8213134   3.638   1.264   2.165  0.1437 -0.4554  0.4295
   27MOL    C8313135   3.517   1.236   2.070  0.3527 -0.1323  0.1354
   27MOL    C8413136   3.389   1.188   2.148  0.5086 -0.5137 -0.0969
   27MOL    C8513137   3.266   1.170   2.063 -0.0887 -0.4611 -0.4792
   27MOL    H8613138   4.177   1.378   1.893  0.2061  0.8951  1.5309
   27MOL    H8713139   4.230   1.222   1.847  0.4190  1.2383 -1.1084
   27MOL    H8813140   4.018   1.134   1.973  0.2944 -0.5767 -0.0571
   27MOL    H8913141   3.898   1.328   2.238 -2.2658  0.3376  0.6102
   27MOL    H9013142   3.898   1.166   2.165  0.4397 -0.2401 -0.7753
   27MOL    H9113143   3.762   1.248   1.984  1.6830  1.2334 -1.1059
   27MOL    H9213144   3.758   1.409   2.044 -0.5195 -1.7036 -1.9093
   27MOL    H9313145   3.660   1.168   2.212  1.2666 -0.6118 -0.4000
   27MOL    H9413146   3.614   1.340   2.239 -1.5132  1.2415 -1.7700
   27MOL    H9513147   3.504   1.331   2.017  1.9278 -0.7670 -1.4427
   27MOL    H9613148   3.541   1.159   1.997  2.5310 -0.1199  0.8051
   27MOL    H9713149   3.411   1.100   2.207 -0.2675  0.3611  1.5273
   27MOL    H9813150   3.357   1.265   2.218 -1.8793  0.2885 -2.0062
   27MOL    H9913151   3.188   1.107   2.106 -1.1504  1.1265 -0.0538
   27MOL   H10013152   3.217   1.265   2.043 -3.0177 -1.7563  0.2660
   27MOL   H10113153   3.285   1.139   1.960 -1.0102  1.9004 -1.4070
   27MOL   C10213154   4.197   1.183   2.110  0.4295  0.8674  0.3960
   27MOL   C10313155   4.218   1.039   2.161 -0.5666 -0.0029 -0.0612
   27MOL   O10413156   4.292   0.964   2.062 -0.0793  0.3240  0.2262
   27MOL   C10513157   4.222   0.864   1.992  0.3396  0.0859 -0.0954
   27MOL   C10613158   4.318   0.801   1.898  0.1985 -0.3500  0.6478
   27MOL   C10713159   4.352   0.889   1.773 -0.2029 -0.1162  0.2332
   27MOL   C10813160   4.427   0.819   1.671  0.2524 -0.4614  0.0244
   27MOL   C10913161   4.324   0.746   1.582  0.2187  0.3838 -0.2897
   27MOL   C11013162   4.394   0.684   1.463 -0.1395  0.4816  0.2583
   27MOL   H11113163   4.290   1.214   2.061 -0.1911  1.3350 -0.5162
   27MOL   H11213164   4.176   1.251   2.192  2.0237 -0.2860  1.7964
   27MOL   H11313165   4.120   0.998   2.183 -0.2508 -0.7760 -0.0684
   27MOL   H11413166   4.132   0.902   1.943 -1.0136 -0.6456  1.7294
   27MOL   H11513167   4.182   0.783   2.053  0.0998 -0.2845 -0.7359
   27MOL   H11613168   4.272   0.710   1.861 -2.7146  1.2897  0.0908
   27MOL   H11713169   4.407   0.780   1.957 -0.9392 -0.8475  2.1961
   27MOL   H11813170   4.257   0.925   1.734  1.5051  1.6834 -2.4528
   27MOL   H11913171   4.407   0.975   1.811  0.7801 -0.1598 -1.0389
   27MOL   H12013172   4.474   0.893   1.606  1.3426 -2.9438 -2.1242
   27MOL   H12113173   4.510   0.754   1.697 -0.2588 -1.1243  0.0213
   27MOL   H12213174   4.276   0.668   1.642 -1.6203 -0.7407 -3.1097
   27MOL   H12313175   4.251   0.818   1.546 -1.6027 -0.5394  1.4419
   27MOL   H12413176   4.318   0.679   1.385 -0.0238 -2.0479  0.2630
   27MOL   H12513177   4.475   0.749   1.430  0.0228  0.0080 -0.2990
   27MOL   H12613178   4.418   0.578   1.479 -1.8899  0.2138  1.1752
   27MOL   C12713179   4.310   1.034   2.286  0.1497  0.0802  0.1828
   27MOL   C12813180   4.295   1.136   2.402 -0.1708 -0.1083 -0.5817
   27MOL   O12913181   4.393   1.090   2.499  0.2938  0.2186  0.5145
   27MOL   C13013182   4.522   1.128   2.483 -0.2268  0.1931  0.4697
   27MOL   C13113183   4.590   1.099   2.618 -0.2111 -0.3885 -0.4255
   27MOL   C13213184   4.575   0.960   2.677 -0.1362 -0.3437 -0.0330
   27MOL   C13313185   4.636   0.941   2.808  0.2402  0.2506  0.2314
   27MOL   C13413186   4.643   0.794   2.853  0.4132  0.7169  0.3299
   27MOL   C13513187   4.675   0.784   3.006  0.0077  0.1303  0.0830
   27MOL   H13613188   4.329   0.934   2.327 -0.0040  0.7795  1.9663
   27MOL   H13713189   4.404   1.070   2.243 -0.1595 -0.5435 -1.0367
   27MOL   H13813190   4.324   1.237   2.373 -2.9187  0.9061  0.0187
   27MOL   H13913191   4.530   1.234   2.459  1.0443 -0.1222 -0.5300
   27MOL   H14013192   4.569   1.061   2.410  0.1695  1.2225 -0.2331
   27MOL   H14113193   4.531   1.173   2.671 -2.1900 -1.3232 -1.2746
   27MOL   H14213194   4.696   1.123   2.609 -0.2076 -0.3433 -0.2527
   27MOL   H14313195   4.470   0.931   2.671 -0.7190  0.9810  2.9060
   27MOL   H14413196   4.621   0.895   2.603  0.2063 -0.6726  0.4614
   27MOL   H14513197   4.734   0.988   2.806  0.8392 -0.9963  0.5207
   27MOL   H14613198   4.577   0.997   2.881 -0.8107  2.0653 -1.9239
   27MOL   H14713199   4.548   0.748   2.828  1.6541 -0.7292 -1.8862
   27MOL   H14813200   4.715   0.748   2.786  0.0149  0.9665 -0.2694
   27MOL   H14913201   4.648   0.685   3.044  0.6623 -0.4459 -0.9370
   27MOL   H15013202   4.782   0.800   3.020 -0.3535  2.9885 -0.1326
   27MOL   H15113203   4.616   0.857   3.062 -0.7887 -0.5119  0.0922
   27MOL   C15213204   4.155   1.141   2.464  0.0949  0.3224 -0.1288
   27MOL   C15313205   4.150   1.234   2.586 -0.0849  0.4166 -0.3722
   27MOL   O15413206   4.155   1.364   2.533  0.1569 -0.0687  0.4849
   27MOL   C15513207   4.219   1.470   2.606  0.0736  0.6247  0.8803
   27MOL   C15613208   4.375   1.453   2.626  0.3115  0.1728  0.0647
   27MOL   C15713209   4.444   1.568   2.696  0.7647  0.1696 -0.4236
   27MOL   C15813210   4.591   1.550   2.708 -0.6240 -0.1718  0.2664
   27MOL   C15913211   4.673   1.672   2.754  0.4679  0.5000  0.2609
   27MOL   C16013212   4.821   1.634   2.768  0.0806 -0.1091  0.8460
   27MOL   H16113213   4.079   1.173   2.393  0.6607  0.6266 -0.6054
   27MOL   H16213214   4.132   1.036   2.482  0.7710  0.4180  1.4051
   27MOL   H16313215   4.235   1.212   2.650  0.0588 -0.1535 -0.7533
   27MOL   H16413216   4.172   1.475   2.704 -1.2935 -2.9396  0.4936
   27MOL   H16513217   4.189   1.565   2.561  0.2153 -0.2559 -1.1173
   27MOL   H16613218   4.427   1.456   2.530  1.7267 -3.2318  0.6516
   27MOL   H16713219   4.393   1.355   2.670 -1.2435  0.7477  2.0084
   27MOL   H16813220   4.434   1.667   2.653 -0.9078 -0.0367 -0.5531
   27MOL   H16913221   4.401   1.575   2.797  2.2612  1.7454  0.1162
   27MOL   H17013222   4.623   1.467   2.771 -0.5072 -1.5915 -1.6136
   27MOL   H17113223   4.632   1.523   2.611  0.2993 -1.2637  0.9547
   27MOL   H17213224   4.668   1.758   2.687  3.4352 -0.3979 -1.1831
   27MOL   H17313225   4.647   1.693   2.858 -0.9484 -1.5059  0.3407
   27MOL   H17413226   4.855   1.575   2.683  1.9500 -0.5728  1.8795
   27MOL   H17513227   4.879   1.727   2.769  2.8988 -1.7563 -1.2030
   27MOL   H17613228   4.835   1.581   2.862  2.2887 -0.7045  0.2186
   27MOL   C17713229   4.018   1.228   2.669 -0.6733 -0.2605  0.0092
   27MOL   C17813230   4.004   1.094   2.745  0.0176  0.2897  0.4913
   27MOL   O17913231   4.111   1.076   2.835  0.0593 -0.6765 -0.0878
   27MOL   C18013232   4.202   0.969   2.813  0.3486 -0.5995 -0.2092
   27MOL   C18113233   4.324   0.988   2.909  0.0680  0.5994  0.7684
   27MOL   C18213234   4.278   1.014   3.057  0.5906  0.1195 -0.5280
   27MOL   C18313235   4.388   1.027   3.162 -0.0999 -0.3256  0.1327
   27MOL   C18413236   4.336   1.066   3.293  0.2916 -0.8165  0.8146
   27MOL   C18513237   4.450   1.047   3.395  0.1496 -0.6074 -0.4975
   27MOL   H18613238   4.021   1.308   2.743 -0.5340 -0.9256  0.7295
   27MOL   H18713239   3.934   1.243   2.602 -0.0527  0.4526 -0.6084
   27MOL   H18813240   4.001   1.010   2.676  0.4858  1.4100 -0.9133
   27MOL   H18913241   4.251   0.969   2.716  2.1913  0.1986  0.6929
   27MOL   H19013242   4.154   0.872   2.822  0.2135 -0.4914  0.2920
   27MOL   H19113243   4.383   1.074   2.878  2.1685 -1.3538 -0.9449
   27MOL   H19213244   4.388   0.899   2.918 -2.1517 -0.9354  1.7305
   27MOL   H19313245   4.232   1.113   3.057  2.7172  1.1569  1.0934
   27MOL   H19413246   4.213   0.931   3.083  0.5969  0.4202  0.4508
   27MOL   H19513247   4.442   0.933   3.168 -1.0872 -0.9764 -1.0320
   27MOL   H19613248   4.463   1.101   3.132 -2.0286  0.9669 -1.6661
   27MOL   H19713249   4.295   1.166   3.300  1.1486 -0.4120  0.1889
   27MOL   H19813250   4.252   1.002   3.319 -0.4344 -0.3034 -0.2820
   27MOL   H19913251   4.526   1.124   3.382 -2.2465  2.1949  1.5806
   27MOL   H20013252   4.407   1.050   3.495 -1.6915 -3.3148 -1.1256
   27MOL   H20113253   4.492   0.948   3.374  1.5010 -0.2332  0.3837
   27MOL   C20213254   3.875   1.090   2.828  0.2096  0.9308  0.1967
   27MOL   C20313255   3.744   1.055   2.749  0.6196  0.9607 -0.7145
   27MOL   O20413256   3.640   1.104   2.829  0.4607  0.5063  0.4665
   27MOL   C20513257   3.600   1.228   2.784 -0.4328  0.4276  0.1206
   27MOL   C20613258   3.492   1.280   2.883 -0.9829 -0.1271  0.3600
   27MOL   C20713259   3.478   1.434   2.899 -0.0630  0.1041 -0.4007
   27MOL   C20813260   3.369   1.470   2.997  0.6320 -0.2844  0.3375
   27MOL   C20913261   3.327   1.615   2.995  0.7510 -0.1511  0.3677
   27MOL   C21013262   3.175   1.626   3.017  0.2094 -0.1643  0.0517
   27MOL   H21113263   3.885   1.020   2.912  1.9315 -0.8458 -1.4194
   27MOL   H21213264   3.871   1.190   2.870  1.2066  1.0645 -0.0144
   27MOL   H21313265   3.753   1.100   2.650  1.1318  2.3547 -0.0505
   27MOL   H21413266   3.547   1.214   2.690 -0.3564  3.2899 -0.3883
   27MOL   H21513267   3.684   1.297   2.778 -0.3782  0.4176  0.7702
   27MOL   H21613268   3.514   1.241   2.982  1.4867  0.5210  0.0994
   27MOL   H21713269   3.397   1.231   2.859 -0.6288 -1.0837  0.8811
   27MOL   H21813270   3.576   1.479   2.917 -1.3918  2.4618  1.2130
   27MOL   H21913271   3.442   1.461   2.800 -0.9487 -2.2204 -0.7525
   27MOL   H22013272   3.279   1.412   2.974  0.8007 -0.2927 -0.3047
   27MOL   H22113273   3.394   1.431   3.096  0.2957  0.0701  0.5637
   27MOL   H22213274   3.390   1.658   3.073  0.3936 -2.2228  1.8539
   27MOL   H22313275   3.355   1.667   2.904 -0.4462  1.0338  0.6675
   27MOL   H22413276   3.127   1.627   2.920 -1.3308 -2.7295  0.7537
   27MOL   H22513277   3.128   1.552   3.081 -1.9679  1.6256  0.5858
   27MOL   H22613278   3.147   1.721   3.064 -0.1592 -1.0228  1.6121
   27MOL   C22713279   3.717   0.900   2.734 -0.3929  0.5768 -0.5192
   27MOL   C22813280   3.627   0.875   2.610 -0.4863 -0.2441 -0.4955
   27MOL   O22913281   3.724   0.840   2.503 -0.6454 -0.2103 -0.1074
   27MOL   C23013282   3.769   0.950   2.427  0.4425  0.4616 -0.3583
   27MOL   C23113283   3.810   0.892   2.291  0.5677  0.0830 -0.1086
   27MOL   C23213284   3.697   0.829   2.210  0.6798  0.3046 -0.3576
   27MOL   C23313285   3.740   0.793   2.069 -0.4377  0.0023 -0.1259
   27MOL   C23413286   3.640   0.734   1.969 -0.1358 -0.3780  0.0339
   27MOL   C23513287   3.526   0.837   1.941  0.3182  0.2619 -0.3977
   27MOL   H23613288   3.811   0.846   2.729  0.1109  1.4023 -0.0989
   27MOL   H23713289   3.667   0.860   2.822 -4.1179  3.2224 -1.2963
   27MOL   H23813290   3.570   0.968   2.601  2.5373  1.5753 -1.6228
   27MOL   H23913291   3.846   1.005   2.480 -2.4691  0.1942  4.4058
   27MOL   H24013292   3.681   1.011   2.406  0.5838  1.6684  2.3084
   27MOL   H24113293   3.895   0.825   2.300  1.1119  0.6957 -0.6161
   27MOL   H24213294   3.853   0.973   2.231  0.2402  0.5045  0.2176
   27MOL   H24313295   3.668   0.739   2.264 -0.4612  1.8243  1.6341
   27MOL   H24413296   3.613   0.897   2.216  0.9530  0.6861 -0.8220
   27MOL   H24513297   3.777   0.888   2.029 -0.3048 -0.8572 -2.0692
   27MOL   H24613298   3.825   0.727   2.085  0.3355  0.2359 -3.0771
   27MOL   H24713299   3.696   0.706   1.880 -1.7706  0.6743 -1.3550
   27MOL   H24813300   3.602   0.639   2.006 -0.2060 -0.2821  0.2055
   27MOL   H24913301   3.467   0.865   2.028  0.3702 -0.7823 -0.0138
   27MOL   H25013302   3.573   0.932   1.916  0.0341  0.3434 -0.6252
   27MOL   H25113303   3.451   0.817   1.864 -0.7188  2.9793 -0.1508
   27MOL   C25213304   3.536   0.747   2.619 -0.3945 -0.2374 -0.3583
   27MOL   C25313305   3.421   0.744   2.516 -0.0043  0.2777  0.4510
   27MOL   O25413306   3.327   0.835   2.576  0.1207 -0.2301  0.5254
   27MOL   C25513307   3.293   0.937   2.490  0.9533  0.4245  0.5469
   27MOL   C25613308   3.223   1.058   2.556  0.5368 -0.1986 -0.4765
   27MOL   C25713309   3.187   1.175   2.465  0.2814  0.8910  0.1207
   27MOL   C25813310   3.064   1.244   2.518  0.0658 -0.7509 -0.0021
   27MOL   C25913311   3.055   1.383   2.452  0.5374 -0.7983 -0.5085
   27MOL   C26013312   2.959   1.476   2.530 -0.2883  0.0351  0.2294
   27MOL   H26113313   3.599   0.659   2.631 -1.4412 -0.7378  1.6745
   27MOL   H26213314   3.480   0.748   2.712  0.6113  2.1931  0.2823
   27MOL   H26313315   3.453   0.772   2.415  1.0116  1.2615  1.0269
   27MOL   H26413316   3.230   0.907   2.406  2.1147 -1.2729  0.2477
   27MOL   H26513317   3.386   0.975   2.448  1.7250 -0.2136  1.6592
   27MOL   H26613318   3.290   1.102   2.629 -0.8226  2.4412 -0.7609
   27MOL   H26713319   3.131   1.020   2.600  1.3392 -1.3881  0.2031
   27MOL   H26813320   3.272   1.242   2.454  0.5135  0.7523  0.9874
   27MOL   H26913321   3.166   1.142   2.363 -1.9536  3.4884 -0.3232
   27MOL   H27013322   2.974   1.184   2.508 -0.5502 -0.2446  2.1103
   27MOL   H27113323   3.079   1.248   2.626  2.4657  0.2424 -0.3400
   27MOL   H27213324   3.150   1.436   2.447  0.4151 -0.3040  2.0295
   27MOL   H27313325   3.031   1.374   2.346 -1.0706  0.9707 -0.3133
   27MOL   H27413326   2.854   1.460   2.509 -0.1126 -0.0367 -0.6076
   27MOL   H27513327   2.973   1.467   2.638  2.8844  0.6083 -0.0739
   27MOL   H27613328   2.979   1.577   2.493 -2.4623  0.6051  0.5572
   27MOL   C27713329   3.342   0.610   2.519 -0.0007  0.7666 -0.5017
   27MOL   C27813330   3.411   0.486   2.467 -0.2113  1.1603 -0.6481
   27MOL   O27913331   3.325   0.374   2.487  0.3568 -0.6176 -0.1948
   27MOL   C28013332   3.368   0.300   2.599  0.3518 -0.3409  0.5718
   27MOL   C28113333   3.296   0.169   2.618  0.1532  0.0958 -1.0217
   27MOL   C28213334   3.352   0.048   2.536 -0.2299 -0.1585  0.7273
   27MOL   C28313335   3.268   7.697   2.551 -0.1908 -0.3600 -0.2163
   27MOL   C28413336   3.311   7.596   2.441 -0.4517 -0.0509 -0.5547
   27MOL   C28513337   3.224   7.476   2.443  0.2656 -0.6534 -0.0865
   27MOL   H28613338   3.322   0.585   2.623  1.7453  0.8904 -0.1168
   27MOL   H28713339   3.244   0.609   2.471 -0.5968 -1.1963  0.7045
   27MOL   H28813340   3.504   0.476   2.524 -0.2961 -1.5680 -0.9271
   27MOL   H28913341   3.356   0.367   2.684  0.7606  0.7403 -0.2178
   27MOL   H29013342   3.472   0.271   2.586  0.4613  0.2858  0.0589
   27MOL   H29113343   3.191   0.183   2.592 -0.2540  1.3560  1.1876
   27MOL   H29213344   3.301   0.146   2.724 -1.3982 -1.5518 -1.2746
   27MOL   H29313345   3.357   0.074   2.430  0.9619  3.0049  1.4873
   27MOL   H29413346   3.459   0.040   2.555  0.4467  1.0725 -2.2234
   27MOL   H29513347   3.293   7.647   2.644  0.1987 -1.9094 -1.1378
   27MOL   H29613348   3.159   7.702   2.548 -0.2395 -1.2146  0.1773
   27MOL   H29713349   3.297   7.635   2.340 -1.5122  2.8258  0.6374
   27MOL   H29813350   3.417   7.580   2.457 -0.9650 -1.1658  2.0154
   27MOL   H29913351   3.261   7.389   2.387 -2.6627 -1.6241 -0.6071
   27MOL   H30013352   3.208   7.437   2.543 -0.3575 -0.2802 -0.0396
   27MOL   H30113353   3.125   7.499   2.403  0.2260 -2.2969 -0.9948
   27MOL   C30213354   3.447   0.488   2.315 -0.2401 -0.0533  0.0445
   27MOL   C30313355   3.560   0.388   2.293 -0.5307 -0.3122  0.2288
   27MOL   O30413356   3.688   0.445   2.326 -0.7461 -0.1287 -1.0353
   27MOL   C30513357   3.780   0.360   2.390  0.6080  0.6000 -0.0442
   27MOL   C30613358   3.917   0.435   2.385 -0.4075  0.1334  0.1120
   27MOL   C30713359   3.936   0.535   2.497  0.0427  0.1781  0.2368
   27MOL   C30813360   4.077   0.584   2.487 -0.1955 -0.1018  0.0854
   27MOL   C30913361   4.135   0.642   2.616  0.0753  0.3698  0.2611
   27MOL   C31013362   4.274   0.701   2.604 -0.3380  0.7317  0.2520
   27MOL   H31113363   3.363   0.473   2.247 -0.9687 -1.0511  1.1377
   27MOL   H31213364   3.483   0.582   2.273 -0.3327  0.2125  0.5529
   27MOL   H31313365   3.532   0.295   2.344 -2.4768 -0.3898 -0.9133
   27MOL   H31413366   3.791   0.260   2.350 -1.0507 -0.1957  1.4285
   27MOL   H31513367   3.748   0.332   2.490 -1.1740 -1.7578 -1.2227
   27MOL   H31613368   3.928   0.484   2.289  1.0956  1.0901  0.7443
   27MOL   H31713369   3.998   0.361   2.384 -1.4578 -1.0111 -0.4779
   27MOL   H31813370   3.869   0.621   2.491  1.1600  1.0284 -0.1930
   27MOL   H31913371   3.921   0.488   2.593  2.8197  0.4350  0.8494
   27MOL   H32013372   4.155   0.511   2.465 -0.2856  0.1213 -0.9984
   27MOL   H32113373   4.078   0.664   2.413 -0.5439  1.9644  2.2675
   27MOL   H32213374   4.061   0.718   2.641 -0.3765 -1.0263  3.3812
   27MOL   H32313375   4.133   0.573   2.701  2.4086 -0.4741 -0.3438
   27MOL   H32413376   4.355   0.630   2.589 -0.4190  0.1512  2.3640
   27MOL   H32513377   4.276   0.764   2.515 -2.0036 -0.4849 -0.6733
   27MOL   H32613378   4.309   0.759   2.690 -0.0637 -0.7068  1.1332
   27MOL   C32713379   3.573   0.341   2.145  0.6475 -0.1270 -0.4455
   27MOL   C32813380   3.448   0.271   2.080 -0.3496  0.7309 -0.4248
   27MOL   O32913381   3.471   0.256   1.940 -0.1470 -0.4027 -0.1291
   27MOL   C33013382   3.459   0.374   1.863  0.6247 -0.4572  0.2214
   27MOL   C33113383   3.405   0.311   1.727 -0.3162 -0.2590 -0.5430
   27MOL   C33213384   3.390   0.419   1.617  0.5170  0.4569  0.2211
   27MOL   C33313385   3.268   0.380   1.524  0.5428  0.1342  0.4597
   27MOL   C33413386   3.253   0.481   1.403 -0.6405  0.2357  0.2735
   27MOL   C33513387   3.128   0.449   1.314  0.0857  0.3154 -0.0266
   27MOL   H33613388   3.656   0.270   2.142 -1.7960 -3.0722 -2.5894
   27MOL   H33713389   3.608   0.422   2.080  0.2659  0.9565  0.6953
   27MOL   H33813390   3.359   0.326   2.110  0.1441  0.0181  2.5186
   27MOL   H33913391   3.546   0.439   1.859 -0.6266  1.1635 -1.5453
   27MOL   H34013392   3.369   0.424   1.900  0.4306 -0.0813 -0.7385
   27MOL   H34113393   3.307   0.267   1.747 -0.7317  0.8969  0.0343
   27MOL   H34213394   3.460   0.220   1.704 -0.0077 -0.2542  0.1830
   27MOL   H34313395   3.373   0.518   1.661  1.6178 -0.2277  2.2558
   27MOL   H34413396   3.489   0.428   1.572  0.0254  0.8362 -0.8090
   27MOL   H34513397   3.280   0.279   1.484 -0.0308  0.8948 -1.6713
   27MOL   H34613398   3.178   0.387   1.585  1.6344  2.0825  1.8833
   27MOL   H34713399   3.235   0.577   1.452  1.1149  0.1391  1.1609
   27MOL   H34813400   3.335   0.483   1.331 -0.6420  0.6720  0.2813
   27MOL   H34913401   3.101   0.528   1.244  1.4891  1.5582  0.8082
   27MOL   H35013402   3.140   0.354   1.261  1.9352  0.3856  0.2288
   27MOL   H35113403   3.038   0.429   1.373 -0.5163 -0.9338 -1.3322
   27MOL   C35213404   3.432   0.119   2.124  0.2631  0.0293  0.3081
   27MOL   C35313405   3.303   0.046   2.076 -0.0108  0.3007 -0.3362
   27MOL   O35413406   3.209   0.033   2.186  0.2087  0.1247  0.3182
   27MOL   C35513407   3.144   0.151   2.230 -0.2996 -0.0016 -0.1220
   27MOL   C35613408   3.020   0.121   2.318 -0.0514 -0.6562 -0.2781
   27MOL   C35713409   2.956   0.245   2.383 -0.6797 -0.2804 -0.1231
   27MOL   C35813410   2.825   0.208   2.452  0.2211  0.5095  0.0565
   27MOL   C35913411   2.778   0.309   2.556 -0.3101  0.2361  0.1262
   27MOL   C36013412   2.690   0.424   2.493 -0.0225 -0.0772 -0.2708
   27MOL   H36113413   3.520   0.059   2.101 -1.3077 -1.2825 -2.4423
   27MOL   H36213414   3.434   0.121   2.233 -1.3932 -0.2057  0.3444
   27MOL   H36313415   3.259   0.111   2.000 -0.6183 -1.1527 -1.2562
   27MOL   H36413416   3.102   0.207   2.146 -2.7861 -0.7600  0.5959
   27MOL   H36513417   3.215   0.223   2.272 -2.5604  3.1889 -1.6022
   27MOL   H36613418   3.028   0.032   2.380 -2.5463 -0.9407 -0.3077
   27MOL   H36713419   2.941   0.079   2.256 -0.8960  1.2608 -0.5510
   27MOL   H36813420   3.028   0.285   2.455 -0.0192 -0.3725 -0.7315
   27MOL   H36913421   2.946   0.316   2.300  0.7484  0.8768  0.6680
   27MOL   H37013422   2.750   0.207   2.373 -1.1537  1.4971  1.3290
   27MOL   H37113423   2.835   0.109   2.497  0.8948  0.9647  0.9249
   27MOL   H37213424   2.712   0.260   2.627 -0.6883  0.1835 -0.2571
   27MOL   H37313425   2.864   0.354   2.606  0.5558  0.2261 -1.3244
   27MOL   H37413426   2.738   0.477   2.410 -2.3869 -0.0733 -1.6773
   27MOL   H37513427   2.600   0.375   2.458  0.9531 -1.3801 -0.9945
   27MOL   H37613428   2.664   0.500   2.566  0.6126 -0.3003  0.1958
   27MOL   C37713429   3.324   7.678   2.039 -0.1549 -0.5352 -0.3625
   27MOL   C37813430   3.195   7.607   1.976 -0.5886 -1.1639  0.1052
   27MOL   O37913431   3.235   7.471   1.971  0.6039 -0.0317  0.3568
   27MOL   C38013432   3.134   7.377   2.008  0.2383 -0.3121  0.3045
   27MOL   C38113433   3.187   7.237   2.019  0.8829 -0.2509  0.3535
   27MOL   C38213434   3.282   7.232   2.136 -0.2950  0.7189  0.8133
   27MOL   C38313435   3.366   7.103   2.153 -0.3389 -0.3455  0.0659
   27MOL   C38413436   3.460   7.099   2.281 -0.6104 -0.2044 -0.7368
   27MOL   C38513437   3.594   7.029   2.257  0.1562  0.0537  0.0028
   27MOL   H38613438   3.409   7.682   1.970  0.1296  0.1680  0.0321
   27MOL   H38713439   3.357   7.615   2.121 -2.8596 -1.0936  0.3416
   27MOL   H38813440   3.120   7.632   2.050 -0.5692  0.7038 -0.4761
   27MOL   H38913441   3.059   7.374   1.929  1.5043 -0.9590 -0.8878
   27MOL   H39013442   3.080   7.410   2.097  0.9379 -2.5320  1.6271
   27MOL   H39113443   3.221   7.190   1.926 -1.7202  0.1862 -0.8748
   27MOL   H39213444   3.105   7.169   2.043  0.2793 -0.2732 -1.6415
   27MOL   H39313445   3.341   7.324   2.134 -0.9916  1.1535 -0.0954
   27MOL   H39413446   3.227   7.235   2.230 -1.0258  0.2541  0.4015
   27MOL   H39513447   3.296   7.019   2.153 -1.6255  0.7095  0.6054
   27MOL   H39613448   3.429   7.094   2.066 -0.0149 -1.0268  0.3686
   27MOL   H39713449   3.463   7.199   2.324 -0.4106 -0.5378  0.0149
   27MOL   H39813450   3.399   7.036   2.346 -2.9349  1.3297 -1.3690
   27MOL   H39913451   3.653   7.100   2.199  1.7107 -0.8851  0.4067
   27MOL   H40013452   3.642   7.006   2.352  1.3507  1.0918 -0.3412
   27MOL   H40113453   3.576   6.932   2.209 -1.4586  0.2377  0.1950
   27MOL   C40213454   3.151   7.646   1.833 -0.3887 -0.6700  0.3106
   27MOL   C40313455   3.041   7.756   1.839 -0.2807  0.3691 -0.0951
   27MOL   O40413456   2.919   7.695   1.858  0.1029  0.1822  0.4193
   27MOL   C40513457   2.827   7.736   1.955 -0.1847 -0.2152 -0.9050
   27MOL   C40613458   2.721   7.630   1.951 -0.5662  0.4090  0.2163
   27MOL   C40713459   2.613   7.652   2.050  0.4358  0.1147 -0.1908
   27MOL   C40813460   2.477   7.590   2.009  0.0584 -0.5085 -0.1797
   27MOL   C40913461   2.360   7.628   2.099  0.9322  0.5477  0.3492
   27MOL   C41013462   2.249   7.524   2.081  0.2253 -0.7280 -0.0483
   27MOL   H41113463   3.114   7.559   1.779 -1.6973 -1.1193  1.9037
   27MOL   H41213464   3.239   7.686   1.782  0.9146 -0.4009  2.7227
   27MOL   H41313465   3.051   0.053   1.917 -0.3962 -1.1725  1.4522
   27MOL   H41413466   2.787   0.053   1.922 -0.2288  0.1379  0.1472
   27MOL   H41513467   2.870   7.745   2.055 -1.3346  0.7359 -0.4975
   27MOL   H41613468   2.767   7.535   1.976 -1.3336  0.4012  1.6681
   27MOL   H41713469   2.678   7.617   1.852  1.7165  0.4723 -0.8215
   27MOL   H41813470   2.630   7.610   2.150 -0.9648  2.2506  0.9991
   27MOL   H41913471   2.597   7.759   2.064 -1.9127 -0.4715  2.1446
   27MOL   H42013472   2.459   7.616   1.905 -1.6028 -1.0693 -0.0521
   27MOL   H42113473   2.483   7.482   2.023 -0.9561 -0.8033 -1.9954
   27MOL   H42213474   2.381   7.628   2.206 -1.9999 -1.8577  0.9840
   27MOL   H42313475   2.326   7.726   2.066 -1.2177 -0.1173  0.5567
   27MOL   H42413476   2.157   7.555   2.130  0.0616  0.8846 -1.3364
   27MOL   H42513477   2.220   7.497   1.979  0.1714 -1.6052  0.1955
   27MOL   H42613478   2.290   7.433   2.124  0.9329 -0.7716 -0.7878
   27MOL   C42713479   3.044   0.048   1.700 -0.0222  0.5359  0.1845
   27MOL   C42813480   2.960   0.179   1.700 -0.6620  0.5118 -0.2568
   27MOL   O42913481   3.038   0.279   1.760 -0.1528  0.1067  0.4781
   27MOL   C43013482   2.980   0.344   1.869  0.2068  0.4976 -0.0957
   27MOL   C43113483   3.091   0.428   1.936 -0.6265 -0.2181 -0.3470
   27MOL   C43213484   3.030   0.539   2.024 -0.1567  0.0349  0.9171
   27MOL   C43313485   3.127   0.645   2.089 -0.1063 -0.3333  0.0012
   27MOL   C43413486   3.160   0.765   1.998 -0.7299  0.1493  0.3124
   27MOL   C43513487   3.047   0.869   1.977  0.2669 -0.0260  0.3432
   27MOL   H43613488   3.140   0.072   1.655  0.1897  1.9930  1.3685
   27MOL   H43713489   2.997   7.757   1.631  0.2520 -1.7111  2.1763
   27MOL   H43813490   2.868   0.160   1.756  0.1288 -0.6628  0.6714
   27MOL   H43913491   2.933   0.271   1.935 -1.1563  0.5621 -0.9730
   27MOL   H44013492   2.898   0.411   1.842 -0.5296  0.3942  1.8502
   27MOL   H44113493   3.151   0.474   1.858  0.1473 -0.2881  0.2021
   27MOL   H44213494   3.164   0.367   1.989  1.0710  2.3595  0.3364
   27MOL   H44313495   2.948   0.589   1.972  1.8104  2.0006 -0.3666
   27MOL   H44413496   2.985   0.486   2.108 -0.9234  0.0876  0.5494
   27MOL   H44513497   3.098   0.695   2.181  0.1364  0.9479 -0.5955
   27MOL   H44613498   3.220   0.610   2.133  0.2680  0.5810 -0.0338
   27MOL   H44713499   3.243   0.825   2.033  1.6928 -1.3269 -2.6716
   27MOL   H44813500   3.190   0.735   1.898  0.6139 -2.0403  1.3478
   27MOL   H44913501   3.016   0.916   2.070  2.9239  1.6413  0.4543
   27MOL   H45013502   3.085   0.949   1.914  2.4587 -1.1357  0.2147
   27MOL   H45113503   2.958   0.837   1.923 -0.3900  3.0932 -0.5270
   27MOL   C45213504   2.917   0.226   1.557 -0.4445  0.1876 -0.0397
   27MOL   C45313505   2.800   0.144   1.499  0.8067 -0.3514  0.0300
   27MOL   O45413506   2.765   0.208   1.378  0.0412  0.8983  0.0211
   27MOL   C45513507   2.837   0.160   1.271  0.3337 -0.0998 -1.0384
   27MOL   C45613508   2.817   0.254   1.152 -0.4223  0.0982  0.4439
   27MOL   C45713509   2.667   0.266   1.101  0.2102  0.0684  0.1794
   27MOL   C45813510   2.659   0.303   0.956  0.6373  0.0066  0.5355
   27MOL   C45913511   2.516   0.336   0.912 -0.3091 -0.2844  0.3392
   27MOL   C46013512   2.413   0.220   0.935  0.1736 -0.5512  1.3431
   27MOL   H46113513   2.885   0.330   1.557 -2.3084 -0.3650 -0.5305
   27MOL   H46213514   3.007   0.217   1.496 -0.4531  1.9164 -0.3299
   27MOL   H46313515   2.839   0.043   1.481 -0.7917 -1.0333  0.3412
   27MOL   H46413516   2.801   0.060   1.246 -0.5510  0.3309 -1.5183
   27MOL   H46513517   2.945   0.163   1.286 -0.2024 -0.2739  3.2824
   27MOL   H46613518   2.883   0.216   1.074 -2.7346 -1.2428 -0.9303
   27MOL   H46713519   2.872   0.343   1.180  0.1698  0.2029 -0.9809
   27MOL   H46813520   2.620   0.170   1.120 -0.7622  0.7016  1.0726
   27MOL   H46913521   2.623   0.345   1.162  2.9648  0.8233  1.2882
   27MOL   H47013522   2.722   0.387   0.927  2.1157 -0.9214  1.0176
   27MOL   H47113523   2.707   0.225   0.897  0.6481 -0.2018  0.8222
   27MOL   H47213524   2.492   0.416   0.982 -0.5470  0.0714 -0.1462
   27MOL   H47313525   2.499   0.373   0.811  0.5937  0.2202  0.3705
   27MOL   H47413526   2.433   0.135   0.870  0.2682  0.6629 -0.2510
   27MOL   H47513527   2.413   0.179   1.036  2.2957 -0.1068  1.5439
   27MOL   H47613528   2.312   0.258   0.916  0.6016 -0.5607 -1.0865
   27MOL   C47713529   2.663   0.140   1.579  0.0658 -0.4307 -0.1610
   27MOL   C47813530   2.558   0.047   1.517  0.4888  0.0169 -0.4393
   27MOL   O47913531   2.442   0.081   1.591  0.1115  0.4182 -0.2166
   27MOL   C48013532   2.328   0.034   1.529 -0.4467  0.7324  0.0942
   27MOL   C48113533   2.204   0.025   1.629 -0.4800 -0.1283 -0.0183
   27MOL   C48213534   2.149   0.168   1.663  0.3642  0.1817  0.4378
   27MOL   C48313535   2.001   0.160   1.703 -0.3876  0.3678 -0.0121
   27MOL   C48413536   1.974   0.065   1.820 -0.6892 -0.2080 -0.9254
   27MOL   C48513537   2.047   0.112   1.948  0.4374 -0.4274 -0.5232
   27MOL   H48613538   2.690   0.112   1.681 -2.6371  2.4536  1.4423
   27MOL   H48713539   2.620   0.239   1.592  0.0265 -0.6387  1.4346
   27MOL   H48813540   2.558   0.069   1.410  1.6334  0.2497 -0.3942
   27MOL   H48913541   2.343   7.713   1.488 -0.4763  0.3039  1.1081
   27MOL   H49013542   2.302   0.095   1.443 -0.2540 -0.6283 -0.9373
   27MOL   H49113543   2.233   7.757   1.723  0.3795 -0.6416 -0.5265
   27MOL   H49213544   2.132   7.737   1.580  0.6568 -1.2521 -0.2065
   27MOL   H49313545   2.198   0.219   1.747 -0.1551 -0.2798  1.0313
   27MOL   H49413546   2.151   0.228   1.573 -1.2246 -2.1338 -1.1833
   27MOL   H49513547   1.961   0.259   1.725  0.1053  0.4541  0.5136
   27MOL   H49613548   1.953   0.110   1.619  0.9758 -1.6680  0.3950
   27MOL   H49713549   1.866   0.055   1.837 -0.6576 -0.9807 -1.1750
   27MOL   H49813550   2.003   7.740   1.800  1.9037 -0.0244  1.5946
   27MOL   H49913551   1.998   0.208   1.968 -2.1352 -2.0145  1.0820
   27MOL   H50013552   2.018   0.041   2.025  0.0085  2.0312  1.6417
   27MOL   H50113553   2.155   0.127   1.952  0.1764  0.9207  4.1740
   27MOL   H50213554   2.589   7.724   1.541  1.2931  0.0251 -1.3980
   28MOL     C113555   1.713   2.791   2.211 -0.0361 -0.1666 -0.1982
   28MOL     C213556   1.845   2.867   2.212 -0.5914  0.5269 -0.6067
   28MOL     O313557   1.962   2.786   2.199  0.2575 -0.7778  0.6001
   28MOL     C413558   2.000   2.733   2.073 -0.2160  0.2080  0.3913
   28MOL     C513559   2.107   2.623   2.101  0.6269 -0.0380 -0.0176
   28MOL     C613560   2.169   2.568   1.970 -0.1302  0.0061 -0.2246
   28MOL     C713561   2.077   2.484   1.880  0.8260 -0.1045  0.7573
   28MOL     C813562   2.024   2.361   1.953  0.1061  0.5803  1.2074
   28MOL     C913563   1.978   2.243   1.857 -0.1666  0.5567  0.7229
   28MOL    H1013564   1.683   2.752   2.113 -0.2131 -2.0643  0.5932
   28MOL    H1113565   1.722   2.703   2.274  3.8101 -1.7790 -2.7478
   28MOL    H1213566   1.847   2.941   2.132  0.8739  2.1944  0.9295
   28MOL    H1313567   2.038   2.812   2.009 -2.2747  0.4941 -0.5036
   28MOL    H1413568   1.919   2.701   2.008 -1.1634 -0.4880  1.8668
   28MOL    H1513569   2.073   2.551   2.175  2.1704 -1.5036 -0.7172
   28MOL    H1613570   2.189   2.672   2.154  0.2019  1.1302 -0.4125
   28MOL    H1713571   2.201   2.645   1.900  0.8606  0.5083  0.7764
   28MOL    H1813572   2.258   2.510   1.994 -0.5144  0.0015  1.2099
   28MOL    H1913573   1.989   2.538   1.846  0.1314 -1.0402  1.0525
   28MOL    H2013574   2.131   2.445   1.793 -0.3814  0.8342 -0.4376
   28MOL    H2113575   1.942   2.387   2.021 -1.0147  3.9479 -1.2746
   28MOL    H2213576   2.097   2.321   2.023  1.8197 -0.8223 -1.3072
   28MOL    H2313577   1.925   2.154   1.891 -0.0585  0.0198 -0.4861
   28MOL    H2413578   1.908   2.282   1.783 -0.0844 -0.5268  0.0472
   28MOL    H2513579   2.062   2.195   1.806 -0.0001  0.3703  1.1734
   28MOL    H2613580   1.627   2.842   2.253 -0.5331  2.7468 -4.4714
   28MOL    C2713581   1.862   2.947   2.341 -0.1339  0.2572 -0.0993
   28MOL    C2813582   1.983   3.048   2.336 -0.6965  0.1303 -0.9214
   28MOL    O2913583   1.937   3.158   2.269 -0.0840  0.1488  0.0449
   28MOL    C3013584   2.038   3.250   2.218  0.1354  0.1588  0.4715
   28MOL    C3113585   2.068   3.213   2.072  0.1513 -0.0591  0.3174
   28MOL    C3213586   2.161   3.313   2.002  0.0296  0.5465  0.5222
   28MOL    C3313587   2.184   3.286   1.854  0.6332  0.6295  0.2960
   28MOL    C3413588   2.297   3.372   1.804  0.5180  0.1894  0.2362
   28MOL    C3513589   2.282   3.385   1.654 -0.1983  0.2292 -0.0814
   28MOL    H3613590   1.773   3.009   2.355 -1.9010 -2.3281  0.6115
   28MOL    H3713591   1.868   2.883   2.429  1.5051 -1.6722 -1.5760
   28MOL    H3813592   2.068   3.000   2.286 -0.3076 -1.7910  1.4652
   28MOL    H3913593   2.129   3.254   2.278 -0.2784  0.1023  1.1006
   28MOL    H4013594   1.987   3.345   2.230 -0.6353 -0.2668  0.5733
   28MOL    H4113595   1.973   3.214   2.018  0.5839  0.4249 -0.4360
   28MOL    H4213596   2.099   3.109   2.062 -0.7467 -0.1803 -1.2925
   28MOL    H4313597   2.131   3.418   2.010  2.4588  1.3812 -0.7974
   28MOL    H4413598   2.258   3.320   2.051  0.3860  0.6268 -0.1986
   28MOL    H4513599   2.197   3.178   1.843  0.6790  0.3005  3.0070
   28MOL    H4613600   2.089   3.294   1.803  0.7343 -1.4098 -0.2701
   28MOL    H4713601   2.297   3.468   1.854  0.4116 -0.2893  1.1661
   28MOL    H4813602   2.392   3.320   1.822  1.0996  1.6031  1.3014
   28MOL    H4913603   2.276   3.283   1.614  0.4470  0.0145  0.3578
   28MOL    H5013604   2.200   3.451   1.626  0.1040  1.3126  1.5677
   28MOL    H5113605   2.371   3.431   1.612 -0.0337 -0.5416 -0.5922
   28MOL    C5213606   2.018   3.092   2.484 -0.1068 -0.6000  0.8288
   28MOL    C5313607   2.091   2.994   2.580 -0.0782 -0.3371 -0.2429
   28MOL    O5413608   2.230   2.979   2.533  0.0100  0.6807  0.0158
   28MOL    C5513609   2.249   2.843   2.500  0.0316 -0.4070  0.1777
   28MOL    C5613610   2.396   2.822   2.468 -0.0622 -0.2223  0.5174
   28MOL    C5713611   2.443   2.908   2.343  1.0710  0.4967  0.0136
   28MOL    C5813612   2.382   2.860   2.214 -0.6066  0.6845 -0.3049
   28MOL    C5913613   2.444   2.913   2.077 -0.5331 -0.2567 -0.1048
   28MOL    C6013614   2.448   3.063   2.068  0.7903  0.8653  0.0842
   28MOL    H6113615   1.931   3.139   2.530  0.9786  0.8966  1.3762
   28MOL    H6213616   2.083   3.179   2.482  0.6133 -1.1594 -0.6152
   28MOL    H6313617   2.035   2.901   2.586  2.3271 -1.8904 -1.0963
   28MOL    H6413618   2.189   2.810   2.415  0.2099 -0.5417  0.1054
   28MOL    H6513619   2.228   2.783   2.589 -1.7916  1.9037  1.3528
   28MOL    H6613620   2.416   2.716   2.456  0.5970 -0.0360 -0.0721
   28MOL    H6713621   2.443   2.855   2.561 -1.0726 -0.4169  1.1051
   28MOL    H6813622   2.414   3.011   2.363 -2.6416  0.3183 -3.8482
   28MOL    H6913623   2.552   2.909   2.333  1.0161  2.1298 -0.3986
   28MOL    H7013624   2.392   2.751   2.211  4.3512  0.9486  1.3452
   28MOL    H7113625   2.274   2.874   2.212 -0.6692  0.2048 -0.3276
   28MOL    H7213626   2.543   2.871   2.067 -1.2082 -1.8278 -0.2685
   28MOL    H7313627   2.378   2.873   2.000  0.7038 -3.7600  0.5771
   28MOL    H7413628   2.343   3.095   2.074  0.3137 -0.7953  0.7986
   28MOL    H7513629   2.493   3.112   2.155  0.8005  0.7444  0.1464
   28MOL    H7613630   2.486   3.100   1.973 -0.1923  1.1093 -0.2282
   28MOL    C7713631   2.103   3.055   2.722  0.0771 -0.9824  0.4337
   28MOL    C7813632   2.147   2.959   2.830  1.0651  0.4889 -0.0078
   28MOL    O7913633   2.087   2.998   2.956 -0.4599 -0.0739  0.0576
   28MOL    C8013634   1.975   2.914   2.987  0.1534  0.1735 -0.5144
   28MOL    C8113635   1.925   2.954   3.130  0.2137  0.1303  0.3404
   28MOL    C8213636   1.808   2.861   3.172 -0.0405  0.4038  0.3577
   28MOL    C8313637   1.768   2.884   3.320 -0.9924 -0.2684  0.0833
   28MOL    C8413638   1.630   2.831   3.363  0.3336  0.2220  0.1864
   28MOL    C8513639   1.517   2.877   3.270  0.4696 -0.1038 -0.1410
   28MOL    H8613640   2.002   3.092   2.743  0.0122 -1.1298  0.3799
   28MOL    H8713641   2.171   3.140   2.714  1.0037 -1.6492  1.2451
   28MOL    H8813642   2.112   2.861   2.798 -2.5135  1.3865  0.8839
   28MOL    H8913643   2.002   2.809   2.991  1.3139  0.5610  3.4894
   28MOL    H9013644   1.902   2.939   2.910 -0.0748  0.8053 -0.1013
   28MOL    H9113645   1.886   3.055   3.137 -0.2839 -0.0298 -0.0768
   28MOL    H9213646   2.008   2.957   3.201  1.8736  2.1771 -1.6008
   28MOL    H9313647   1.727   2.874   3.101 -0.2682 -1.2337  0.2827
   28MOL    H9413648   1.846   2.759   3.158  0.4865  0.7871 -1.1485
   28MOL    H9513649   1.832   2.840   3.397 -0.0189  2.4697  0.8843
   28MOL    H9613650   1.759   2.989   3.346 -1.4858 -0.6944  1.7082
   28MOL    H9713651   1.632   2.722   3.366 -1.9985  0.0456 -2.9669
   28MOL    H9813652   1.607   2.870   3.462 -0.8002 -1.3378  0.5557
   28MOL    H9913653   1.524   2.854   3.164  0.3416  2.6460 -0.8025
   28MOL   H10013654   1.418   2.835   3.285  0.0786  0.6104 -0.6716
   28MOL   H10113655   1.507   2.986   3.276  0.2845 -0.2242  2.6785
   28MOL   C10213656   2.292   2.969   2.861  0.1462 -0.2478  0.8249
   28MOL   C10313657   2.342   2.858   2.960  0.5699 -0.4715 -0.1796
   28MOL   O10413658   2.477   2.835   2.921 -0.5906  0.1296 -0.4567
   28MOL   C10513659   2.492   2.732   2.825  0.3588  0.1412 -0.3569
   28MOL   C10613660   2.622   2.743   2.757 -0.9883  0.2439 -0.5904
   28MOL   C10713661   2.750   2.747   2.850  0.4977  0.3244  0.5861
   28MOL   C10813662   2.877   2.743   2.767  0.0911  0.2389  0.0542
   28MOL   C10913663   2.999   2.761   2.856  0.7116 -0.1672 -0.2378
   28MOL   C11013664   3.129   2.751   2.776  0.4746  0.2802  0.8097
   28MOL   H11113665   2.344   2.964   2.765 -0.1527  2.1058  0.5048
   28MOL   H11213666   2.321   3.071   2.888 -0.3001  0.1325 -0.1055
   28MOL   H11313667   2.286   2.765   2.950  0.2747 -0.5919  2.2453
   28MOL   H11413668   2.415   2.744   2.749  0.9888 -0.3949 -1.0948
   28MOL   H11513669   2.482   2.638   2.879 -2.5888 -0.0307 -1.1382
   28MOL   H11613670   2.622   2.842   2.712 -0.0381 -0.0159 -1.1695
   28MOL   H11713671   2.624   2.675   2.672  0.0619  1.1269 -1.2871
   28MOL   H11813672   2.738   2.839   2.907 -0.4777  0.5798 -0.0085
   28MOL   H11913673   2.754   2.668   2.924  0.1330  1.1945  1.5455
   28MOL   H12013674   2.883   2.648   2.714 -1.4641  0.4909 -0.5812
   28MOL   H12113675   2.873   2.826   2.696 -1.1082 -0.1719 -0.3670
   28MOL   H12213676   2.993   2.859   2.903  0.2555  0.3085 -1.2698
   28MOL   H12313677   2.999   2.687   2.936  0.6263  0.5633  0.4456
   28MOL   H12413678   3.205   2.703   2.837 -0.1574  0.6643  1.9170
   28MOL   H12513679   3.108   2.681   2.694  2.0920  1.6923 -0.8508
   28MOL   H12613680   3.172   2.844   2.739  0.6988  0.2559  1.0098
   28MOL   C12713681   2.336   2.916   3.101  0.2200  0.6625  0.1951
   28MOL   C12813682   2.374   2.821   3.217  0.1136 -0.0195 -0.1057
   28MOL   O12913683   2.257   2.761   3.266  0.0142 -0.2532 -0.1223
   28MOL   C13013684   2.278   2.619   3.293 -0.3483 -0.8311  0.3303
   28MOL   C13113685   2.147   2.550   3.343  0.6109 -0.8565  0.7771
   28MOL   C13213686   2.136   2.590   3.486  0.0077  0.1138  0.5736
   28MOL   C13313687   2.025   2.513   3.562 -0.2576  0.7359 -0.4659
   28MOL   C13413688   2.012   2.539   3.717 -0.4290 -1.5581  0.0082
   28MOL   C13513689   1.918   2.427   3.774 -0.3160  0.4974 -0.0755
   28MOL   H13613690   2.416   2.987   3.082  1.5897 -0.8759  0.1828
   28MOL   H13713691   2.243   2.969   3.124 -1.3177 -2.8367  2.4198
   28MOL   H13813692   2.443   2.746   3.178 -1.2768 -0.4072 -1.8853
   28MOL   H13913693   2.354   2.608   3.370  0.6312 -0.8650 -0.6329
   28MOL   H14013694   2.320   2.576   3.202 -0.0795  2.8469 -1.3728
   28MOL   H14113695   2.147   2.441   3.336  3.1622 -0.7830 -1.1206
   28MOL   H14213696   2.066   2.581   3.278  2.3533 -2.4555 -2.2748
   28MOL   H14313697   2.230   2.567   3.536  0.3308  1.1266  0.4372
   28MOL   H14413698   2.118   2.697   3.491  1.1575  0.2518  2.1447
   28MOL   H14513699   1.929   2.522   3.510 -0.2196  0.6139 -0.5558
   28MOL   H14613700   2.057   2.411   3.545 -0.4856  0.5316  0.3072
   28MOL   H14713701   2.109   2.527   3.766 -0.4106 -0.9862  0.1168
   28MOL   H14813702   1.981   2.638   3.750 -0.0358 -2.0191  1.8270
   28MOL   H14913703   1.963   2.331   3.748 -0.6278 -0.5590  3.1796
   28MOL   H15013704   1.925   2.440   3.882  0.7320 -3.1820  0.3740
   28MOL   H15113705   1.815   2.424   3.739 -0.5673 -1.0825  0.7548
   28MOL   C15213706   2.432   2.904   3.336  0.5214  0.1087 -0.6615
   28MOL   C15313707   2.542   3.014   3.319  0.3049 -0.2146 -0.4931
   28MOL   O15413708   2.553   3.074   3.451  0.6429  0.2165  0.0947
   28MOL   C15513709   2.450   3.176   3.483 -0.2411 -0.0660  0.1997
   28MOL   C15613710   2.519   3.318   3.452 -0.7980  0.2287 -0.5002
   28MOL   C15713711   2.439   3.444   3.491  0.1086  0.4328 -0.0529
   28MOL   C15813712   2.507   3.574   3.429  0.2216  0.0063  0.1202
   28MOL   C15913713   2.463   3.711   3.494 -0.7092 -0.1854 -0.0269
   28MOL   C16013714   2.312   3.741   3.497  0.2740 -0.1476 -0.0016
   28MOL   H16113715   2.353   2.963   3.383  2.0036  0.7773  1.0761
   28MOL   H16213716   2.459   2.843   3.421  1.7747 -0.3291 -1.3508
   28MOL   H16313717   2.512   3.099   3.258  0.7744 -0.3400 -0.9002
   28MOL   H16413718   2.411   3.176   3.585 -0.1243  1.1926  0.2487
   28MOL   H16513719   2.354   3.166   3.432 -0.2128  0.6683  0.0004
   28MOL   H16613720   2.547   3.331   3.348  2.8967  1.3812  0.5383
   28MOL   H16713721   2.619   3.325   3.495 -0.7822 -0.2699 -0.4533
   28MOL   H16813722   2.333   3.447   3.463 -0.3343  0.3315  1.5916
   28MOL   H16913723   2.448   3.449   3.599  0.8453  1.0166 -0.1342
   28MOL   H17013724   2.615   3.583   3.441  0.0962 -0.5280  1.8988
   28MOL   H17113725   2.486   3.585   3.323  1.0584  0.4462 -0.0038
   28MOL   H17213726   2.511   3.708   3.592 -1.1082  0.1339  0.1815
   28MOL   H17313727   2.506   3.788   3.432 -1.8486 -0.2872 -0.9640
   28MOL   H17413728   2.268   3.750   3.398  0.7005  3.3901  0.0436
   28MOL   H17513729   2.262   3.662   3.554  0.0303  0.3729  0.5134
   28MOL   H17613730   2.289   3.838   3.543  0.6264  1.0387 -2.2660
   28MOL   C17713731   2.676   2.965   3.277 -0.0507 -0.5040 -0.5294
   28MOL   C17813732   2.761   3.070   3.201 -0.4272  0.6520 -0.6954
   28MOL   O17913733   2.892   3.008   3.175  0.2800 -0.0157 -0.4249
   28MOL   C18013734   2.996   3.058   3.274 -0.2012  0.7253  0.2574
   28MOL   C18113735   3.126   3.077   3.197 -0.6508 -0.1305  0.5372
   28MOL   C18213736   3.236   3.097   3.295 -0.0403 -0.3294  0.3054
   28MOL   C18313737   3.374   3.122   3.236  0.4506 -0.5220  0.0720
   28MOL   C18413738   3.467   3.204   3.330  0.7200  0.9768  0.2333
   28MOL   C18513739   3.595   3.250   3.265  0.0584  0.6827 -0.5313
   28MOL   H18613740   2.728   2.923   3.363  0.2069  0.1294 -0.3788
   28MOL   H18713741   2.664   2.876   3.214 -2.0320 -1.7157  1.4794
   28MOL   H18813742   2.783   3.153   3.268 -0.5868  0.3067 -0.2082
   28MOL   H18913743   3.006   2.985   3.354 -1.0891 -0.4148 -0.6517
   28MOL   H19013744   2.976   3.162   3.301 -1.3149  1.3133 -2.6484
   28MOL   H19113745   3.135   3.166   3.136  2.4806 -0.7000  0.0846
   28MOL   H19213746   3.136   2.994   3.127 -2.6340  0.8365 -0.9196
   28MOL   H19313747   3.210   3.183   3.356  1.7819  0.2606  0.2878
   28MOL   H19413748   3.238   3.004   3.353 -0.3444  0.5953  1.8319
   28MOL   H19513749   3.407   3.023   3.204 -0.4975 -1.4085  1.7655
   28MOL   H19613750   3.366   3.189   3.151 -1.0075 -1.5453 -0.6277
   28MOL   H19713751   3.423   3.297   3.366  0.8989  1.3297 -0.4642
   28MOL   H19813752   3.495   3.139   3.413 -0.9922 -0.9579 -0.6725
   28MOL   H19913753   3.660   3.284   3.344  1.6460  1.8609 -2.3068
   28MOL   H20013754   3.645   3.173   3.206  0.8478  0.6287  0.2133
   28MOL   H20113755   3.576   3.329   3.192 -2.3021  0.2776 -0.4063
   28MOL   C20213756   2.700   3.115   3.072 -0.1048 -0.3051 -0.4434
   28MOL   C20313757   2.782   3.228   3.005 -0.1438  0.1386  0.3966
   28MOL   O20413758   2.749   3.335   3.088 -0.3638  0.0262 -0.0972
   28MOL   C20513759   2.845   3.437   3.082 -0.3333 -0.0395  0.6754
   28MOL   C20613760   2.853   3.538   3.201 -0.5518 -0.1444 -0.2014
   28MOL   C20713761   2.883   3.480   3.338  0.3742 -0.3222  0.0439
   28MOL   C20813762   3.035   3.452   3.368  0.1049 -0.3023 -0.8615
   28MOL   C20913763   3.041   3.413   3.519 -0.2134  0.0166 -0.6145
   28MOL   C21013764   3.185   3.421   3.579 -0.0771 -0.5675  0.2649
   28MOL   H21113765   2.707   3.027   3.008 -0.2304 -1.7958  1.5795
   28MOL   H21213766   2.592   3.135   3.073  0.1307  0.9844  0.5590
   28MOL   H21313767   2.885   3.193   2.994  0.0151  0.9135 -0.7042
   28MOL   H21413768   2.841   3.477   2.981 -0.5415 -0.6117  0.4536
   28MOL   H21513769   2.941   3.384   3.088 -0.2675  0.1863  1.7376
   28MOL   H21613770   2.758   3.592   3.203 -1.7309 -2.2348  1.8320
   28MOL   H21713771   2.924   3.616   3.173 -3.2362  2.8991  1.1313
   28MOL   H21813772   2.845   3.555   3.408  1.5374  1.1056 -0.8264
   28MOL   H21913773   2.816   3.396   3.357 -1.2082  0.5787 -1.3865
   28MOL   H22013774   3.077   3.366   3.316  1.8802  0.5463 -0.8736
   28MOL   H22113775   3.103   3.535   3.350 -0.4016  0.4549  0.6451
   28MOL   H22213776   2.984   3.478   3.586  1.2186 -1.5452  2.2311
   28MOL   H22313777   2.995   3.315   3.523  2.4569 -1.2336  0.7352
   28MOL   H22413778   3.180   3.383   3.681 -0.2655 -1.8171 -0.2052
   28MOL   H22513779   3.255   3.366   3.516  0.1759 -0.3488  0.3497
   28MOL   H22613780   3.225   3.522   3.568  1.9171 -1.1286  1.9929
   28MOL   C22713781   2.722   3.259   2.864 -0.2461 -0.9235  0.5113
   28MOL   C22813782   2.751   3.152   2.759 -0.1806  1.0370  0.4316
   28MOL   O22913783   2.696   3.196   2.634  0.0015 -0.2604 -0.4050
   28MOL   C23013784   2.567   3.141   2.608  0.2153  0.4496 -0.0500
   28MOL   C23113785   2.496   3.220   2.505 -0.0703 -0.0462 -0.6168
   28MOL   C23213786   2.458   3.358   2.565 -0.7729  0.1090 -0.8404
   28MOL   C23313787   2.355   3.433   2.478 -0.0443  0.0234 -0.1432
   28MOL   C23413788   2.404   3.447   2.333 -0.2324  0.3994 -0.5957
   28MOL   C23513789   2.297   3.521   2.249  0.2286  0.5061  0.6177
   28MOL   H23613790   2.613   3.257   2.872 -0.5195 -1.6054 -2.9089
   28MOL   H23713791   2.738   3.356   2.818 -0.2052 -1.0567  0.2468
   28MOL   H23813792   2.699   3.061   2.791  1.1404  1.3660  3.6427
   28MOL   H23913793   2.501   3.154   2.694  2.0274  3.7365  0.9280
   28MOL   H24013794   2.574   3.035   2.585  0.5887  0.3548  0.4692
   28MOL   H24113795   2.407   3.163   2.479  0.6037 -1.4251  0.0667
   28MOL   H24213796   2.555   3.227   2.413 -0.5478  0.0099 -0.9246
   28MOL   H24313797   2.433   3.362   2.671  2.1118 -0.1721 -0.1016
   28MOL   H24413798   2.552   3.413   2.573 -0.0322 -1.2643  0.0619
   28MOL   H24513799   2.258   3.382   2.475 -0.3016  0.4275  1.0026
   28MOL   H24613800   2.341   3.532   2.521 -1.6470 -0.4157  0.3830
   28MOL   H24713801   2.495   3.506   2.331  0.1705 -0.2016  0.0620
   28MOL   H24813802   2.416   3.347   2.289 -1.4188  0.2327 -0.5596
   28MOL   H24913803   2.281   3.623   2.281 -3.8246  0.0603  0.2624
   28MOL   H25013804   2.311   3.513   2.141 -2.8092 -1.1443  0.2651
   28MOL   H25113805   2.197   3.478   2.254  1.3259 -2.4104 -1.2241
   28MOL   C25213806   2.895   3.126   2.726 -0.4647  0.6734 -0.1490
   28MOL   C25313807   2.989   3.235   2.682 -0.3543 -0.1147  0.4621
   28MOL   O25413808   3.105   3.176   2.613  0.2321 -0.1573 -0.3216
   28MOL   C25513809   3.112   3.176   2.470 -0.4262  0.4573  0.0629
   28MOL   C25613810   3.254   3.124   2.429 -0.2856  0.0458 -1.1818
   28MOL   C25713811   3.283   2.990   2.510  0.7029 -0.7731 -0.0751
   28MOL   C25813812   3.412   2.928   2.463  0.5029 -0.9050  0.0063
   28MOL   C25913813   3.437   2.791   2.534 -0.0105  0.5992  0.3207
   28MOL   C26013814   3.546   2.712   2.474 -0.0066  0.1530  0.4606
   28MOL   H26113815   2.938   3.073   2.812 -1.2197 -1.7182 -1.2021
   28MOL   H26213816   2.904   3.059   2.641  0.7322  0.2325  0.3057
   28MOL   H26313817   2.935   3.309   2.624 -0.2093 -0.3209  0.0584
   28MOL   H26413818   3.090   3.275   2.431  0.0299  0.9485  1.0187
   28MOL   H26513819   3.043   3.110   2.417  1.0694  0.2163 -1.6530
   28MOL   H26613820   3.333   3.196   2.452 -1.5336  1.5811 -1.6333
   28MOL   H26713821   3.261   3.102   2.323  0.2990  1.7811 -1.5192
   28MOL   H26813822   3.285   3.019   2.615 -0.1320  0.8704 -0.5066
   28MOL   H26913823   3.199   2.924   2.488 -0.0916  0.1705  0.1254
   28MOL   H27013824   3.400   2.927   2.355  0.4275  1.9039 -0.0531
   28MOL   H27113825   3.498   2.995   2.472  0.9790 -1.6081  0.6594
   28MOL   H27213826   3.453   2.798   2.642  0.4951 -1.3558  0.3860
   28MOL   H27313827   3.344   2.736   2.524 -0.1779  1.2977 -2.1981
   28MOL   H27413828   3.544   2.610   2.512  0.3807 -0.9426 -2.3117
   28MOL   H27513829   3.527   2.705   2.367 -1.2670 -0.9439  0.7481
   28MOL   H27613830   3.645   2.751   2.496  1.1138 -2.1146 -0.4069
   28MOL   C27713831   3.052   3.316   2.789  0.2187 -0.4056  0.1517
   28MOL   C27813832   3.123   3.445   2.732 -0.5532 -0.1965 -0.4943
   28MOL   O27913833   3.014   3.528   2.690  0.4467 -0.8258  0.7009
   28MOL   C28013834   3.022   3.598   2.557  0.1802  0.0616 -0.6405
   28MOL   C28113835   2.908   3.700   2.547  0.5661 -0.2466 -0.1898
   28MOL   C28213836   2.775   3.635   2.534 -0.4059  0.6617 -0.8219
   28MOL   C28313837   2.653   3.730   2.541 -0.3046  0.4964 -0.4095
   28MOL   C28413838   2.625   3.789   2.404 -0.3980 -0.3952 -0.1130
   28MOL   C28513839   2.512   3.892   2.405 -0.2132  0.4261 -0.7107
   28MOL   H28613840   2.965   3.355   2.842  0.0570  1.7362 -1.5650
   28MOL   H28713841   3.124   3.255   2.844 -0.9993 -1.8013  0.2309
   28MOL   H28813842   3.192   3.433   2.649 -2.0709  2.1910 -2.1644
   28MOL   H28913843   3.018   3.535   2.468  2.0783 -1.5282  0.3385
   28MOL   H29013844   3.120   3.647   2.553 -0.1566  1.0706  2.1611
   28MOL   H29113845   2.913   3.765   2.460 -0.5566 -0.8712 -0.7413
   28MOL   H29213846   2.923   3.774   2.626  0.5480  0.6663 -1.0202
   28MOL   H29313847   2.765   3.568   2.449 -0.1945 -0.4958  0.0444
   28MOL   H29413848   2.775   3.557   2.611  1.0866  1.0202 -0.4351
   28MOL   H29513849   2.577   3.662   2.580  2.4102 -1.1543  2.2837
   28MOL   H29613850   2.664   3.809   2.615  0.5680  0.4950 -0.5339
   28MOL   H29713851   2.717   3.832   2.364 -0.9243 -0.1292 -1.0630
   28MOL   H29813852   2.590   3.706   2.343 -2.3329 -0.3916  0.9843
   28MOL   H29913853   2.411   3.864   2.436  0.1574  1.3792  1.4107
   28MOL   H30013854   2.549   3.985   2.447  3.1491 -0.9793 -0.3816
   28MOL   H30113855   2.488   3.909   2.300 -4.0486 -0.8776 -0.1437
   28MOL   C30213856   3.198   3.519   2.843 -0.2513 -0.3316 -0.1982
   28MOL   C30313857   3.337   3.458   2.890  0.5261 -0.1461 -0.0778
   28MOL   O30413858   3.386   3.525   3.004 -0.2664 -0.3123  0.0853
   28MOL   C30513859   3.317   3.514   3.126 -0.1906  0.6574 -0.5689
   28MOL   C30613860   3.405   3.578   3.230 -0.5225  0.0240 -0.0518
   28MOL   C30713861   3.408   3.724   3.226 -0.1013  0.3921  0.5623
   28MOL   C30813862   3.282   3.787   3.279 -0.4030 -0.8006 -0.2684
   28MOL   C30913863   3.288   3.940   3.307 -0.3624 -0.3448  1.2929
   28MOL   C31013864   3.372   3.978   3.429  0.2734  0.0924 -0.6234
   28MOL   H31113865   3.232   3.613   2.801 -0.3574  0.4101  1.3263
   28MOL   H31213866   3.140   3.538   2.933  3.0209  0.9659  1.7130
   28MOL   H31313867   3.320   3.352   2.911 -1.0810 -0.3087 -2.0055
   28MOL   H31413868   3.316   3.406   3.142 -0.5816  0.8254  0.5984
   28MOL   H31513869   3.215   3.553   3.122 -0.1976  0.5013 -2.7460
   28MOL   H31613870   3.509   3.544   3.221 -0.2509  1.2994 -1.9556
   28MOL   H31713871   3.368   3.541   3.326 -2.1364 -0.9569 -1.0316
   28MOL   H31813872   3.486   3.751   3.296  1.2102  1.6703 -1.3424
   28MOL   H31913873   3.443   3.761   3.129  0.2447  2.0250  1.2960
   28MOL   H32013874   3.198   3.764   3.213  0.1351  0.4196 -1.4012
   28MOL   H32113875   3.263   3.743   3.377 -0.5587  1.5586  0.7926
   28MOL   H32213876   3.332   3.998   3.225 -2.6483  0.7010  0.7616
   28MOL   H32313877   3.188   3.978   3.329 -0.4626  0.8742 -1.1010
   28MOL   H32413878   3.474   3.940   3.429  1.3674  2.8559  0.0361
   28MOL   H32513879   3.384   4.086   3.444 -0.1400 -0.0409  0.8144
   28MOL   H32613880   3.315   3.951   3.518  1.4543 -1.9409 -0.4650
   28MOL   C32713881   3.447   3.477   2.779 -0.9030 -0.2471 -0.1422
   28MOL   C32813882   3.552   3.364   2.774  0.0118 -0.7772  0.3881
   28MOL   O32913883   3.616   3.384   2.645 -0.2597 -0.7747  0.5272
   28MOL   C33013884   3.616   3.273   2.561 -0.0795 -0.0994  0.5381
   28MOL   C33113885   3.724   3.287   2.460 -0.4733 -0.6314  0.0559
   28MOL   C33213886   3.743   3.154   2.382  0.2228 -0.1839  0.5945
   28MOL   C33313887   3.848   3.160   2.272  0.4594 -0.9499  0.0386
   28MOL   C33413888   3.852   3.035   2.186 -0.2593  0.1239  0.0037
   28MOL   C33513889   3.726   3.011   2.099 -0.2009  0.0994 -0.0212
   28MOL   H33613890   3.501   3.570   2.798  0.7860 -1.5836  1.7316
   28MOL   H33713891   3.396   3.493   2.684 -1.5736  1.0924  0.4246
   28MOL   H33813892   3.485   3.280   2.759  0.0436 -0.1038 -4.3191
   28MOL   H33913893   3.521   3.263   2.508  0.2133  0.2489 -0.0621
   28MOL   H34013894   3.630   3.178   2.611 -0.9383  0.4136  1.7968
   28MOL   H34113895   3.811   3.326   2.512 -1.0827 -0.3666  0.8786
   28MOL   H34213896   3.697   3.366   2.389  2.2218 -0.5363 -0.9349
   28MOL   H34313897   3.768   3.083   2.460 -0.8638  0.4164  1.5083
   28MOL   H34413898   3.643   3.137   2.342  0.7238 -0.7415 -0.4542
   28MOL   H34513899   3.838   3.247   2.207 -0.9723 -1.1891 -0.0640
   28MOL   H34613900   3.947   3.164   2.318  1.0000 -1.0731 -1.0895
   28MOL   H34713901   3.944   3.030   2.129 -0.8632 -0.1512 -0.9649
   28MOL   H34813902   3.863   2.961   2.266 -2.3184 -1.2759 -0.9680
   28MOL   H34913903   3.737   2.910   2.059  0.9411  0.6223 -1.0314
   28MOL   H35013904   3.644   2.984   2.166  0.6538 -1.7304  0.3225
   28MOL   H35113905   3.698   3.083   2.024 -0.7640 -1.4865 -1.3635
   28MOL   C35213906   3.644   3.358   2.896 -0.7759 -0.4251 -0.4924
   28MOL   C35313907   3.741   3.236   2.884  0.2681  0.5271  0.0515
   28MOL   O35413908   3.656   3.132   2.909  0.1928  0.7550 -0.1644
   28MOL   C35513909   3.698   3.002   2.872  0.4147 -0.1561  0.3959
   28MOL   C35613910   3.587   2.897   2.905  0.4274 -0.3627  0.5591
   28MOL   C35713911   3.633   2.756   2.854 -0.6111 -0.9991 -0.7887
   28MOL   C35813912   3.540   2.640   2.894  0.2370  0.7028  1.2354
   28MOL   C35913913   3.585   2.503   2.847 -1.0571 -0.0727 -0.0467
   28MOL   C36013914   3.481   2.406   2.902  0.0831  0.5628  0.0199
   28MOL   H36113915   3.698   3.453   2.903  1.6928 -1.7772 -0.3833
   28MOL   H36213916   3.577   3.346   2.981  0.1501 -1.3640  0.1205
   28MOL   H36313917   3.788   3.224   2.786 -1.2420  0.8918 -0.7338
   28MOL   H36413918   3.793   2.975   2.916 -0.5364 -1.4821  1.6736
   28MOL   H36513919   3.724   3.013   2.766  0.0172 -1.1236  0.1927
   28MOL   H36613920   3.494   2.936   2.863  2.8155  2.2339 -2.6540
   28MOL   H36713921   3.592   2.905   3.014 -2.0960  0.1384  0.6683
   28MOL   H36813922   3.652   2.746   2.747  0.0951 -0.9690 -0.6681
   28MOL   H36913923   3.725   2.729   2.906 -1.7040  0.1111  1.8137
   28MOL   H37013924   3.533   2.628   3.003  1.3808  0.6032  1.2986
   28MOL   H37113925   3.441   2.659   2.852  1.0404  1.4744 -0.3355
   28MOL   H37213926   3.606   2.493   2.741  0.3673 -0.7553  0.2967
   28MOL   H37313927   3.682   2.492   2.895 -1.1826 -1.7726 -0.1770
   28MOL   H37413928   3.524   2.339   2.977 -0.4320  0.9309  0.6406
   28MOL   H37513929   3.396   2.453   2.951  0.7793  0.6235  1.1943
   28MOL   H37613930   3.438   2.342   2.825  0.8046  0.3437 -0.2042
   28MOL   C37713931   3.855   3.248   2.990 -0.3480  0.7199  0.9047
   28MOL   C37813932   3.961   3.365   2.955  0.0948 -0.2884  0.1401
   28MOL   O37913933   4.022   3.331   2.833  0.5260 -0.1229  0.0430
   28MOL   C38013934   4.101   3.427   2.773  0.0961 -0.5905 -0.1918
   28MOL   C38113935   4.091   3.425   2.619 -0.8242 -0.0638 -0.2645
   28MOL   C38213936   4.209   3.499   2.543  0.1124 -0.2617 -0.5013
   28MOL   C38313937   4.222   3.452   2.401 -0.0329 -0.7860  0.1565
   28MOL   C38413938   4.250   3.300   2.395  0.3564 -0.0198  0.2159
   28MOL   C38513939   4.320   3.265   2.266 -0.4467  0.3531 -0.2061
   28MOL   H38613940   3.820   3.266   3.091 -1.5848 -2.7409  1.1753
   28MOL   H38713941   3.908   3.155   3.013  1.7527  1.5994 -0.2122
   28MOL   H38813942   3.906   3.456   2.930 -0.3303 -0.0895  1.7417
   28MOL   H38913943   4.206   3.413   2.796 -0.4769 -0.7421  2.4335
   28MOL   H39013944   4.089   3.528   2.810  0.9374 -0.5444 -0.0462
   28MOL   H39113945   4.003   3.480   2.585 -1.5225 -0.2154  1.2641
   28MOL   H39213946   4.073   3.323   2.585 -1.0937 -0.9325  2.4117
   28MOL   H39313947   4.185   3.605   2.552 -0.6774 -0.4225 -0.6853
   28MOL   H39413948   4.300   3.485   2.602  1.0240  0.5516 -1.6964
   28MOL   H39513949   4.132   3.467   2.341 -0.1538 -1.5045  0.1464
   28MOL   H39613950   4.295   3.520   2.358  0.1513 -0.4733  0.9708
   28MOL   H39713951   4.300   3.273   2.488 -0.5465  0.3624  0.8280
   28MOL   H39813952   4.163   3.234   2.400  0.3332  0.0479  0.8254
   28MOL   H39913953   4.336   3.157   2.257 -1.4130  0.1283  0.6121
   28MOL   H40013954   4.256   3.294   2.183 -0.1227 -1.8558 -1.2554
   28MOL   H40113955   4.414   3.318   2.252 -1.1219  1.4812 -0.4980
   28MOL   C40213956   4.064   3.388   3.066  0.4184  0.8560  0.3821
   28MOL   C40313957   4.013   3.458   3.195  0.0971 -0.4727  0.5438
   28MOL   O40413958   3.946   3.572   3.153 -0.0553  0.0890 -0.2354
   28MOL   C40513959   3.805   3.584   3.169 -0.4805  0.2283  0.5218
   28MOL   C40613960   3.747   3.702   3.077  0.5217 -0.6778  0.2873
   28MOL   C40713961   3.767   3.841   3.145 -0.4355 -0.2717  0.8616
   28MOL   C40813962   3.686   3.949   3.070 -0.2739  0.0034 -0.2842
   28MOL   C40913963   3.735   4.097   3.090 -0.0074 -0.0140 -0.0685
   28MOL   C41013964   3.641   4.189   3.010 -0.4118 -0.1790  0.1768
   28MOL   H41113965   4.143   3.446   3.017 -1.4929  2.3281 -1.0324
   28MOL   H41213966   4.100   3.289   3.094 -1.3371  0.2992  0.7394
   28MOL   H41313967   3.938   3.398   3.245  0.7918 -1.9219 -0.1177
   28MOL   H41413968   3.774   3.597   3.272 -3.2531 -1.5406 -0.0069
   28MOL   H41513969   3.770   3.486   3.137  1.5875 -0.3946  0.0673
   28MOL   H41613970   3.640   3.696   3.057  0.6044 -2.4250  0.3031
   28MOL   H41713971   3.787   3.688   2.977  0.0604 -0.5914  0.0906
   28MOL   H41813972   3.763   3.848   3.253 -1.1599 -0.6332  0.8594
   28MOL   H41913973   3.868   3.877   3.124 -1.2837  0.1885 -2.8535
   28MOL   H42013974   3.684   3.918   2.966  0.1479 -0.6865 -0.0923
   28MOL   H42113975   3.590   3.944   3.122  0.7697 -0.6279  1.6381
   28MOL   H42213976   3.737   4.124   3.195  1.2709 -1.7976  0.3985
   28MOL   H42313977   3.829   4.125   3.043  0.6306 -1.8313  0.0904
   28MOL   H42413978   3.667   4.293   3.028 -0.5588  0.1951 -1.6937
   28MOL   H42513979   3.644   4.172   2.903 -1.9370 -1.0490  0.2610
   28MOL   H42613980   3.537   4.183   3.042 -0.3720  0.4537  0.4277
   28MOL   C42713981   4.124   3.488   3.289 -0.0400 -0.7403  0.0563
   28MOL   C42813982   4.079   3.522   3.433  0.3224  0.3855 -0.0466
   28MOL   O42913983   4.046   3.394   3.489  0.2947  0.5300  0.4456
   28MOL   C43013984   3.917   3.387   3.556  0.5603 -0.2288  0.1215
   28MOL   C43113985   3.907   3.246   3.616  0.6054 -0.2851 -0.2350
   28MOL   C43213986   4.017   3.214   3.719 -0.1585 -0.3125 -0.1253
   28MOL   C43313987   4.003   3.064   3.760 -0.6508  0.1588  0.0792
   28MOL   C43413988   4.108   3.005   3.862  0.4561  0.4607 -0.1652
   28MOL   C43513989   4.090   2.856   3.888  0.2519  0.3639  0.0406
   28MOL   H43613990   4.195   3.406   3.294  0.9076  0.0973  0.6367
   28MOL   H43713991   4.178   3.571   3.243 -1.0185  0.0359  0.2806
   28MOL   H43813992   3.987   3.579   3.442 -0.3129 -0.0821 -3.0301
   28MOL   H43913993   3.829   3.403   3.494  0.6938  1.3598  0.3172
   28MOL   H44013994   3.912   3.457   3.640 -0.6138 -0.7063  0.4524
   28MOL   H44113995   3.912   3.178   3.532  1.9541  0.6451 -0.9229
   28MOL   H44213996   3.815   3.238   3.674  0.8031 -1.2458 -0.0511
   28MOL   H44313997   4.116   3.228   3.675 -0.2720 -0.9324 -0.5855
   28MOL   H44413998   4.015   3.282   3.804 -2.0413  0.2968 -0.6213
   28MOL   H44513999   3.907   3.052   3.811 -1.2692  2.9704 -0.3473
   28MOL   H44614000   4.003   3.015   3.663  0.0252  1.5574 -0.6340
   28MOL   H44714001   4.205   3.005   3.812  0.8170  1.2822  0.5322
   28MOL   H44814002   4.111   3.057   3.958  0.1141  0.8517 -0.3647
   28MOL   H44914003   4.001   2.835   3.948  1.8951 -2.0764  1.7407
   28MOL   H45014004   4.081   2.790   3.802 -3.1691  1.5253 -0.5972
   28MOL   H45114005   4.174   2.832   3.953 -0.3433  2.3438  1.6006
   28MOL   C45214006   4.182   3.576   3.523  0.4958  0.2896 -0.2781
   28MOL   C45314007   4.226   3.722   3.523  0.8182 -0.1458 -0.0786
   28MOL   O45414008   4.252   3.773   3.393 -0.5036  0.0907  0.7624
   28MOL   C45514009   4.145   3.856   3.349  0.1534  0.3310  0.1329
   28MOL   C45614010   4.194   3.929   3.227  0.4629 -0.2361  0.2883
   28MOL   C45714011   4.194   3.846   3.098 -0.2361 -0.9039  0.3105
   28MOL   C45814012   4.261   3.929   2.990 -0.1360 -0.3037  0.1999
   28MOL   C45914013   4.256   3.853   2.854  0.2450 -0.2615 -0.8058
   28MOL   C46014014   4.122   3.857   2.786 -0.2944  0.2195 -0.1512
   28MOL   H46114015   4.143   3.558   3.623 -0.8204 -0.7860 -0.9642
   28MOL   H46214016   4.267   3.508   3.512 -0.3783 -0.6997 -1.0715
   28MOL   H46314017   4.150   3.771   3.585 -0.3336 -0.8826 -0.8712
   28MOL   H46414018   4.130   3.942   3.415  0.4919  1.9937 -1.8939
   28MOL   H46514019   4.054   3.796   3.341  0.2250  0.0292  1.4063
   28MOL   H46614020   4.294   3.963   3.251 -0.1849 -0.5916  3.8645
   28MOL   H46714021   4.134   4.018   3.212 -0.6749 -1.3325 -1.9834
   28MOL   H46814022   4.255   3.758   3.120  1.9891 -0.1755 -2.5984
   28MOL   H46914023   4.096   3.810   3.064 -0.8723  2.6347 -1.8736
   28MOL   H47014024   4.206   4.022   2.979 -1.2893 -1.1538 -1.4027
   28MOL   H47114025   4.363   3.960   3.012 -0.0301  0.0787 -0.8041
   28MOL   H47214026   4.321   3.913   2.790  0.2231  0.2358 -0.3665
   28MOL   H47314027   4.294   3.751   2.862 -3.2104 -1.5245  0.3239
   28MOL   H47414028   4.041   3.813   2.845 -1.7252  0.0458 -2.1711
   28MOL   H47514029   4.109   3.961   2.759 -1.3573 -0.4405 -2.3216
   28MOL   H47614030   4.129   3.796   2.696  4.5065  0.0544  0.2363
   28MOL   C47714031   4.353   3.735   3.596 -0.1736 -0.7963 -0.7046
   28MOL   C47814032   4.410   3.883   3.628  0.1081 -0.5630 -0.0751
   28MOL   O47914033   4.317   3.956   3.707  0.1160 -0.3443  0.6093
   28MOL   C48014034   4.352   4.086   3.739  0.2312 -0.0147  0.3637
   28MOL   C48114035   4.461   4.099   3.850 -0.2289 -0.3866 -0.3641
   28MOL   C48214036   4.528   4.240   3.875 -0.4298  0.2845  0.3411
   28MOL   C48314037   4.633   4.230   3.992  0.4815 -0.7118  0.3545
   28MOL   C48414038   4.710   4.361   3.995 -0.1767  0.1501  1.1098
   28MOL   C48514039   4.633   4.484   4.040  0.2314  0.4621  0.1978
   28MOL   H48614040   4.342   3.698   3.698 -0.8893 -1.4144 -1.0014
   28MOL   H48714041   4.423   3.667   3.547 -1.0915 -2.0886 -0.2340
   28MOL   H48814042   4.493   3.865   3.696 -0.7414 -1.4745  0.7456
   28MOL   H48914043   4.263   4.141   3.770 -0.8779 -1.1361 -0.7870
   28MOL   H49014044   4.381   4.126   3.642 -2.2203  1.4030  0.1849
   28MOL   H49114045   4.538   4.026   3.830  0.0384 -0.1743 -0.1099
   28MOL   H49214046   4.416   4.065   3.944 -0.6832 -2.4866 -1.3130
   28MOL   H49314047   4.577   4.277   3.785  2.5166 -2.8419  0.5478
   28MOL   H49414048   4.458   4.315   3.911  0.5952  1.8167 -0.8090
   28MOL   H49514049   4.574   4.226   4.084  0.8169 -3.3727  0.4893
   28MOL   H49614050   4.686   4.137   3.972  0.8070 -0.5533  0.4823
   28MOL   H49714051   4.788   4.334   4.066 -0.2193  1.2598  1.5961
   28MOL   H49814052   4.752   4.374   3.895 -0.1831 -2.2116  0.7854
   28MOL   H49914053   4.566   4.513   3.959  0.2706 -2.1782 -0.8293
   28MOL   H50014054   4.569   4.476   4.127 -0.3403  3.2737  0.0953
   28MOL   H50114055   4.710   4.557   4.063  0.4993 -0.3292  1.8917
   28MOL   H50214056   4.448   3.939   3.542  1.1040 -1.4816 -0.2412
   29MOL     C114057   4.061   6.934   4.828 -0.1787  0.6153 -0.3224
   29MOL     C214058   4.011   7.060   4.756 -0.1364 -0.1711 -0.4716
   29MOL     O314059   3.881   7.075   4.815  0.3779  0.3697  0.1158
   29MOL     C414060   3.859   7.203   4.864  0.2965  0.4068 -0.2816
   29MOL     C514061   3.731   7.196   4.941  0.7062 -0.2580 -0.0558
   29MOL     C614062   3.732   7.109   5.065  0.8102 -0.4045 -0.0633
   29MOL     C714063   3.602   7.109   5.141 -1.1163  0.2662 -0.2391
   29MOL     C814064   3.625   7.027   5.268  0.4291  0.0689 -0.2888
   29MOL     C914065   3.487   6.972   5.330  0.5247 -0.0094 -0.6230
   29MOL    H1014066   4.056   6.943   4.937  0.9837  1.8840 -0.3519
   29MOL    H1114067   3.996   6.853   4.798 -1.7272  2.1892 -1.3294
   29MOL    H1214068   4.081   7.137   4.788 -0.5197  0.7350 -1.7856
   29MOL    H1314069   3.852   7.283   4.790 -0.5033  0.7839  0.1928
   29MOL    H1414070   3.946   7.236   4.921 -0.4335  0.0192  1.0804
   29MOL    H1514071   3.652   7.163   4.873  0.3997  1.7332 -0.7071
   29MOL    H1614072   3.700   7.297   4.966  0.3803 -1.0610  3.0372
   29MOL    H1714073   3.762   7.005   5.050  2.3143  0.0824 -0.5139
   29MOL    H1814074   3.813   7.153   5.123 -0.2335  0.1598  0.9927
   29MOL    H1914075   3.569   7.206   5.178 -3.1849 -0.1602 -0.8928
   29MOL    H2014076   3.527   7.057   5.082 -1.3254 -0.9605  1.0670
   29MOL    H2114077   3.694   7.071   5.339 -0.5223  2.5273 -0.8107
   29MOL    H2214078   3.688   6.943   5.241  0.7355 -0.4073  1.8955
   29MOL    H2314079   3.511   6.897   5.406  0.9964 -1.3212 -2.0378
   29MOL    H2414080   3.425   7.055   5.364 -0.7173 -0.0515 -2.6902
   29MOL    H2514081   3.419   6.926   5.258  1.2060  0.5673 -1.6389
   29MOL    H2614082   4.164   6.914   4.801 -0.5871  1.7327 -2.8409
   29MOL    C2714083   4.024   7.043   4.604  0.8361 -0.4914  0.1413
   29MOL    C2814084   4.039   7.180   4.530 -0.0182 -0.6521 -0.6845
   29MOL    O2914085   4.181   7.205   4.538  0.0127 -0.5127 -0.2877
   29MOL    C3014086   4.219   7.340   4.511 -0.2377 -0.6970 -0.1572
   29MOL    C3114087   4.363   7.369   4.566 -0.3617 -0.2443  0.4438
   29MOL    C3214088   4.380   7.320   4.716  0.6545  0.8150 -0.0855
   29MOL    C3314089   4.281   7.386   4.814  0.5977  0.3740  0.1874
   29MOL    C3414090   4.302   7.344   4.961 -0.3971 -0.7851  0.0840
   29MOL    C3514091   4.226   7.432   5.057  0.5356  0.5783 -0.2187
   29MOL    H3614092   4.108   6.977   4.579  1.9476  1.2812 -0.9032
   29MOL    H3714093   3.933   6.995   4.569 -0.1101  1.9616 -0.8182
   29MOL    H3814094   3.977   7.257   4.576  0.5108 -1.3630  1.2536
   29MOL    H3914095   4.152   7.405   4.568 -0.6108 -2.4501  1.4730
   29MOL    H4014096   4.192   7.365   4.408 -0.1400 -1.7505 -0.4423
   29MOL    H4114097   4.386   7.474   4.547  1.3771 -0.9124 -1.3694
   29MOL    H4214098   4.439   7.306   4.518  0.6694  0.1916  1.4697
   29MOL    H4314099   4.347   7.216   4.722 -1.4088  1.4071 -0.8037
   29MOL    H4414100   4.487   7.332   4.731  0.2625  1.1260  2.7361
   29MOL    H4514101   4.295   7.494   4.805 -0.9379  0.5551 -0.0098
   29MOL    H4614102   4.179   7.367   4.781  1.4172 -1.5106 -1.3951
   29MOL    H4714103   4.285   7.236   4.967  1.9766 -1.2126 -0.1619
   29MOL    H4814104   4.408   7.353   4.987 -0.2519 -0.0592 -0.7391
   29MOL    H4914105   4.228   7.395   5.159  2.6767 -0.2627 -0.5568
   29MOL    H5014106   4.255   7.537   5.053 -1.4669  1.1123 -4.2574
   29MOL    H5114107   4.123   7.443   5.023 -0.0308 -1.1591  0.8734
   29MOL    C5214108   3.995   7.157   4.387 -0.5495  0.2596  0.3067
   29MOL    C5314109   3.840   7.161   4.370  0.1958  0.4553 -0.8543
   29MOL    O5414110   3.792   7.290   4.403  1.1493  0.3636 -0.4224
   29MOL    C5514111   3.698   7.290   4.518 -0.3279 -0.2967  0.2803
   29MOL    C5614112   3.657   7.444   4.545 -0.5017  0.0964  1.3264
   29MOL    C5714113   3.604   7.472   4.678 -0.2398  0.1826 -0.2647
   29MOL    C5814114   3.468   7.403   4.713  0.2552  0.3685  0.5284
   29MOL    C5914115   3.439   7.418   4.855  0.7032 -0.0293 -0.1631
   29MOL    C6014116   3.293   7.370   4.884  1.1744 -0.2547  0.0378
   29MOL    H6114117   4.039   7.062   4.356  0.0752  0.4916  0.4807
   29MOL    H6214118   4.038   7.236   4.325  0.1822  1.8165  2.7162
   29MOL    H6314119   3.789   7.089   4.435  0.2984  0.5930 -0.6219
   29MOL    H6414120   3.751   7.248   4.603 -1.0393  1.2723  1.5237
   29MOL    H6514121   3.615   7.219   4.510 -1.0296  0.6062 -0.7100
   29MOL    H6614122   3.591   7.475   4.463 -1.0067 -2.0776  0.8902
   29MOL    H6714123   3.747   7.505   4.549  0.4280 -1.1733  0.2863
   29MOL    H6814124   3.672   7.441   4.757  0.6859 -2.4067 -2.0262
   29MOL    H6914125   3.602   7.580   4.695  1.6773  0.4983 -1.9215
   29MOL    H7014126   3.394   7.468   4.665  2.0451  0.2703 -2.5503
   29MOL    H7114127   3.462   7.300   4.678  1.3761  0.7803 -0.9284
   29MOL    H7214128   3.509   7.363   4.918  0.9271  0.4757  0.0241
   29MOL    H7314129   3.446   7.524   4.877  0.8221  0.9442 -4.4713
   29MOL    H7414130   3.247   7.402   4.977 -2.6566  2.7142 -2.7248
   29MOL    H7514131   3.228   7.411   4.807  2.2275  2.1997  0.4134
   29MOL    H7614132   3.268   7.264   4.877 -0.5827  0.0688  1.2144
   29MOL    C7714133   3.798   7.119   4.230 -0.3670  0.3577  0.2382
   29MOL    C7814134   3.651   7.109   4.190  0.0075  0.2563 -0.0840
   29MOL    O7914135   3.600   7.236   4.194  0.4417 -0.2556 -0.4431
   29MOL    C8014136   3.587   7.307   4.072 -0.0936 -0.1390  0.0578
   29MOL    C8114137   3.561   7.454   4.107  0.1280  0.6525 -0.2917
   29MOL    C8214138   3.546   7.537   3.979 -1.1071 -0.2433 -0.2097
   29MOL    C8314139   3.564   7.690   4.008 -0.2259  0.4866  0.4929
   29MOL    C8414140   3.479   7.737   4.132 -0.7102  0.2273 -0.0744
   29MOL    C8514141   3.470   0.112   4.134 -0.5727 -0.4056 -0.2953
   29MOL    H8614142   3.856   7.029   4.208 -1.4297 -0.4461  0.7185
   29MOL    H8714143   3.844   7.197   4.168  2.7277 -0.7393  1.0824
   29MOL    H8814144   3.658   7.071   4.088  0.6374  0.3798 -0.0913
   29MOL    H8914145   3.506   7.277   4.006  3.2914 -2.3411 -3.3356
   29MOL    H9014146   3.687   7.300   4.028  0.1270 -0.1566  0.5559
   29MOL    H9114147   3.647   7.493   4.161  1.4589 -1.1572 -1.0316
   29MOL    H9214148   3.474   7.454   4.172  0.7500 -0.1734  0.5480
   29MOL    H9314149   3.616   7.499   3.905  0.0300  0.9527  0.2431
   29MOL    H9414150   3.448   7.517   3.934 -1.6826  0.4625  0.7035
   29MOL    H9514151   3.666   7.719   4.035 -0.2688  1.1187 -0.0137
   29MOL    H9614152   3.530   7.743   3.919  1.5055 -2.1365 -1.8278
   29MOL    H9714153   3.379   7.694   4.125 -0.2363 -0.5757 -2.9346
   29MOL    H9814154   3.520   7.698   4.225 -2.1595 -0.9059  0.1139
   29MOL    H9914155   3.470   0.147   4.237  0.7539  1.8935 -1.0295
   29MOL   H10014156   3.553   0.160   4.083 -0.9053  0.1964 -0.2779
   29MOL   H10114157   3.372   0.133   4.091  0.2064 -1.4664 -2.6764
   29MOL   C10214158   3.573   7.002   4.272 -0.7551  0.1053  1.0299
   29MOL   C10314159   3.423   6.995   4.251  0.4908 -0.0547  0.5642
   29MOL   O10414160   3.371   6.863   4.283  0.4200 -0.0617 -0.5023
   29MOL   C10514161   3.320   6.789   4.168  0.1537 -0.5410  0.1138
   29MOL   C10614162   3.299   6.644   4.213 -0.3982  0.2921  0.1024
   29MOL   C10714163   3.196   6.630   4.329  0.3112 -0.0136 -0.4228
   29MOL   C10814164   3.143   6.487   4.350  0.5559 -0.4096  1.0432
   29MOL   C10914165   3.040   6.447   4.246  1.0484  0.5989  0.4854
   29MOL   C11014166   3.011   6.299   4.263  0.3873 -0.4098 -0.3534
   29MOL   H11114167   3.618   6.905   4.251  0.7783  0.9575  0.2821
   29MOL   H11214168   3.613   7.010   4.372  0.7205 -1.3175  0.5655
   29MOL   H11314169   3.393   7.031   4.153  0.5403 -1.1943  0.1272
   29MOL   H11414170   3.388   6.778   4.084  0.1679 -0.1686  0.0778
   29MOL   H11514171   3.227   6.820   4.121 -0.3141 -0.3131  1.1713
   29MOL   H11614172   3.390   6.613   4.264  0.6028  2.6554 -0.1925
   29MOL   H11714173   3.279   6.578   4.128 -0.7298 -0.2287  0.5751
   29MOL   H11814174   3.252   6.658   4.418 -1.6857  0.2478  0.7820
   29MOL   H11914175   3.111   6.699   4.327  0.2840 -0.0578 -0.9714
   29MOL   H12014176   3.226   6.416   4.349 -0.4873 -1.6513 -2.4378
   29MOL   H12114177   3.109   6.476   4.453  1.4790 -3.6889  1.0538
   29MOL   H12214178   2.960   6.519   4.260 -1.4462 -2.0675  0.3979
   29MOL   H12314179   3.077   6.467   4.145  1.5488 -0.1937  0.5048
   29MOL   H12414180   2.953   6.268   4.351  1.5661 -0.7613  0.3142
   29MOL   H12514181   2.951   6.249   4.186 -0.6020 -0.7831  0.6347
   29MOL   H12614182   3.098   6.235   4.250  1.4882  0.7880  1.0120
   29MOL   C12714183   3.351   7.083   4.358  0.2249 -0.8001 -0.2378
   29MOL   C12814184   3.199   7.099   4.339  0.5877  0.4345 -1.2995
   29MOL   O12914185   3.169   7.240   4.322 -0.0744 -0.6184  0.0644
   29MOL   C13014186   3.163   7.287   4.191 -0.0124 -0.0172  0.3425
   29MOL   C13114187   3.151   7.438   4.203  0.1644 -0.1422  0.7672
   29MOL   C13214188   3.117   7.511   4.071 -0.0061 -0.1883 -0.1132
   29MOL   C13314189   3.116   7.660   4.105  0.6382  0.2881  0.1671
   29MOL   C13414190   3.118   7.764   3.988 -0.1574  0.3640  0.1100
   29MOL   C13514191   3.009   7.754   3.875  0.5691  0.0217  0.1240
   29MOL   H13614192   3.373   7.051   4.460  1.5287  2.5566  0.6017
   29MOL   H13714193   3.392   7.184   4.359 -1.7808  0.1088 -2.9003
   29MOL   H13814194   3.175   7.048   4.246  1.4626 -0.5727 -0.9766
   29MOL   H13914195   3.074   7.245   4.146  0.9150  0.0276 -1.5687
   29MOL   H14014196   3.248   7.259   4.129  0.4241  1.0553  0.4544
   29MOL   H14114197   3.253   7.463   4.232  0.3073  1.3793 -0.9165
   29MOL   H14214198   3.081   7.465   4.282  0.6428 -0.7082  1.3864
   29MOL   H14314199   3.194   7.490   3.996 -1.2873  0.0666 -1.5078
   29MOL   H14414200   3.027   7.479   4.020 -1.0511  3.1721 -0.4624
   29MOL   H14514201   3.018   7.680   4.148 -0.0109  1.5312 -1.8557
   29MOL   H14614202   3.187   7.689   4.182  0.2874 -0.3714  0.7559
   29MOL   H14714203   3.114   0.083   4.036  1.0239 -1.5315  4.2774
   29MOL   H14814204   3.218   7.771   3.945 -1.1897 -2.7987 -3.0296
   29MOL   H14914205   3.034   7.681   3.798 -1.7562  0.7615 -1.3927
   29MOL   H15014206   2.915   7.718   3.915  1.0484 -0.5205  0.7584
   29MOL   H15114207   2.995   0.075   3.831  3.1288  1.2568  1.9380
   29MOL   C15214208   3.111   7.049   4.460 -0.8097  0.4041 -0.0389
   29MOL   C15314209   2.972   7.033   4.412  0.1401  0.0437  0.5799
   29MOL   O15414210   2.964   6.924   4.322 -0.3583  0.7856 -0.3528
   29MOL   C15514211   2.871   6.935   4.216  0.1974 -0.1419  0.2642
   29MOL   C15614212   2.851   6.788   4.171  0.1333  0.3026  0.4987
   29MOL   C15714213   2.753   6.776   4.050 -1.0046  0.1417  0.1411
   29MOL   C15814214   2.692   6.639   4.039 -0.3219  0.5095 -0.1846
   29MOL   C15914215   2.555   6.637   3.972 -0.2255 -0.0706 -0.1945
   29MOL   C16014216   2.571   6.674   3.828 -0.4542 -0.6283  0.4944
   29MOL   H16114217   3.144   6.951   4.494 -2.1761  0.0562  0.2883
   29MOL   H16214218   3.138   7.104   4.549  0.9242  0.9406 -0.8690
   29MOL   H16314219   2.949   7.118   4.347  0.0959  0.5121  1.1982
   29MOL   H16414220   2.909   6.992   4.131  0.8530  1.1865  1.4286
   29MOL   H16514221   2.777   6.979   4.249  0.1156 -0.0298 -0.1152
   29MOL   H16614222   2.805   6.726   4.248  2.8198  0.4685  2.2958
   29MOL   H16714223   2.938   6.731   4.136  0.8893  1.7934 -0.0745
   29MOL   H16814224   2.678   6.854   4.060 -2.0403 -0.7995 -0.1263
   29MOL   H16914225   2.807   6.795   3.957  0.1796  1.8853  1.1470
   29MOL   H17014226   2.760   6.587   3.972  0.5086  2.9463 -1.3189
   29MOL   H17114227   2.691   6.585   4.133 -0.3287  1.6960  0.4982
   29MOL   H17214228   2.514   6.536   3.974 -0.5467  0.0857  1.5161
   29MOL   H17314229   2.477   6.693   4.024 -0.4873  1.5345 -2.2615
   29MOL   H17414230   2.647   6.616   3.776  0.4699  0.5992  0.4673
   29MOL   H17514231   2.483   6.675   3.763 -0.2567  0.5961  0.2339
   29MOL   H17614232   2.600   6.779   3.834  1.7839 -1.1714 -0.1234
   29MOL   C17714233   2.864   7.012   4.525 -0.0314  0.6634  0.3736
   29MOL   C17814234   2.849   7.126   4.626 -0.0829 -0.0659 -0.3005
   29MOL   O17914235   2.824   7.253   4.554 -0.3550 -0.0983  0.0373
   29MOL   C18014236   2.927   7.353   4.560 -0.0753 -0.0178  0.7458
   29MOL   C18114237   2.877   7.479   4.498 -0.7561 -0.0052  0.0891
   29MOL   C18214238   2.754   7.539   4.558 -0.3759 -0.5293  0.5080
   29MOL   C18314239   2.708   7.673   4.497  0.4846  0.0417  0.0053
   29MOL   C18414240   2.596   7.741   4.581 -0.0546 -0.0599  0.0666
   29MOL   C18514241   2.567   0.096   4.510  0.0511 -0.2491  0.3960
   29MOL   H18614242   2.760   7.000   4.495 -0.0812  1.0008  0.4096
   29MOL   H18714243   2.903   6.927   4.582 -0.7689 -1.0892 -1.6668
   29MOL   H18814244   2.934   7.135   4.694  0.0738 -1.0459 -0.3630
   29MOL   H18914245   3.012   7.315   4.503 -0.2312 -3.4166  2.6612
   29MOL   H19014246   2.956   7.372   4.663 -1.7351  2.0160  0.8819
   29MOL   H19114247   2.849   7.443   4.400 -1.9757  0.1278  0.3811
   29MOL   H19214248   2.953   7.557   4.487 -0.5644 -0.3324 -0.8646
   29MOL   H19314249   2.679   7.461   4.549 -0.3264 -0.3327 -2.1720
   29MOL   H19414250   2.783   7.551   4.662  2.3770 -1.3077 -0.1278
   29MOL   H19514251   2.799   7.733   4.505 -0.0499  0.7164  1.1155
   29MOL   H19614252   2.677   7.653   4.395 -3.2785 -1.8371  1.4326
   29MOL   H19714253   2.502   7.686   4.580 -0.2055  0.2013 -1.5783
   29MOL   H19814254   2.622   7.761   4.685 -0.9887  0.0545  0.2891
   29MOL   H19914255   2.561   0.074   4.404 -1.9344  2.4823 -0.1400
   29MOL   H20014256   2.474   0.141   4.546  2.4746  3.2568  2.5856
   29MOL   H20114257   2.644   0.172   4.522 -0.2248  0.2910 -1.0652
   29MOL   C20214258   2.730   7.119   4.717 -0.9395  0.1002 -0.9372
   29MOL   C20314259   2.743   7.200   4.847 -0.2707 -0.5263  0.5441
   29MOL   O20414260   2.831   7.137   4.942 -0.1550  0.3134  0.5077
   29MOL   C20514261   2.926   7.222   4.997  0.2996  0.2949  0.0943
   29MOL   C20614262   3.019   7.142   5.087 -0.7911  0.5118 -0.0242
   29MOL   C20714263   2.972   7.119   5.237  0.4237 -0.1289  0.6529
   29MOL   C20814264   3.076   7.055   5.328 -0.0065 -0.5946 -0.9715
   29MOL   C20914265   3.036   7.043   5.478 -0.8539  0.7473  0.5037
   29MOL   C21014266   3.118   7.141   5.569  0.1234 -0.4912 -0.2011
   29MOL   H21114267   2.644   7.153   4.659 -0.3263 -0.9159 -2.4770
   29MOL   H21214268   2.707   7.017   4.746 -0.9078  0.0581 -1.0600
   29MOL   H21314269   2.777   7.298   4.814  0.4956 -0.5840  1.1262
   29MOL   H21414270   2.877   7.300   5.055 -2.0725 -1.2993  0.2847
   29MOL   H21514271   2.973   7.278   4.916 -0.7050  0.1552 -0.5954
   29MOL   H21614272   3.116   7.193   5.083 -1.1267  1.3266  1.6407
   29MOL   H21714273   3.047   7.047   5.040 -0.2436  0.1900  0.9323
   29MOL   H21814274   2.928   7.210   5.277  0.9482  0.8683 -0.9767
   29MOL   H21914275   2.889   7.048   5.236 -0.5035  0.9194  1.1071
   29MOL   H22014276   3.107   6.959   5.286  0.9659 -1.0053  0.6419
   29MOL   H22114277   3.171   7.106   5.312  0.1356 -0.5035  0.1587
   29MOL   H22214278   2.931   7.073   5.481 -0.9378  0.5832 -0.5642
   29MOL   H22314279   3.045   6.940   5.515  2.9999  0.4103 -1.1101
   29MOL   H22414280   3.219   7.107   5.591 -0.3516 -2.0330 -0.3791
   29MOL   H22514281   3.112   7.246   5.540 -1.7306 -0.6286 -0.3650
   29MOL   H22614282   3.072   7.141   5.668 -0.5126 -2.8080 -0.4688
   29MOL   C22714283   2.611   7.199   4.925 -0.5289 -0.3641  0.4688
   29MOL   C22814284   2.481   7.253   4.866  0.1686  0.0901  0.3360
   29MOL   O22914285   2.438   7.151   4.776  0.0776 -0.1813  0.5447
   29MOL   C23014286   2.385   7.201   4.653  0.7234  0.2604  0.5009
   29MOL   C23114287   2.342   7.077   4.566  0.2723 -0.6150  0.6718
   29MOL   C23214288   2.463   6.985   4.534 -0.0010 -0.5423  0.3161
   29MOL   C23314289   2.421   6.863   4.447 -0.3803 -0.4439  0.1120
   29MOL   C23414290   2.543   6.786   4.397 -0.2277 -0.4547 -0.4324
   29MOL   C23514291   2.615   6.712   4.510 -0.2942  0.2151  0.1990
   29MOL   H23614292   2.593   7.099   4.964 -1.3340 -0.4208 -0.0287
   29MOL   H23714293   2.633   7.257   5.015 -0.0007  0.1426  0.0143
   29MOL   H23814294   2.510   7.342   4.811  0.1127 -0.2531 -0.2567
   29MOL   H23914295   2.450   7.269   4.597 -1.2554  2.0769  0.3653
   29MOL   H24014296   2.300   7.267   4.666 -0.8128 -1.2987 -1.3288
   29MOL   H24114297   2.283   7.098   4.477 -1.2071 -0.9634  1.5654
   29MOL   H24214298   2.260   7.037   4.626 -1.7126  2.4910  0.1089
   29MOL   H24314299   2.525   7.036   4.461  0.2551 -3.6749 -1.7356
   29MOL   H24414300   2.529   6.952   4.615 -1.9365  0.3033  2.2906
   29MOL   H24514301   2.356   6.800   4.508 -0.6979 -2.3409 -2.0928
   29MOL   H24614302   2.371   6.897   4.356 -0.3311 -0.0903  0.2209
   29MOL   H24714303   2.514   6.710   4.324  1.2379 -1.0933 -0.3647
   29MOL   H24814304   2.612   6.856   4.352 -1.4481  1.4627  0.6070
   29MOL   H24914305   2.672   6.777   4.577 -1.0814  0.4414  0.6657
   29MOL   H25014306   2.553   6.651   4.575  0.2231  0.1834  0.6657
   29MOL   H25114307   2.686   6.654   4.451  1.5760 -0.7660  3.2763
   29MOL   C25214308   2.362   7.277   4.968 -0.6510 -0.1644  0.2282
   29MOL   C25314309   2.365   7.412   5.042  0.5334 -0.0098 -0.8938
   29MOL   O25414310   2.476   7.411   5.139 -0.7775 -0.3289  0.8994
   29MOL   C25514311   2.459   7.341   5.264  0.0720  0.1801 -0.9838
   29MOL   C25614312   2.544   7.411   5.368  0.2179 -0.0111  0.0501
   29MOL   C25714313   2.691   7.439   5.338  0.1227  0.3462  1.0046
   29MOL   C25814314   2.780   7.472   5.456  0.0302 -0.5502 -0.1555
   29MOL   C25914315   2.923   7.532   5.434  0.5871  0.0028 -0.5055
   29MOL   C26014316   3.001   7.579   5.561 -0.3061 -0.0593  0.1886
   29MOL   H26114317   2.269   7.281   4.912  0.5899  0.2237 -1.8384
   29MOL   H26214318   2.353   7.187   5.029 -0.4167 -0.3888 -0.0676
   29MOL   H26314319   2.394   7.489   4.970  0.7400  0.7191 -0.0385
   29MOL   H26414320   2.503   7.243   5.245  4.2904  1.7241  0.3399
   29MOL   H26514321   2.359   7.334   5.306  1.1655 -1.3856  1.5212
   29MOL   H26614322   2.532   7.355   5.461 -1.5811 -0.5692 -0.4920
   29MOL   H26714323   2.484   7.501   5.376 -0.7909 -0.5462 -1.2943
   29MOL   H26814324   2.732   7.351   5.290 -2.2491  1.0952 -2.5665
   29MOL   H26914325   2.680   7.525   5.272 -0.1511 -0.4891 -0.0573
   29MOL   H27014326   2.738   7.552   5.518  0.1074 -0.7029  0.0956
   29MOL   H27114327   2.789   7.385   5.521 -0.0924 -0.9622 -0.6880
   29MOL   H27214328   2.984   7.449   5.399 -1.4695 -1.5769 -0.4720
   29MOL   H27314329   2.923   7.603   5.351 -0.1169  2.2594  1.3812
   29MOL   H27414330   3.089   7.640   5.543  0.0236 -0.3138  0.9332
   29MOL   H27514331   2.930   7.626   5.629 -1.0531 -1.4004  0.3501
   29MOL   H27614332   3.034   7.496   5.624  1.1941  0.6059  0.2862
   29MOL   C27714333   2.230   7.467   5.100 -0.0857 -0.5904 -0.9012
   29MOL   C27814334   2.245   7.609   5.160  0.1082  0.3149 -0.2821
   29MOL   O27914335   2.274   7.704   5.049 -0.2184  0.0913 -0.3302
   29MOL   C28014336   2.393   7.768   5.065  0.3591 -0.3658 -0.3361
   29MOL   C28114337   2.409   0.089   4.947  0.2522 -0.3683  0.4038
   29MOL   C28214338   2.544   0.170   4.943  0.0822 -0.2248  0.1186
   29MOL   C28314339   2.555   0.284   4.839 -0.4192  0.1125 -0.0557
   29MOL   C28414340   2.469   0.413   4.873 -0.2690 -0.1248  0.0196
   29MOL   C28514341   2.432   0.486   4.742  0.0531 -0.0912 -0.2080
   29MOL   H28614342   2.152   7.476   5.023  0.4257  1.7793 -1.1723
   29MOL   H28714343   2.196   7.391   5.170  1.6231  0.9082  1.6144
   29MOL   H28814344   2.326   7.600   5.232  0.9714 -1.4295 -1.4374
   29MOL   H28914345   2.476   7.697   5.069  0.6760 -0.0035 -0.4396
   29MOL   H29014346   2.398   0.039   5.162  0.5950  0.0784 -0.5735
   29MOL   H29114347   2.337   0.166   4.974  0.5375 -0.0720  0.3241
   29MOL   H29214348   2.388   0.045   4.849 -0.5386 -0.7691  0.7531
   29MOL   H29314349   2.559   0.214   5.042 -1.3027  1.5832 -0.4660
   29MOL   H29414350   2.625   0.100   4.921  0.1277 -0.1118 -0.0781
   29MOL   H29514351   2.663   0.303   4.838 -0.0685 -1.7642  0.5564
   29MOL   H29614352   2.529   0.232   4.747  0.6805 -0.7899  0.1262
   29MOL   H29714353   2.377   0.393   4.927  0.0931 -2.3948 -0.1846
   29MOL   H29814354   2.517   0.494   4.929 -0.6740  1.0631 -1.2984
   29MOL   H29914355   2.523   0.502   4.685  0.3840 -0.9236  0.0757
   29MOL   H30014356   2.369   0.426   4.676 -0.1887  0.9001 -0.8896
   29MOL   H30114357   2.390   0.586   4.744 -1.0182 -0.4650 -2.1194
   29MOL   C30214358   2.118   7.646   5.233  0.1566  0.6580 -0.0448
   29MOL   C30314359   2.136   7.759   5.340 -0.2728 -0.3328 -0.8610
   29MOL   O30414360   2.223   7.709   5.444  0.5419 -0.5464 -0.3526
   29MOL   C30514361   2.329   0.018   5.486 -0.3473 -0.0045 -0.8081
   29MOL   C30614362   2.389   7.725   5.604  0.0711 -0.5004  0.3116
   29MOL   C30714363   2.489   0.036   5.682 -0.9453  0.2983 -0.3871
   29MOL   C30814364   2.551   7.754   5.803  0.1673  0.2234  0.2427
   29MOL   C30914365   2.655   0.070   5.878 -0.0232  0.1249 -0.7451
   29MOL   C31014366   2.722   7.774   5.997  0.3348 -0.0136 -0.0350
   29MOL   H31114367   2.040   7.691   5.172  1.6407  0.6386 -2.0217
   29MOL   H31214368   2.063   7.563   5.277 -3.1126  1.3557 -2.6159
   29MOL   H31314369   2.179   0.074   5.303  1.9683 -0.8681  0.3055
   29MOL   H31414370   2.286   0.113   5.518 -1.6609 -0.5826 -0.8372
   29MOL   H31514371   2.391   0.040   5.399 -2.2113  0.9486 -1.9128
   29MOL   H31614372   2.436   7.633   5.570 -0.7791 -0.4218 -1.0991
   29MOL   H31714373   2.300   7.693   5.657 -0.9354  2.7981  0.6973
   29MOL   H31814374   2.571   0.062   5.616  1.0696  2.1980  2.7317
   29MOL   H31914375   2.444   0.132   5.706 -4.6074 -1.4550  0.1389
   29MOL   H32014376   2.477   7.715   5.873 -0.4675  1.5233  0.3026
   29MOL   H32114377   2.613   7.668   5.776 -0.8910 -0.2874 -0.6170
   29MOL   H32214378   2.731   0.120   5.817 -0.1873  1.0554 -0.2070
   29MOL   H32314379   2.603   0.157   5.917 -1.7816 -1.2967  0.1324
   29MOL   H32414380   2.791   7.697   5.964  2.3505  1.8593 -0.3469
   29MOL   H32514381   2.778   0.070   6.054  1.2628 -0.2934 -0.5780
   29MOL   H32614382   2.654   7.733   6.072  1.5028 -2.5929 -0.3325
   29MOL   C32714383   1.999   0.018   5.394 -0.2178 -0.1559 -0.4940
   29MOL   C32814384   1.981   0.140   5.493 -0.7071  0.0489  0.1948
   29MOL   O32914385   2.045   0.108   5.615 -0.5380  0.3659 -1.1947
   29MOL   C33014386   1.993   0.006   5.698 -0.1558  0.0608 -0.3824
   29MOL   C33114387   2.027   0.059   5.847 -0.2589  0.0561 -0.2755
   29MOL   C33214388   1.932   0.176   5.883 -1.2790 -0.3868  0.1851
   29MOL   C33314389   1.780   0.148   5.894  0.6557  0.1429  0.3584
   29MOL   C33414390   1.749   0.074   6.023  0.1977  0.1018 -0.0928
   29MOL   C33514391   1.595   0.101   6.058 -0.4148  0.1052 -0.1075
   29MOL   H33614392   1.953   7.713   5.446 -0.8876  0.5564  0.0790
   29MOL   H33714393   1.922   0.024   5.316  0.9945  0.2293 -1.6701
   29MOL   H33814394   1.878   0.167   5.517 -0.4131  0.0179  1.5229
   29MOL   H33914395   2.040   7.687   5.680  2.0694  0.5129  2.6575
   29MOL   H34014396   1.885   7.770   5.690 -0.2712 -0.3357  1.5837
   29MOL   H34114397   2.128   0.099   5.854  0.3033 -1.2252 -0.9727
   29MOL   H34214398   2.014   7.755   5.917  0.6358 -0.3763 -0.6211
   29MOL   H34314399   1.964   0.211   5.981 -1.6747 -0.5494  0.3757
   29MOL   H34414400   1.944   0.264   5.820 -1.5432 -1.1655 -0.9679
   29MOL   H34514401   1.742   0.250   5.903 -1.1297 -0.5375  0.6901
   29MOL   H34614402   1.729   0.099   5.811  1.5906 -1.9277  0.9623
   29MOL   H34714403   1.762   7.744   6.024 -0.3350 -0.0224 -3.0240
   29MOL   H34814404   1.815   0.110   6.102  0.2934  0.6902 -0.4381
   29MOL   H34914405   1.563   0.205   6.071  0.1649  0.2824 -0.0541
   29MOL   H35014406   1.537   0.068   5.971 -1.2156  3.4881 -0.9568
   29MOL   H35114407   1.576   0.049   6.151 -0.6753 -2.5353 -1.5917
   29MOL   C35214408   2.029   0.274   5.429 -0.4281  0.4577 -0.0121
   29MOL   C35314409   2.001   0.399   5.516 -0.0056  0.1797  0.0403
   29MOL   O35414410   1.864   0.419   5.498  0.1625 -0.1947  0.0394
   29MOL   C35514411   1.790   0.481   5.606 -0.4391  0.6625 -0.7933
   29MOL   C35614412   1.636   0.476   5.593 -0.8367  0.0181 -0.2228
   29MOL   C35714413   1.582   0.328   5.595 -0.9292  0.1267  0.7112
   29MOL   C35814414   1.432   0.332   5.621 -0.1176 -0.2701 -0.9035
   29MOL   C35914415   1.365   0.188   5.583 -0.7782 -0.1375  0.0566
   29MOL   C36014416   1.408   0.088   5.685 -0.5533  0.1431  0.6872
   29MOL   H36114417   2.138   0.272   5.422 -0.4758 -0.8477 -0.5715
   29MOL   H36214418   1.984   0.283   5.330 -0.0081 -0.1357 -0.2644
   29MOL   H36314419   2.026   0.373   5.619 -0.2124  1.0800  0.3280
   29MOL   H36414420   1.817   0.587   5.604  1.3517  0.2199 -1.1134
   29MOL   H36514421   1.815   0.441   5.704 -0.8346 -0.3660 -1.1064
   29MOL   H36614422   1.610   0.528   5.500  0.4457  1.0850 -0.0094
   29MOL   H36714423   1.597   0.522   5.684 -1.1975 -0.6537 -0.0342
   29MOL   H36814424   1.611   0.284   5.500  0.9484 -0.2420  1.4337
   29MOL   H36914425   1.629   0.273   5.677  1.5370  4.7677  2.5875
   29MOL   H37014426   1.397   0.359   5.720  2.3659  1.6067 -0.4935
   29MOL   H37114427   1.393   0.411   5.558  1.1325  0.2982 -0.9871
   29MOL   H37214428   1.257   0.201   5.591 -1.0600 -1.7241 -0.8198
   29MOL   H37314429   1.391   0.157   5.481 -1.0704  1.4756 -0.5164
   29MOL   H37414430   1.382   0.123   5.785  0.3494 -0.1753  1.0353
   29MOL   H37514431   1.349   7.775   5.682 -1.5918  0.7820  1.2999
   29MOL   H37614432   1.516   0.080   5.678 -0.6548 -0.7722  0.1385
   29MOL   C37714433   2.082   0.524   5.482  0.3570  0.5056 -0.1573
   29MOL   C37814434   2.228   0.514   5.530  0.4033 -0.1875 -0.4021
   29MOL   O37914435   2.223   0.523   5.669  0.4826 -0.8636 -0.2775
   29MOL   C38014436   2.287   0.412   5.740  0.3008  0.4370  0.8456
   29MOL   C38114437   2.283   0.437   5.883  0.1070  0.1989  0.0647
   29MOL   C38214438   2.331   0.321   5.961  0.5855 -0.4036 -0.2545
   29MOL   C38314439   2.353   0.362   6.108 -0.1926 -0.3491  0.2745
   29MOL   C38414440   2.414   0.245   6.181 -0.0648 -0.3289 -0.2079
   29MOL   C38514441   2.449   0.275   6.333 -0.5660  0.6200  0.3208
   29MOL   H38614442   2.081   0.543   5.374  0.2561  1.3224 -0.0182
   29MOL   H38714443   2.032   0.610   5.527  2.3989  1.5294  0.1847
   29MOL   H38814444   2.269   0.418   5.498 -2.1283 -0.2778 -3.5730
   29MOL   H38914445   2.394   0.412   5.721  0.4608 -2.1518  1.6632
   29MOL   H39014446   2.249   0.313   5.715  0.4732  0.1715  1.6223
   29MOL   H39114447   2.185   0.463   5.925 -0.5925 -0.6182 -1.0347
   29MOL   H39214448   2.345   0.525   5.900 -0.4588  0.1208  2.8653
   29MOL   H39314449   2.267   0.232   5.957 -1.1532  0.8197 -0.5089
   29MOL   H39414450   2.421   0.296   5.906  2.5366  0.9673  2.2153
   29MOL   H39514451   2.425   0.443   6.114 -0.0965 -0.4629  0.6924
   29MOL   H39614452   2.256   0.390   6.149  0.5402  1.7098  0.6362
   29MOL   H39714453   2.347   0.160   6.191  0.5162 -0.7899 -0.1694
   29MOL   H39814454   2.491   0.198   6.120 -0.1328 -0.4826 -0.1754
   29MOL   H39914455   2.358   0.290   6.393 -0.1251  0.4717  1.0299
   29MOL   H40014456   2.492   0.185   6.375  1.2902 -0.1739 -3.1642
   29MOL   H40114457   2.527   0.349   6.351 -0.8317  1.4733 -1.8607
   29MOL   C40214458   2.318   0.622   5.473 -0.3082  0.4373 -0.7899
   29MOL   C40314459   2.350   0.616   5.326  0.5789  0.1942  0.9223
   29MOL   O40414460   2.485   0.568   5.310 -0.3508  0.3419  0.4401
   29MOL   C40514461   2.517   0.438   5.356 -0.7734 -0.2886  0.6313
   29MOL   C40614462   2.665   0.406   5.352 -0.3954  0.5034 -0.7710
   29MOL   C40714463   2.698   0.264   5.379  0.4432  0.2256  0.5488
   29MOL   C40814464   2.835   0.226   5.319 -0.8564 -0.0048  0.0711
   29MOL   C40914465   2.958   0.280   5.392 -0.3938  0.3553  0.1755
   29MOL   C41014466   3.093   0.227   5.336  0.2634 -0.6274 -0.4848
   29MOL   H41114467   2.401   0.623   5.543  0.3467 -0.0302 -1.5618
   29MOL   H41214468   2.274   0.720   5.496  0.6530  0.9470 -1.1002
   29MOL   H41314469   2.279   0.551   5.274  0.6249  0.0735  1.0116
   29MOL   H41414470   2.477   0.364   5.287  1.0888 -0.4081 -0.3460
   29MOL   H41514471   2.483   0.421   5.458  0.1675 -1.6234  0.7357
   29MOL   H41614472   2.717   0.468   5.425 -0.9042 -1.3649  1.2352
   29MOL   H41714473   2.694   0.433   5.250 -0.3469  0.6298 -0.7245
   29MOL   H41814474   2.682   0.251   5.486 -0.0525 -2.1407  0.2207
   29MOL   H41914475   2.629   0.198   5.325 -0.2009  0.7954  0.6655
   29MOL   H42014476   2.836   0.117   5.321 -1.6673  0.0024  2.2404
   29MOL   H42114477   2.844   0.257   5.215  0.5909 -2.5721 -0.6260
   29MOL   H42214478   2.967   0.388   5.382 -1.5866  0.2439 -2.4926
   29MOL   H42314479   2.954   0.272   5.501  0.8122  2.2933  0.3846
   29MOL   H42414480   3.099   0.237   5.228  0.3849  1.4248 -0.3047
   29MOL   H42514481   3.181   0.276   5.377  0.0822  0.0483 -0.9059
   29MOL   H42614482   3.101   0.121   5.359 -1.8650 -0.7244 -0.0791
   29MOL   C42714483   2.351   0.764   5.279  0.5945  0.1510  0.0651
   29MOL   C42814484   2.340   0.776   5.131  0.4425  0.2634  0.8209
   29MOL   O42914485   2.207   0.750   5.098 -0.0207 -0.7873 -0.4222
   29MOL   C43014486   2.167   0.667   4.988  0.4554 -0.2933 -0.2585
   29MOL   C43114487   2.012   0.665   4.975 -0.1832 -0.5383  0.0323
   29MOL   C43214488   1.946   0.623   5.110 -0.8865  0.2052  0.0735
   29MOL   C43314489   1.788   0.640   5.111  0.4100  0.3796  0.3535
   29MOL   C43414490   1.716   0.577   5.230  0.1377 -0.0191 -0.7291
   29MOL   C43514491   1.567   0.602   5.225  0.3499 -0.6537 -0.4358
   29MOL   H43614492   2.265   0.819   5.317  1.6557  0.3169  2.3749
   29MOL   H43714493   2.445   0.803   5.318 -0.4880  1.8453  1.0345
   29MOL   H43814494   2.412   0.702   5.097 -0.1147 -0.6110  1.5262
   29MOL   H43914495   2.200   0.566   5.011 -0.3143 -0.7183 -1.0083
   29MOL   H44014496   2.219   0.694   4.896  0.7633  1.5900  0.4354
   29MOL   H44114497   1.979   0.610   4.886  0.9297  0.4242 -1.0057
   29MOL   H44214498   1.973   0.763   4.948  1.2547  0.5031  1.6471
   29MOL   H44314499   1.969   0.519   5.135 -0.5633  0.4319  0.7266
   29MOL   H44414500   1.991   0.678   5.192 -0.6004 -1.3033  0.9499
   29MOL   H44514501   1.763   0.746   5.108  1.2991  0.6082  0.8278
   29MOL   H44614502   1.749   0.611   5.013 -0.1613  0.6038  0.5172
   29MOL   H44714503   1.729   0.470   5.217 -1.4505 -0.1429 -1.3879
   29MOL   H44814504   1.757   0.595   5.329 -1.1517 -1.8651  0.1569
   29MOL   H44914505   1.510   0.547   5.300 -0.2558 -1.2253 -1.3190
   29MOL   H45014506   1.553   0.709   5.243 -3.3965 -0.8866 -1.5731
   29MOL   H45114507   1.534   0.573   5.126  1.8091  0.8160 -1.3834
   29MOL   C45214508   2.383   0.917   5.079 -0.0655 -0.1188 -0.6120
   29MOL   C45314509   2.475   0.913   4.959  0.2299  0.0733  0.0311
   29MOL   O45414510   2.611   0.914   5.000  0.3793  0.6929  0.0255
   29MOL   C45514511   2.659   0.785   5.020 -0.3090  0.4104 -0.7534
   29MOL   C45614512   2.805   0.802   5.052  0.9369 -0.3726  0.3747
   29MOL   C45714513   2.867   0.664   5.072 -0.2314 -0.0212 -0.0117
   29MOL   C45814514   3.004   0.679   5.157 -0.6641  0.6701  0.3224
   29MOL   C45914515   3.079   0.547   5.151  0.2314 -0.2949 -0.3382
   29MOL   C46014516   3.207   0.534   5.232  0.1558 -0.0510 -0.5176
   29MOL   H46114517   2.295   0.973   5.048  0.4302  1.0734  0.1205
   29MOL   H46214518   2.447   0.974   5.145  0.9927 -2.1518  0.1676
   29MOL   H46314519   2.444   0.831   4.894  0.3754 -0.0765  0.1519
   29MOL   H46414520   2.659   0.725   4.929  1.3991  3.7464 -3.0635
   29MOL   H46514521   2.609   0.740   5.105  2.8895 -1.4001  0.2777
   29MOL   H46614522   2.803   0.851   5.150 -0.5076  0.0448  0.1487
   29MOL   H46714523   2.868   0.856   4.981  1.2616  2.0317  2.4118
   29MOL   H46814524   2.800   0.593   5.121  0.8650 -1.0637  0.0139
   29MOL   H46914525   2.890   0.607   4.982  0.2511 -0.8908  0.6512
   29MOL   H47014526   3.070   0.750   5.107 -0.1524 -1.1901 -1.6953
   29MOL   H47114527   2.997   0.715   5.260 -1.0487 -0.1749  0.5965
   29MOL   H47214528   3.006   0.467   5.165  0.4561 -0.2143  1.4095
   29MOL   H47314529   3.117   0.524   5.052 -0.3929  1.7996 -1.0962
   29MOL   H47414530   3.193   0.523   5.339 -1.1817 -0.1973 -0.6883
   29MOL   H47514531   3.255   0.441   5.201 -0.1104 -0.7777  1.2227
   29MOL   H47614532   3.278   0.615   5.214 -0.3819  0.2823 -1.2120
   29MOL   C47714533   2.462   1.040   4.872  0.1596 -0.7079  0.8505
   29MOL   C47814534   2.558   1.029   4.749 -0.1463 -0.1421 -0.2064
   29MOL   O47914535   2.529   1.137   4.668  0.0861  0.2576  0.6092
   29MOL   C48014536   2.593   1.142   4.538  0.2441 -0.0793 -0.1851
   29MOL   C48114537   2.508   1.246   4.459 -0.4001  0.3594 -0.0852
   29MOL   C48214538   2.528   1.388   4.524 -0.3632  0.5505  0.3526
   29MOL   C48314539   2.487   1.508   4.441  0.3591 -0.1230 -0.5737
   29MOL   C48414540   2.509   1.640   4.522  0.0338 -0.6151  0.0288
   29MOL   C48514541   2.396   1.672   4.610  0.6889  0.0556 -0.4126
   29MOL   H48614542   2.361   1.070   4.844  0.0680  0.0868  2.0129
   29MOL   H48714543   2.492   1.127   4.931 -0.9750  1.2456 -1.3371
   29MOL   H48814544   2.661   1.029   4.784 -0.0880  3.1295 -0.2291
   29MOL   H48914545   2.581   1.039   4.504  0.9770 -0.2016 -0.0700
   29MOL   H49014546   2.696   1.177   4.546  0.8200 -1.9344  0.6363
   29MOL   H49114547   2.404   1.213   4.465  0.2421 -1.8308 -0.4889
   29MOL   H49214548   2.545   1.242   4.356 -1.4595 -2.4125 -0.4175
   29MOL   H49314549   2.475   1.390   4.619 -0.5118  2.8617  0.2587
   29MOL   H49414550   2.636   1.394   4.540 -0.3547  0.2928  0.3826
   29MOL   H49514551   2.541   1.519   4.347  1.3065  2.0450  0.1773
   29MOL   H49614552   2.384   1.502   4.404  1.1420 -2.4089 -2.4827
   29MOL   H49714553   2.608   1.639   4.567  0.5065  2.5062 -0.8385
   29MOL   H49814554   2.520   1.724   4.453  1.4120  1.2618  2.4932
   29MOL   H49914555   2.419   1.762   4.668  1.7827 -0.8425  0.5538
   29MOL   H50014556   2.305   1.684   4.552 -0.4852 -4.0017  0.4711
   29MOL   H50114557   2.376   1.585   4.672 -0.5691  0.2567 -0.5215
   29MOL   H50214558   2.522   0.947   4.689 -3.1490  2.1084 -1.6107
   30MOL     C114559   7.204   3.349   2.575  0.3529  0.1829  0.4190
   30MOL     C214560   7.204   3.398   2.429  0.5515  0.3537 -0.4482
   30MOL     O314561   7.280   3.301   2.355  0.2854 -0.4897 -0.0043
   30MOL     C414562   7.197   3.194   2.309  0.2875  0.0903 -0.2005
   30MOL     C514563   7.283   3.106   2.212 -0.2121 -0.1761  0.3007
   30MOL     C614564   7.227   2.969   2.179 -0.0685  0.3025 -0.1357
   30MOL     C714565   7.329   2.879   2.100 -0.5118 -0.0683 -0.0048
   30MOL     C814566   7.274   2.740   2.056  0.2036 -0.4221 -0.8040
   30MOL     C914567   7.385   2.648   2.006  0.6079  0.4714 -0.2153
   30MOL    H1014568   7.161   3.250   2.593 -1.0706  0.8924  0.9319
   30MOL    H1114569   7.309   3.353   2.604  0.2362 -5.3990  2.2514
   30MOL    H1214570   7.102   3.388   2.391 -0.0214  4.3733 -0.1878
   30MOL    H1314571   7.108   3.224   2.253 -0.3564 -1.9734 -0.3398
   30MOL    H1414572   7.175   3.131   2.396  1.0997 -1.6052 -1.2033
   30MOL    H1514573   7.387   3.092   2.244 -0.7252 -2.0140  1.2290
   30MOL    H1614574   7.285   3.156   2.115 -1.4386  0.7189  0.7198
   30MOL    H1714575   7.210   2.913   2.270 -0.6572 -0.6893 -0.8473
   30MOL    H1814576   7.123   2.970   2.147 -0.8711 -3.6663  2.0150
   30MOL    H1914577   7.355   2.934   2.009  0.9716  0.2658  0.6014
   30MOL    H2014578   7.419   2.861   2.160  0.2011  0.8900 -0.7650
   30MOL    H2114579   7.195   2.759   1.983  0.3198  1.1127 -0.5436
   30MOL    H2214580   7.222   2.690   2.137  0.7414  0.7903  0.2982
   30MOL    H2314581   7.334   2.552   2.002  1.0690  0.1862  0.6301
   30MOL    H2414582   7.409   2.694   1.910  0.5193 -0.8906 -0.8948
   30MOL    H2514583   7.473   2.640   2.069  1.3411  0.4861 -1.2330
   30MOL    H2614584   7.135   3.408   2.634 -0.4392  0.1346 -0.4560
   30MOL    C2714585   7.261   3.539   2.407  0.0915  0.6136  0.7291
   30MOL    C2814586   7.173   3.647   2.463  0.4922 -0.2357 -0.1235
   30MOL    O2914587   7.213   3.663   2.603  0.0190 -0.1825 -0.2010
   30MOL    C3014588   7.114   3.709   2.699  0.3873 -0.0420  0.7349
   30MOL    C3114589   7.197   3.785   2.799  0.0698 -0.4215 -0.7186
   30MOL    C3214590   7.308   3.710   2.871  1.0394 -0.7650  0.1885
   30MOL    C3314591   7.367   3.784   2.988  0.1195  0.3015 -0.0007
   30MOL    C3414592   7.505   3.733   3.033  0.3891 -0.1154 -0.9210
   30MOL    C3514593   7.540   3.792   3.175  0.7787 -0.3560 -0.1484
   30MOL    H3614594   7.364   3.542   2.442  0.5731 -3.1386 -0.1265
   30MOL    H3714595   7.266   3.559   2.299  2.4552  0.5823  0.8058
   30MOL    H3814596   7.068   3.618   2.459  0.6571 -0.9135  0.2661
   30MOL    H3914597   7.060   3.628   2.747 -0.2129  0.0291  0.1778
   30MOL    H4014598   7.048   3.782   2.652 -0.8447 -0.8285  1.2252
   30MOL    H4114599   7.134   3.824   2.879  0.9386 -0.6744  0.1107
   30MOL    H4214600   7.240   3.873   2.751  0.5624 -0.2582  0.0029
   30MOL    H4314601   7.271   3.609   2.885  0.3064 -0.5311 -0.0426
   30MOL    H4414602   7.392   3.702   2.802  1.3621  0.0637  0.4704
   30MOL    H4514603   7.378   3.891   2.971  1.6610 -0.0703 -1.4582
   30MOL    H4614604   7.293   3.762   3.065  1.2251 -0.1151  0.9661
   30MOL    H4714605   7.502   3.624   3.037  1.6838 -0.1343 -0.0202
   30MOL    H4814606   7.582   3.768   2.964  0.8926 -0.4229 -0.5214
   30MOL    H4914607   7.519   3.898   3.181  1.9954 -0.1632  0.9059
   30MOL    H5014608   7.477   3.751   3.255  1.6504 -1.1260  0.1548
   30MOL    H5114609   7.645   3.773   3.197  1.3374  1.0299 -1.5710
   30MOL    C5214610   7.195   3.782   2.381 -0.2351  0.2346 -0.3706
   30MOL    C5314611   7.099   3.815   2.267 -0.4427 -0.4620  0.3209
   30MOL    O5414612   7.096   3.715   2.169  0.0757  0.2287  0.1372
   30MOL    C5514613   7.203   3.713   2.077 -0.3443 -0.1146 -0.1635
   30MOL    C5614614   7.172   3.593   1.981  0.2705 -0.3502  0.3824
   30MOL    C5714615   7.288   3.533   1.910  0.1009  0.0859  0.8771
   30MOL    C5814616   7.364   3.419   1.972 -0.0323  0.0526 -0.1796
   30MOL    C5914617   7.478   3.374   1.878  0.5377  0.5453  0.1360
   30MOL    C6014618   7.565   3.266   1.941 -0.6575  0.6797  0.1786
   30MOL    H6114619   7.295   3.779   2.339 -0.6689 -0.7791 -1.3323
   30MOL    H6214620   7.187   3.858   2.460 -4.5861 -1.4695  0.9730
   30MOL    H6314621   7.134   3.906   2.219 -1.8108 -0.3013 -0.4010
   30MOL    H6414622   7.292   3.684   2.133  0.5586  0.2587 -1.3926
   30MOL    H6514623   7.218   3.805   2.020 -1.3016  1.2100  1.6814
   30MOL    H6614624   7.106   3.649   1.914  0.8868  0.5548  0.5262
   30MOL    H6714625   7.115   3.518   2.036 -3.0925  0.7784 -1.4166
   30MOL    H6814626   7.258   3.495   1.812 -1.1170  0.9900  0.8900
   30MOL    H6914627   7.354   3.615   1.882 -0.8720  0.2276 -1.0814
   30MOL    H7014628   7.411   3.444   2.067 -0.0539 -0.6964  0.0307
   30MOL    H7114629   7.294   3.338   1.989  1.3182 -1.1088 -0.0917
   30MOL    H7214630   7.434   3.328   1.790  0.6497 -0.4804  0.6011
   30MOL    H7314631   7.528   3.461   1.837  0.1063  1.4849  1.5573
   30MOL    H7414632   7.632   3.220   1.869 -0.6591  0.5628  0.2508
   30MOL    H7514633   7.626   3.302   2.024  0.3509  0.3168 -0.3985
   30MOL    H7614634   7.498   3.185   1.970 -0.9489  0.5955 -0.7095
   30MOL    C7714635   6.949   3.851   2.317  0.2230 -0.4328 -0.8033
   30MOL    C7814636   6.847   3.890   2.212 -0.6999 -0.2194  0.2899
   30MOL    O7914637   6.899   4.012   2.155 -0.3987  0.3846 -0.2910
   30MOL    C8014638   6.935   4.004   2.016  0.2548 -0.3508  0.3309
   30MOL    C8114639   6.929   4.141   1.950 -0.0256 -0.5251 -1.3174
   30MOL    C8214640   6.978   4.153   1.804 -0.3128  0.5602  0.1497
   30MOL    C8314641   6.989   4.295   1.749  0.0065 -0.3008 -0.2973
   30MOL    C8414642   7.076   4.315   1.625  0.2357  0.2782 -0.2686
   30MOL    C8514643   7.076   4.455   1.580 -0.8053 -0.0764  0.2281
   30MOL    H8614644   6.951   3.917   2.404 -0.3650  0.5720 -1.5317
   30MOL    H8714645   6.904   3.760   2.356 -0.2002  0.3181  0.4961
   30MOL    H8814646   6.853   3.816   2.132  0.5530  2.6071 -2.3373
   30MOL    H8914647   6.854   3.942   1.977  0.4996 -0.8894  0.6753
   30MOL    H9014648   7.030   3.951   2.006  1.4466  1.7815  0.0309
   30MOL    H9114649   6.976   4.207   2.023  0.8045 -1.6902 -0.7792
   30MOL    H9214650   6.824   4.168   1.943  0.0112  0.0457  0.1058
   30MOL    H9314651   7.075   4.108   1.784 -0.9813 -2.0103  2.4028
   30MOL    H9414652   6.924   4.097   1.727  1.1212 -2.5702  1.3459
   30MOL    H9514653   6.889   4.324   1.718  0.4123  0.3219 -1.0363
   30MOL    H9614654   7.029   4.354   1.832 -1.5182  2.9060 -1.7409
   30MOL    H9714655   7.176   4.278   1.650  0.3314 -2.2973 -3.9519
   30MOL    H9814656   7.049   4.247   1.544  1.2546 -0.1847 -0.2284
   30MOL    H9914657   7.106   4.520   1.663 -0.3956 -1.5527  1.2506
   30MOL   H10014658   7.151   4.465   1.502  0.0310 -1.0369  0.8934
   30MOL   H10114659   6.985   4.493   1.533 -1.0308 -1.5368 -0.5472
   30MOL   C10214660   6.704   3.926   2.267  0.0131  1.0273  1.1600
   30MOL   C10314661   6.607   3.814   2.309  0.3040 -0.4608 -1.1136
   30MOL   O10414662   6.677   3.728   2.392  0.3237 -0.0208  0.1047
   30MOL   C10514663   6.647   3.596   2.363 -0.3218  0.2577 -0.1530
   30MOL   C10614664   6.709   3.505   2.467  0.0380  0.6167 -0.5949
   30MOL   C10714665   6.677   3.546   2.611 -0.9980  0.5927  0.5299
   30MOL   C10814666   6.727   3.433   2.712 -0.2550 -0.5856  0.1065
   30MOL   C10914667   6.753   3.480   2.854  0.1057 -0.5670 -0.2280
   30MOL   C11014668   6.851   3.388   2.932  0.8827  0.0460  0.1224
   30MOL   H11114669   6.709   3.981   2.361 -0.6223 -0.2969  1.9859
   30MOL   H11214670   6.648   3.992   2.199 -1.9932 -0.3141  1.4592
   30MOL   H11314671   6.582   3.763   2.216 -2.9838  1.2989 -1.2808
   30MOL   H11414672   6.690   3.567   2.268 -1.2105 -0.8688 -0.2221
   30MOL   H11514673   6.538   3.584   2.362 -0.4159  0.6769  1.9374
   30MOL   H11614674   6.818   3.505   2.463  0.0425  1.3143 -0.4630
   30MOL   H11714675   6.686   3.401   2.444 -0.0247  0.4453  0.2419
   30MOL   H11814676   6.714   3.642   2.647  0.4763 -0.4865  1.9452
   30MOL   H11914677   6.570   3.564   2.625 -0.7360  0.9194  2.2374
   30MOL   H12014678   6.666   3.342   2.714 -4.1362  1.9140  2.0205
   30MOL   H12114679   6.820   3.394   2.670  1.5876  1.3705  2.2933
   30MOL   H12214680   6.810   3.573   2.857  1.9179 -1.6829  0.4635
   30MOL   H12314681   6.658   3.494   2.907  0.2368 -0.4731 -0.0157
   30MOL   H12414682   6.952   3.388   2.891  1.3647 -0.8954  1.3049
   30MOL   H12514683   6.875   3.428   3.031 -1.2513 -1.1017  1.1479
   30MOL   H12614684   6.808   3.288   2.938  1.0567 -0.3035 -3.3172
   30MOL   C12714685   6.479   3.859   2.374  0.0137  0.1775 -0.3228
   30MOL   C12814686   6.384   3.942   2.283 -0.6183  0.2376 -0.5563
   30MOL   O12914687   6.269   3.990   2.358 -0.1472  0.2968  0.3984
   30MOL   C13014688   6.286   4.124   2.408  0.3269  0.2175  0.8902
   30MOL   C13114689   6.165   4.170   2.490 -0.0788 -0.2894 -0.0657
   30MOL   C13214690   6.181   4.283   2.586  0.6370  0.0675  0.0384
   30MOL   C13314691   6.064   4.302   2.681 -0.1544 -0.0111  0.0756
   30MOL   C13414692   6.085   4.417   2.780 -0.3636 -0.8337 -0.3668
   30MOL   C13514693   6.013   4.406   2.913 -0.6800  0.1929  0.5320
   30MOL   H13614694   6.428   3.769   2.410 -0.4798  0.2766 -0.7627
   30MOL   H13714695   6.492   3.916   2.466 -0.5387  0.7778 -0.6068
   30MOL   H13814696   6.434   4.033   2.247  0.7363 -0.4195 -0.3562
   30MOL   H13914697   6.294   4.195   2.326 -0.2635  1.8321  2.1976
   30MOL   H14014698   6.378   4.131   2.466  1.0171 -0.4885 -0.1143
   30MOL   H14114699   6.119   4.091   2.549 -0.9790 -0.7922 -1.4194
   30MOL   H14214700   6.082   4.189   2.422  0.0790  0.9587  0.0722
   30MOL   H14314701   6.272   4.266   2.643  0.0934  0.6316  1.1050
   30MOL   H14414702   6.200   4.374   2.531  0.5591  0.2296  0.2758
   30MOL   H14514703   5.967   4.318   2.634 -0.1767 -0.0497  0.1087
   30MOL   H14614704   6.059   4.208   2.736 -0.5354  0.1863  0.3785
   30MOL   H14714705   6.192   4.430   2.795 -0.6506  0.2616  0.7612
   30MOL   H14814706   6.045   4.505   2.729 -2.0580 -1.3928 -0.0458
   30MOL   H14914707   6.048   4.307   2.942 -1.8145 -0.4064 -0.1066
   30MOL   H15014708   6.015   4.486   2.987 -2.3683  0.0145  0.7984
   30MOL   H15114709   5.908   4.384   2.893 -0.6016  0.6769 -0.4211
   30MOL   C15214710   6.326   3.869   2.159 -0.6796 -0.0518 -1.0905
   30MOL   C15314711   6.256   3.963   2.058  0.4266  0.8504 -0.8944
   30MOL   O15414712   6.356   4.030   1.992  0.4103  0.3129  0.1426
   30MOL   C15514713   6.352   4.170   2.011  0.4751 -0.6521  0.5770
   30MOL   C15614714   6.229   4.236   1.941  0.4324 -0.2493  0.1428
   30MOL   C15714715   6.238   4.391   1.944  0.5156  0.5162  0.0019
   30MOL   C15814716   6.114   4.468   1.895  0.0615 -0.8617 -0.0588
   30MOL   C15914717   6.116   4.483   1.746  0.2416  0.1999  0.1619
   30MOL   C16014718   5.993   4.538   1.680  0.1809 -0.6419 -0.2425
   30MOL   H16114719   6.399   3.818   2.096  0.2529  1.6922 -1.4594
   30MOL   H16214720   6.260   3.790   2.196 -1.1182 -0.1594 -2.0858
   30MOL   H16314721   6.186   4.032   2.104 -0.8452  0.1859 -1.7952
   30MOL   H16414722   6.441   4.217   1.969 -0.1071 -0.4603 -0.4764
   30MOL   H16514723   6.356   4.205   2.114  0.6270 -1.5026  0.8605
   30MOL   H16614724   6.140   4.205   1.996  0.6517 -1.3486 -0.1077
   30MOL   H16714725   6.211   4.189   1.844 -0.9726 -0.3804  0.4536
   30MOL   H16814726   6.248   4.419   2.049  0.2719  1.9119 -0.3267
   30MOL   H16914727   6.327   4.422   1.891  0.1376 -0.2919 -1.1118
   30MOL   H17014728   6.023   4.416   1.925 -0.8124  1.6684  1.9272
   30MOL   H17114729   6.125   4.563   1.948  0.5826 -3.0946  4.0253
   30MOL   H17214730   6.192   4.559   1.733 -0.2019  0.7611  0.7768
   30MOL   H17314731   6.160   4.400   1.690 -2.0718  0.6111 -2.4063
   30MOL   H17414732   5.999   4.501   1.577 -1.4100  4.2833 -2.2338
   30MOL   H17514733   5.901   4.497   1.722 -0.8291  1.3493 -0.4366
   30MOL   H17614734   5.983   4.646   1.685 -0.6354 -0.6341 -1.7967
   30MOL   C17714735   6.184   3.886   1.942  0.0134 -0.7557  0.3899
   30MOL   C17814736   6.066   3.797   1.978 -0.3696  0.0244  0.5662
   30MOL   O17914737   5.960   3.866   2.047  0.8582  0.6911  0.3773
   30MOL   C18014738   5.949   3.849   2.188 -0.5202  0.5461  0.1684
   30MOL   C18114739   5.854   3.957   2.249 -0.0624  0.1525  0.1518
   30MOL   C18214740   5.844   3.944   2.405  0.1957  0.8166  0.4176
   30MOL   C18314741   5.773   4.067   2.467  0.2454 -0.6663 -0.0285
   30MOL   C18414742   5.775   4.053   2.612  0.2097  0.2014  0.9557
   30MOL   C18514743   5.651   3.988   2.677  0.3370 -0.0052  0.1191
   30MOL   H18614744   6.162   3.955   1.861  0.6044 -1.7335 -0.6091
   30MOL   H18714745   6.261   3.825   1.895 -0.0025 -0.4892  0.0230
   30MOL   H18814746   6.113   3.720   2.040  1.7323  0.5791 -0.2665
   30MOL   H18914747   6.047   3.851   2.236 -0.3358  0.9409 -0.2134
   30MOL   H19014748   5.921   3.746   2.206 -2.2371  1.1328  0.9412
   30MOL   H19114749   5.756   3.953   2.202 -0.3604  1.0140  0.6862
   30MOL   H19214750   5.897   4.055   2.227  0.0656 -0.0189 -0.3588
   30MOL   H19314751   5.788   3.854   2.429  1.0003  0.0137 -0.6664
   30MOL   H19414752   5.942   3.917   2.443 -0.7633 -0.3456  2.1379
   30MOL   H19514753   5.821   4.159   2.434 -2.2755 -0.2234 -2.6306
   30MOL   H19614754   5.671   4.075   2.430  0.3549  0.2518 -0.1387
   30MOL   H19714755   5.858   3.994   2.650 -1.6614 -1.5625  2.4842
   30MOL   H19814756   5.774   4.157   2.643  3.1703 -0.0537  2.0601
   30MOL   H19914757   5.558   4.030   2.637  0.6119 -2.9797 -4.0188
   30MOL   H20014758   5.633   3.882   2.657  0.2978  0.1676 -0.8138
   30MOL   H20114759   5.664   4.005   2.783  2.6220  2.4084 -0.5091
   30MOL   C20214760   6.007   3.739   1.848 -0.7105 -0.1423 -0.0734
   30MOL   C20314761   5.890   3.637   1.851 -0.0402  0.8584 -0.0929
   30MOL   O20414762   5.873   3.556   1.735 -0.4868 -0.1579 -0.2238
   30MOL   C20514763   5.958   3.438   1.711  0.2776  0.0272 -0.4084
   30MOL   C20614764   5.919   3.397   1.569 -0.5724  0.1965  0.0638
   30MOL   C20714765   5.989   3.280   1.511 -0.6662 -0.3221 -0.0549
   30MOL   C20814766   5.963   3.268   1.359  0.8216  0.3391 -0.4288
   30MOL   C20914767   6.074   3.203   1.280 -0.6332  0.0186 -0.1048
   30MOL   C21014768   6.070   3.049   1.298  0.3238 -0.7806 -0.1409
   30MOL   H21114769   5.982   3.827   1.789  1.2422  0.4260 -0.0739
   30MOL   H21214770   6.080   3.686   1.785 -1.6844  0.5225 -1.8076
   30MOL   H21314771   5.899   3.571   1.938  2.0135 -1.3192 -1.8800
   30MOL   H21414772   5.946   3.357   1.783 -1.4959  0.9426  0.3534
   30MOL   H21514773   6.064   3.464   1.712  0.7525 -1.8468 -1.0331
   30MOL   H21614774   5.919   3.482   1.500 -1.4665 -1.2541 -1.7555
   30MOL   H21714775   5.812   3.375   1.563 -0.3819 -0.0372 -3.6273
   30MOL   H21814776   6.096   3.288   1.526 -0.5880 -0.8295 -0.3090
   30MOL   H21914777   5.965   3.188   1.565 -1.4420 -0.0946 -0.0110
   30MOL   H22014778   5.870   3.214   1.343  0.7378 -0.0661  1.3498
   30MOL   H22114779   5.940   3.364   1.312 -1.7394  0.3385  0.7481
   30MOL   H22214780   6.046   3.224   1.177  0.7265  0.4349 -0.4016
   30MOL   H22314781   6.179   3.234   1.283 -0.1309 -1.1121 -3.5958
   30MOL   H22414782   5.977   3.008   1.260 -0.9256  1.7555  0.0660
   30MOL   H22514783   6.152   3.003   1.242 -0.5233 -0.2988 -1.8238
   30MOL   H22614784   6.076   3.008   1.399 -1.5656 -1.4490 -0.2802
   30MOL   C22714785   5.757   3.722   1.869  0.3022  0.0468 -0.0290
   30MOL   C22814786   5.627   3.640   1.893 -0.3508  0.4504 -0.1419
   30MOL   O22914787   5.640   3.615   2.035  0.2917  0.2617 -0.3547
   30MOL   C23014788   5.635   3.481   2.071 -0.6334  0.1662 -0.1377
   30MOL   C23114789   5.704   3.454   2.209 -0.1658  0.1710  0.8765
   30MOL   C23214790   5.662   3.535   2.329 -0.4443 -0.2206  0.0158
   30MOL   C23314791   5.717   3.477   2.464 -0.3846 -0.4998  0.2817
   30MOL   C23414792   5.654   3.535   2.581  0.3569  0.0896 -0.4125
   30MOL   C23514793   5.713   3.516   2.723 -0.4521 -0.1374 -0.7458
   30MOL   H23614794   5.758   3.786   1.957 -0.7564 -1.4744  1.1302
   30MOL   H23714795   5.739   3.782   1.781  1.9983  1.7727  0.7814
   30MOL   H23814796   5.628   3.547   1.837 -1.7451  0.6035 -0.4510
   30MOL   H23914797   5.682   3.412   2.000  1.3672  1.8012 -0.4484
   30MOL   H24014798   5.530   3.454   2.082 -0.9888  0.3950 -2.6562
   30MOL   H24114799   5.810   3.464   2.187 -0.2662 -1.3835 -0.4379
   30MOL   H24214800   5.690   3.346   2.223 -2.4743  0.3338 -0.0128
   30MOL   H24314801   5.683   3.641   2.316 -0.4723  0.1305  2.5732
   30MOL   H24414802   5.553   3.544   2.335 -0.4002 -0.9291  2.2710
   30MOL   H24514803   5.689   3.372   2.472  1.0807 -0.9796 -0.6587
   30MOL   H24614804   5.826   3.484   2.460 -0.5617  1.3670 -2.2270
   30MOL   H24714805   5.665   3.643   2.572  0.5093  0.3554  2.3608
   30MOL   H24814806   5.545   3.526   2.586  0.1360  2.4580 -0.1037
   30MOL   H24914807   5.668   3.576   2.803  1.1195 -0.1330  0.1516
   30MOL   H25014808   5.695   3.412   2.746  0.7160 -0.4069 -1.0075
   30MOL   H25114809   5.821   3.527   2.717 -0.2536 -0.4626  1.7315
   30MOL   C25214810   5.489   3.710   1.872 -0.5287 -0.4847  0.2337
   30MOL   C25314811   5.452   3.728   1.722 -0.0182 -0.0034  0.6757
   30MOL   O25414812   5.314   3.769   1.727  0.2053 -0.4545 -0.5912
   30MOL   C25514813   5.295   3.908   1.706  0.2117  0.3244 -0.3734
   30MOL   C25614814   5.147   3.934   1.666  0.4444  0.0907 -0.5551
   30MOL   C25714815   5.049   3.867   1.756 -0.3627 -0.2669  0.3592
   30MOL   C25814816   4.907   3.863   1.713 -0.0712  0.2663 -0.0618
   30MOL   C25914817   4.804   3.802   1.817 -0.2090  0.1209  0.4131
   30MOL   C26014818   4.666   3.831   1.773  0.1061  0.2006 -0.5120
   30MOL   H26114819   5.411   3.647   1.917  0.4993 -1.6198  0.4540
   30MOL   H26214820   5.485   3.804   1.926 -1.4059 -0.9347  0.9744
   30MOL   H26314821   5.509   3.807   1.673 -0.9531  0.8873  0.9973
   30MOL   H26414822   5.362   3.957   1.635  0.3051  1.1388  0.2748
   30MOL   H26514823   5.319   3.954   1.802 -0.1246 -1.8688  0.8041
   30MOL   H26614824   5.146   3.885   1.569  0.3386  3.1815 -2.1441
   30MOL   H26714825   5.120   4.039   1.664 -0.8441 -0.2316 -0.5522
   30MOL   H26814826   5.086   3.766   1.773 -0.2380 -0.2353  0.2754
   30MOL   H26914827   5.062   3.914   1.853 -0.7836 -0.7560  0.6565
   30MOL   H27014828   4.872   3.960   1.678 -1.1562  0.3523  1.2194
   30MOL   H27114829   4.901   3.811   1.617 -0.0580  0.3571 -0.1121
   30MOL   H27214830   4.825   3.696   1.832 -4.0184 -0.4652  1.9429
   30MOL   H27314831   4.810   3.860   1.910 -0.7191  0.2026  0.3933
   30MOL   H27414832   4.589   3.807   1.846  1.6063 -0.4153  0.9051
   30MOL   H27514833   4.653   3.934   1.737  1.5113  0.7686  0.5620
   30MOL   H27614834   4.626   3.783   1.683 -0.5024  1.5267 -0.9770
   30MOL   C27714835   5.457   3.597   1.645  0.2562  0.2253 -0.3258
   30MOL   C27814836   5.408   3.614   1.501 -0.0284 -0.2117  0.0224
   30MOL   O27914837   5.526   3.643   1.424 -0.0683 -0.7385 -0.4205
   30MOL   C28014838   5.548   3.782   1.395  0.4164 -0.1477 -0.9166
   30MOL   C28114839   5.662   3.795   1.296  0.2039  0.1229  0.1114
   30MOL   C28214840   5.802   3.766   1.348 -0.3668  0.7090 -0.0513
   30MOL   C28314841   5.845   3.860   1.454 -0.1437  0.3012 -0.1001
   30MOL   C28414842   5.998   3.891   1.464  0.8465 -0.0566 -0.0653
   30MOL   C28514843   6.054   3.997   1.376  0.0168 -0.5921 -0.7095
   30MOL   H28614844   5.555   3.550   1.640  2.1524  3.9034  0.9239
   30MOL   H28714845   5.390   3.523   1.689 -1.3395  1.1035 -1.2157
   30MOL   H28814846   5.340   3.700   1.497  1.0873  0.5948 -2.2584
   30MOL   H28914847   5.562   3.844   1.483 -1.8793 -0.9257  0.0410
   30MOL   H29014848   5.459   3.820   1.345 -1.6122 -3.2066  0.1871
   30MOL   H29114849   5.663   3.894   1.251 -1.6431  1.3763  2.6945
   30MOL   H29214850   5.628   3.727   1.217  1.5397 -3.2090  2.3335
   30MOL   H29314851   5.808   3.665   1.388 -1.3500  0.1861 -1.1741
   30MOL   H29414852   5.872   3.768   1.264  2.2525 -0.4779  2.0577
   30MOL   H29514853   5.786   3.951   1.440 -0.1828  0.1635 -0.8596
   30MOL   H29614854   5.809   3.816   1.547  2.2216 -0.1972  0.6044
   30MOL   H29714855   6.039   3.914   1.562  2.6521 -0.5921 -0.6802
   30MOL   H29814856   6.049   3.803   1.426  1.4412  1.1973 -2.2704
   30MOL   H29914857   6.012   4.095   1.400  1.6690 -0.2701  0.9934
   30MOL   H30014858   6.163   4.009   1.378 -0.3405  3.0427  0.6732
   30MOL   H30114859   6.039   3.976   1.270  0.1077 -1.5650 -0.5300
   30MOL   C30214860   5.340   3.495   1.441  0.5855  0.5563  0.3097
   30MOL   C30314861   5.197   3.445   1.473  0.8921 -0.1019 -0.0649
   30MOL   O30414862   5.157   3.348   1.382 -0.0068 -0.1540  0.3599
   30MOL   C30514863   5.179   3.210   1.421  0.6827 -0.3955  0.0001
   30MOL   C30614864   5.112   3.123   1.312  0.0243  0.0040  0.1862
   30MOL   C30714865   5.150   2.976   1.319  0.1556 -0.4212  0.1104
   30MOL   C30814866   5.100   2.901   1.197 -0.3180  0.4239  0.2466
   30MOL   C30914867   5.099   2.750   1.211 -0.6768  0.2639 -0.0956
   30MOL   C31014868   5.052   2.689   1.081  0.6200  0.1469  0.3077
   30MOL   H31114869   5.336   3.518   1.334  2.9563  0.6963  0.2316
   30MOL   H31214870   5.411   3.413   1.446  1.7042  1.5902  1.3811
   30MOL   H31314871   5.199   3.400   1.572  0.3797 -0.1053 -0.0531
   30MOL   H31414872   5.113   3.185   1.504 -0.6952  1.5327 -0.4898
   30MOL   H31514873   5.276   3.176   1.458  1.4997  0.3207 -1.4435
   30MOL   H31614874   5.137   3.160   1.213 -0.1732 -1.7462 -0.5496
   30MOL   H31714875   5.003   3.120   1.315  0.0432 -1.3911 -0.2633
   30MOL   H31814876   5.258   2.969   1.312  0.1035 -1.2615  0.1521
   30MOL   H31914877   5.110   2.943   1.415  0.8969 -1.0284  0.2119
   30MOL   H32014878   4.998   2.931   1.173  0.1388  1.7828 -0.0733
   30MOL   H32114879   5.159   2.930   1.110 -1.4249 -0.7569 -0.9101
   30MOL   H32214880   5.197   2.710   1.239 -0.3903  1.8310  1.2767
   30MOL   H32314881   5.037   2.723   1.297 -0.2876 -0.7714 -0.1327
   30MOL   H32414882   4.949   2.719   1.058 -0.6231 -3.3835  0.9464
   30MOL   H32514883   5.120   2.712   0.999 -2.8878  0.1321 -2.7565
   30MOL   H32614884   5.047   2.581   1.088 -2.0788  0.1358 -0.9485
   30MOL   C32714885   5.098   3.564   1.459  0.1807  0.1738  0.1256
   30MOL   C32814886   4.957   3.524   1.472  0.8858  0.0084 -0.3552
   30MOL   O32914887   4.934   3.501   1.610 -0.4022 -0.4069 -0.0802
   30MOL   C33014888   4.866   3.385   1.643 -0.5152  0.3732 -0.2217
   30MOL   C33114889   4.713   3.407   1.627  0.4150  0.4361  0.0833
   30MOL   C33214890   4.633   3.289   1.685 -0.0281 -0.1122  0.0139
   30MOL   C33314891   4.479   3.331   1.689  0.5642 -0.4148  0.1631
   30MOL   C33414892   4.438   3.441   1.793  0.8773  0.7102  0.5023
   30MOL   C33514893   4.476   3.410   1.940 -0.3419 -0.0582 -0.0417
   30MOL   H33614894   5.112   3.614   1.363  1.5858  1.2835  0.8694
   30MOL   H33714895   5.126   3.642   1.530  0.3082  1.1870 -1.0118
   30MOL   H33814896   4.936   3.429   1.423 -1.3880 -0.5591  1.6153
   30MOL   H33914897   4.880   3.384   1.751  1.6199 -2.5679 -0.4590
   30MOL   H34014898   4.912   3.295   1.601 -1.4821 -0.2280 -0.0105
   30MOL   H34114899   4.693   3.423   1.521 -1.2884  1.3565  0.5234
   30MOL   H34214900   4.681   3.502   1.669 -1.6475  0.2396 -1.0019
   30MOL   H34314901   4.648   3.203   1.621 -2.0247 -1.4100  1.2250
   30MOL   H34414902   4.659   3.255   1.785 -1.5588  1.2886  0.9144
   30MOL   H34514903   4.431   3.357   1.595 -0.1246 -0.3082  0.5408
   30MOL   H34614904   4.420   3.244   1.717 -0.1172 -0.0351 -0.0847
   30MOL   H34714905   4.476   3.541   1.774 -1.0002  1.3730  0.1350
   30MOL   H34814906   4.329   3.442   1.787  0.8489  0.7907  1.0057
   30MOL   H34914907   4.577   3.372   1.955 -0.4955 -1.1023 -1.5601
   30MOL   H35014908   4.471   3.498   2.004  0.2853 -1.4954  2.0797
   30MOL   H35114909   4.414   3.334   1.989 -2.0737  1.3449 -0.0155
   30MOL   C35214910   4.868   3.636   1.410 -0.5950 -0.0895  0.2192
   30MOL   C35314911   4.831   3.607   1.264 -0.1094  0.3244  0.4700
   30MOL   O35414912   4.947   3.626   1.192 -0.2329 -0.4618  0.4746
   30MOL   C35514913   5.011   3.504   1.144  0.0553 -0.0890  0.1658
   30MOL   C35614914   4.939   3.461   1.010  0.2060  0.3177  1.0922
   30MOL   C35714915   5.001   3.341   0.948 -0.4955  0.0320  0.1395
   30MOL   C35814916   4.936   3.298   0.816  0.4014 -0.2781 -0.2757
   30MOL   C35914917   4.990   3.155   0.769  1.0105  0.0625 -0.3311
   30MOL   C36014918   4.935   3.102   0.636 -0.1538 -1.2644  0.0578
   30MOL   H36114919   4.782   3.643   1.477  0.6681 -0.4816  1.9329
   30MOL   H36214920   4.924   3.729   1.417 -0.1962 -0.3035 -0.1138
   30MOL   H36314921   4.792   3.505   1.260 -2.4932  1.2480 -1.2235
   30MOL   H36414922   5.012   3.427   1.221  1.3697  0.0309  0.2800
   30MOL   H36514923   5.114   3.520   1.115  0.1223  0.6594  0.7939
   30MOL   H36614924   4.943   3.542   0.937  1.8387 -0.5208  0.2187
   30MOL   H36714925   4.835   3.438   1.030  0.3909  0.9632  2.9225
   30MOL   H36814926   5.108   3.335   0.931 -0.9618 -2.2664 -2.2588
   30MOL   H36914927   4.982   3.250   1.006  1.2346  0.2546  1.0709
   30MOL   H37014928   4.827   3.292   0.814  0.4581 -1.5230 -0.2967
   30MOL   H37114929   4.958   3.376   0.743 -3.3406  1.7434  0.6235
   30MOL   H37214930   5.099   3.155   0.770  1.0350 -2.1339  2.1473
   30MOL   H37314931   4.961   3.078   0.841  3.3734 -2.0643 -1.5856
   30MOL   H37414932   4.961   3.162   0.548 -2.1891  0.9161  0.8799
   30MOL   H37514933   4.973   3.003   0.610 -0.4302 -0.7101 -2.6011
   30MOL   H37614934   4.826   3.096   0.638 -0.3243  0.7459 -1.2858
   30MOL   C37714935   4.731   3.706   1.204  0.3323  0.8474  0.1238
   30MOL   C37814936   4.582   3.691   1.255 -0.3255 -0.1331 -0.2121
   30MOL   O37914937   4.506   3.593   1.186  0.2683  0.2117 -0.1775
   30MOL   C38014938   4.459   3.481   1.254 -0.0569  0.3035  0.2756
   30MOL   C38114939   4.433   3.368   1.159  0.1901  0.1341 -0.3361
   30MOL   C38214940   4.568   3.298   1.149 -0.3098 -0.6031 -0.1915
   30MOL   C38314941   4.555   3.172   1.071 -0.6022  0.2755 -0.8303
   30MOL   C38414942   4.690   3.104   1.047  0.9338 -0.0080 -0.6734
   30MOL   C38514943   4.674   2.989   0.960 -0.2120  0.4038  0.2971
   30MOL   H38614944   4.761   3.808   1.227  0.9401  1.1391 -1.8160
   30MOL   H38714945   4.741   3.691   1.096  0.0202  1.4416  0.0084
   30MOL   H38814946   4.583   3.660   1.360 -0.3005 -0.4575 -0.3087
   30MOL   H38914947   4.367   3.500   1.309 -0.6315  1.2959 -0.9985
   30MOL   H39014948   4.525   3.452   1.335  0.9790  2.6831  0.3434
   30MOL   H39114949   4.414   3.396   1.056  1.4170 -1.2209 -0.9475
   30MOL   H39214950   4.351   3.310   1.202 -0.6315  0.5779 -1.2784
   30MOL   H39314951   4.641   3.369   1.109 -1.8766  1.8583  1.1607
   30MOL   H39414952   4.609   3.266   1.245  0.6485 -0.1748 -0.4501
   30MOL   H39514953   4.491   3.095   1.114  0.7953  0.4554  1.6218
   30MOL   H39614954   4.511   3.195   0.974 -0.9084 -0.1752 -0.7970
   30MOL   H39714955   4.772   3.166   1.009  0.5085  0.4422 -0.8546
   30MOL   H39814956   4.733   3.072   1.142  0.3829  1.9785  0.2619
   30MOL   H39914957   4.618   3.007   0.868 -1.6487 -1.3697  0.8106
   30MOL   H40014958   4.767   2.947   0.922  0.0308 -0.5063  1.8589
   30MOL   H40114959   4.620   2.911   1.013  0.4720 -2.5760 -3.1892
   30MOL   C40214960   4.495   3.816   1.259 -0.0286  0.2799 -0.4211
   30MOL   C40314961   4.361   3.803   1.336 -0.1303 -0.2398 -0.0337
   30MOL   O40414962   4.268   3.914   1.299 -0.2903  0.0651  0.5214
   30MOL   C40514963   4.151   3.884   1.224 -0.0770 -0.3958 -0.0215
   30MOL   C40614964   4.040   3.971   1.276 -0.1642  0.0838 -0.7524
   30MOL   C40714965   4.046   4.123   1.251 -0.4534  0.5410 -0.0718
   30MOL   C40814966   3.976   4.198   1.367 -0.0060 -0.0790  0.2465
   30MOL   C40914967   3.994   4.344   1.357 -0.5198  0.2772 -0.5667
   30MOL   C41014968   3.942   4.421   1.487  0.7555 -0.4607  0.0849
   30MOL   H41114969   4.475   3.849   1.157 -0.3987 -1.2270 -0.8424
   30MOL   H41214970   4.558   3.893   1.305  0.9070 -0.6920 -0.0712
   30MOL   H41314971   4.320   3.708   1.302 -0.3606 -0.5988  1.2094
   30MOL   H41414972   4.129   3.778   1.237 -0.0500 -0.1210  2.4719
   30MOL   H41514973   4.165   3.892   1.116  1.1953 -1.5160  0.0550
   30MOL   H41614974   4.046   3.951   1.384 -4.2958  0.8103 -0.3192
   30MOL   H41714975   3.950   3.923   1.238 -0.3646 -1.8537  1.9837
   30MOL   H41814976   4.150   4.152   1.241 -0.5940 -0.3722 -5.6935
   30MOL   H41914977   3.996   4.139   1.155  1.5490 -2.0321 -1.5916
   30MOL   H42014978   3.871   4.167   1.364  0.0345 -0.2239  0.2856
   30MOL   H42114979   4.007   4.156   1.463 -0.7043 -1.5653 -0.1618
   30MOL   H42214980   4.099   4.363   1.337 -0.7335  0.2481 -1.7660
   30MOL   H42314981   3.949   4.397   1.273 -2.0315  0.9174  0.6244
   30MOL   H42414982   3.837   4.402   1.510  0.0525  2.7055 -0.3680
   30MOL   H42514983   4.009   4.417   1.573 -0.7951  1.6075  1.4561
   30MOL   H42614984   3.946   4.528   1.467 -2.3026 -0.1757  0.7211
   30MOL   C42714985   4.375   3.810   1.491  0.3560 -0.1958  0.3575
   30MOL   C42814986   4.240   3.779   1.560 -0.4367 -0.3099  0.1061
   30MOL   O42914987   4.202   3.643   1.521  0.1520 -0.0140  0.5222
   30MOL   C43014988   4.061   3.625   1.498  0.3322 -0.1494 -0.5048
   30MOL   C43114989   4.014   3.472   1.493 -0.3702 -0.3338  0.0242
   30MOL   C43214990   4.075   3.382   1.587 -0.5275  0.3805 -0.2598
   30MOL   C43314991   3.980   3.267   1.626 -0.2309  0.4056 -0.0702
   30MOL   C43414992   4.041   3.186   1.739  0.2751  0.1399  0.1116
   30MOL   C43514993   3.965   3.061   1.782  0.0587  0.2668 -0.3539
   30MOL   H43614994   4.435   3.725   1.523 -0.3489 -0.7691  0.1808
   30MOL   H43714995   4.426   3.901   1.522  1.0188 -1.0232  1.7401
   30MOL   H43814996   4.163   3.849   1.528 -0.2157  0.1764  0.6372
   30MOL   H43914997   4.037   3.669   1.401 -0.8293  1.3939  0.4667
   30MOL   H44014998   4.000   3.676   1.573  0.1209  0.6887 -1.2412
   30MOL   H44114999   4.035   3.451   1.388 -2.5588  0.5980 -0.6423
   30MOL   H44215000   3.905   3.467   1.502 -0.3414  0.1221  0.6757
   30MOL   H44315001   4.168   3.347   1.541 -0.9335 -0.0825 -0.7482
   30MOL   H44415002   4.120   3.432   1.673 -1.9113  0.1316  0.6156
   30MOL   H44515003   3.890   3.315   1.664  0.4878  0.4944  1.5802
   30MOL   H44615004   3.951   3.212   1.536  0.3489  0.5116 -0.3242
   30MOL   H44715005   4.140   3.154   1.706  0.2076 -0.3402  0.3700
   30MOL   H44815006   4.041   3.239   1.835 -0.8608 -0.0255  0.2141
   30MOL   H44915007   4.004   3.003   1.865 -1.8533 -0.8168 -0.1888
   30MOL   H45015008   3.863   3.089   1.808  0.7842  1.3766  1.3638
   30MOL   H45115009   3.955   2.981   1.709 -3.8579  0.7663 -0.4402
   30MOL   C45215010   4.231   3.774   1.710 -0.4927 -0.1600  0.1762
   30MOL   C45315011   4.262   3.912   1.768  0.5501 -0.1101 -0.0091
   30MOL   O45415012   4.278   3.871   1.904 -0.5956 -0.3112 -0.2741
   30MOL   C45515013   4.332   3.958   1.998 -0.3037  0.4522 -0.3035
   30MOL   C45615014   4.349   3.897   2.142 -0.1792  0.0979  0.2293
   30MOL   C45715015   4.362   4.005   2.246  0.0045 -0.9969 -0.2733
   30MOL   C45815016   4.417   3.948   2.384  0.5770  0.1696  0.9291
   30MOL   C45915017   4.546   3.868   2.364  0.1724 -0.1612 -0.2051
   30MOL   C46015018   4.646   3.870   2.479  0.2031 -0.0142 -0.1219
   30MOL   H46115019   4.134   3.740   1.747 -1.0011 -0.6043 -1.5067
   30MOL   H46215020   4.297   3.693   1.741 -0.4632  0.4067  1.5964
   30MOL   H46315021   4.353   3.960   1.734  0.6373  0.7129  1.3599
   30MOL   H46415022   4.273   4.049   2.003 -1.7119 -0.4959  0.8960
   30MOL   H46515023   4.428   3.980   1.951  0.3844 -0.9882  0.3793
   30MOL   H46615024   4.432   3.826   2.142 -0.1193  0.1537  1.7086
   30MOL   H46715025   4.255   3.841   2.149 -0.3456  0.3156 -0.2193
   30MOL   H46815026   4.438   4.071   2.205  1.0329 -1.2603  1.1905
   30MOL   H46915027   4.270   4.064   2.254  1.5337  1.5472 -1.0542
   30MOL   H47015028   4.431   4.031   2.453  0.5459  0.5257  0.5114
   30MOL   H47115029   4.328   3.896   2.421 -0.8244  1.4487 -0.5822
   30MOL   H47215030   4.534   3.761   2.351 -2.7764  0.2508 -1.0762
   30MOL   H47315031   4.607   3.889   2.276 -0.2735 -1.8896 -0.9403
   30MOL   H47415032   4.684   3.971   2.492  0.7407 -0.1454 -0.6491
   30MOL   H47515033   4.588   3.830   2.562  1.4270  1.1260  1.3124
   30MOL   H47615034   4.731   3.805   2.456 -1.0594 -1.8197  0.2351
   30MOL   C47715035   4.133   4.000   1.756  0.1199 -0.1460 -0.1792
   30MOL   C47815036   4.165   4.148   1.718 -0.1372 -0.0618 -0.2768
   30MOL   O47915037   4.241   4.148   1.590 -0.2720  0.4538 -0.1038
   30MOL   C48015038   4.293   4.278   1.564  0.3008  0.7704  0.6199
   30MOL   C48115039   4.384   4.257   1.445  0.7721 -0.1414  0.4165
   30MOL   C48215040   4.458   4.384   1.405  0.3799  0.1943 -0.2775
   30MOL   C48315041   4.385   4.491   1.323 -1.1164  0.3098  0.3146
   30MOL   C48415042   4.318   4.598   1.421 -0.8972 -0.4768  0.2103
   30MOL   C48515043   4.276   4.720   1.336 -0.3282  0.0852 -0.6834
   30MOL   H48615044   4.062   3.960   1.684  2.5196  1.0063 -3.3237
   30MOL   H48715045   4.075   3.998   1.848  0.1263  0.5980 -0.1491
   30MOL   H48815046   4.066   4.192   1.700 -0.5203  0.0765  2.0845
   30MOL   H48915047   4.360   4.294   1.649  2.0760 -1.9007 -0.2050
   30MOL   H49015048   4.227   4.360   1.537 -1.0956 -0.6922 -0.5196
   30MOL   H49115049   4.338   4.217   1.354 -1.5118  0.0587  1.4428
   30MOL   H49215050   4.454   4.176   1.464  1.0315  0.0061  0.1065
   30MOL   H49315051   4.507   4.424   1.494  0.4153 -0.2549 -0.0966
   30MOL   H49415052   4.548   4.352   1.353  1.5236 -0.8485  2.2309
   30MOL   H49515053   4.462   4.540   1.264 -1.0566 -0.8262 -0.5619
   30MOL   H49615054   4.328   4.456   1.237  0.1950  2.4102 -1.4511
   30MOL   H49715055   4.229   4.545   1.455 -2.1537  1.9730  0.8930
   30MOL   H49815056   4.375   4.641   1.504 -0.2059 -0.6166 -0.1893
   30MOL   H49915057   4.186   4.709   1.276 -0.4349  3.1052 -1.1351
   30MOL   H50015058   4.275   4.809   1.399  1.2156 -0.6208  0.3866
   30MOL   H50115059   4.355   4.747   1.266  0.9819 -1.4187  0.1865
   30MOL   H50215060   4.220   4.200   1.796  0.8160 -0.6445 -0.5508
   31MOL     C115061   6.206   0.816   4.026 -0.5154 -0.1623 -0.8779
   31MOL     C215062   6.269   0.948   4.028 -0.2228 -0.6860  0.1230
   31MOL     O315063   6.185   1.055   4.078  0.3871  0.3412 -0.2279
   31MOL     C415064   6.154   1.047   4.214 -0.8118 -0.0777 -0.3551
   31MOL     C515065   6.112   1.182   4.256 -0.1331 -0.0476 -0.0297
   31MOL     C615066   6.048   1.182   4.397 -0.2026  0.2082 -0.1935
   31MOL     C715067   5.996   1.319   4.443 -0.1056 -0.0978  0.2583
   31MOL     C815068   5.914   1.309   4.570  0.4534  0.3659 -0.1760
   31MOL     C915069   5.873   1.438   4.628 -0.1721 -0.0658  0.1516
   31MOL    H1015070   6.277   0.737   4.002 -0.1545 -0.0919 -0.0426
   31MOL    H1115071   6.149   0.796   4.117 -1.2134  2.3387 -0.7267
   31MOL    H1215072   6.358   0.945   4.091  1.3610  1.9878 -1.8412
   31MOL    H1315073   6.252   1.028   4.257 -0.6729 -0.7382 -0.9526
   31MOL    H1415074   6.085   0.967   4.242 -0.3386 -0.3571  0.0187
   31MOL    H1515075   6.039   1.219   4.184 -0.8355 -0.6939  0.3536
   31MOL    H1615076   6.185   1.263   4.260 -2.8414  2.6012 -1.9429
   31MOL    H1715077   5.957   1.122   4.403  0.0500 -0.1890 -0.2923
   31MOL    H1815078   6.120   1.143   4.470 -1.1243  0.0405  0.6363
   31MOL    H1915079   6.069   1.399   4.448 -1.3884  1.4275 -3.2743
   31MOL    H2015080   5.937   1.363   4.363  0.6881 -1.4065 -1.0900
   31MOL    H2115081   5.973   1.256   4.644 -1.1886 -0.4631  0.5715
   31MOL    H2215082   5.828   1.241   4.567  0.5044  0.3342 -1.4154
   31MOL    H2315083   5.957   1.495   4.668  0.2716  0.6960 -1.8055
   31MOL    H2415084   5.829   1.494   4.546 -2.0078 -0.6693  0.7160
   31MOL    H2515085   5.800   1.432   4.709 -1.6304 -0.8109 -1.1843
   31MOL    H2615086   6.131   0.803   3.947 -0.7143 -0.3984 -0.6521
   31MOL    C2715087   6.331   0.980   3.890  0.3793  0.0940 -0.1071
   31MOL    C2815088   6.432   1.091   3.904 -0.2200  0.1862  0.0912
   31MOL    O2915089   6.466   1.134   3.771  0.0707 -0.2327 -0.1801
   31MOL    C3015090   6.577   1.065   3.713  0.0497 -0.4439  0.1423
   31MOL    C3115091   6.634   1.144   3.589 -0.4603  0.0656  0.3536
   31MOL    C3215092   6.531   1.152   3.472  0.2071  0.0110  0.4328
   31MOL    C3315093   6.498   1.018   3.406 -0.4465 -0.8161  0.1457
   31MOL    C3415094   6.405   1.031   3.294 -0.3292  0.0306 -0.1670
   31MOL    C3515095   6.370   0.890   3.238  0.7957 -0.2759 -0.3665
   31MOL    H3615096   6.375   0.895   3.838 -1.0574  0.4533 -2.0027
   31MOL    H3715097   6.247   1.015   3.829 -0.7437 -1.0443  0.7670
   31MOL    H3815098   6.514   1.047   3.961 -1.1552  1.1706  2.2378
   31MOL    H3915099   6.542   0.966   3.684  0.3380  0.1590 -2.3818
   31MOL    H4015100   6.662   1.045   3.779 -0.3249 -2.2171  0.1149
   31MOL    H4115101   6.734   1.112   3.562 -1.2556 -2.0751 -0.2295
   31MOL    H4215102   6.642   1.249   3.618  1.5983 -0.5239  2.0413
   31MOL    H4315103   6.433   1.191   3.501  0.2725  1.5436 -1.2734
   31MOL    H4415104   6.569   1.224   3.399 -1.6519  2.6770  1.9992
   31MOL    H4515105   6.591   0.971   3.375 -1.0248 -0.5981 -2.0093
   31MOL    H4615106   6.460   0.952   3.484 -1.3036 -1.7871 -1.0840
   31MOL    H4715107   6.315   1.077   3.336 -1.4783 -1.6328 -0.7422
   31MOL    H4815108   6.451   1.099   3.223  0.5221 -0.9167 -0.5289
   31MOL    H4915109   6.449   0.840   3.181  1.3296  0.2993 -0.1396
   31MOL    H5015110   6.339   0.812   3.308  1.6688 -0.9301 -0.7025
   31MOL    H5115111   6.292   0.902   3.163 -0.7392 -0.1406  1.2221
   31MOL    C5215112   6.386   1.220   3.972  0.0762  0.4959 -0.5069
   31MOL    C5315113   6.494   1.325   4.011  0.6120  0.0277  0.5866
   31MOL    O5415114   6.568   1.267   4.122  0.1504  0.4773 -0.0281
   31MOL    C5515115   6.579   1.347   4.235 -0.1990  0.4539  0.4634
   31MOL    C5615116   6.629   1.250   4.344 -0.1865 -0.3207  0.0787
   31MOL    C5715117   6.538   1.132   4.374 -0.0572 -0.2052 -0.1490
   31MOL    C5815118   6.578   1.042   4.489  0.4142 -0.0444 -0.0314
   31MOL    C5915119   6.492   0.918   4.495  0.4547  0.7794 -0.0562
   31MOL    C6015120   6.554   0.802   4.580  0.0520 -0.6551  0.2802
   31MOL    H6115121   6.360   1.197   4.075 -0.7764 -1.0271 -1.0511
   31MOL    H6215122   6.299   1.267   3.926 -0.4016  0.1092  0.0049
   31MOL    H6315123   6.435   1.408   4.049 -1.2182 -1.4785  1.0920
   31MOL    H6415124   6.484   1.397   4.257 -1.5565 -1.7797 -0.1172
   31MOL    H6515125   6.653   1.420   4.204  1.1958 -0.8235  0.7580
   31MOL    H6615126   6.657   1.308   4.432  0.2106 -1.0299  0.4246
   31MOL    H6715127   6.725   1.213   4.307 -0.7740 -2.0595  0.2542
   31MOL    H6815128   6.435   1.166   4.383  0.2270  0.4322  0.7782
   31MOL    H6915129   6.524   1.085   4.277  0.8087  1.3750 -1.0654
   31MOL    H7015130   6.679   1.011   4.461  0.1933 -1.7138  0.9381
   31MOL    H7115131   6.583   1.090   4.586  2.9172  1.8862 -1.0620
   31MOL    H7215132   6.403   0.948   4.549 -1.4248 -1.5636 -1.7026
   31MOL    H7315133   6.461   0.892   4.393 -0.0464  0.1141  0.2672
   31MOL    H7415134   6.656   0.779   4.548  0.6982 -1.5919  2.8059
   31MOL    H7515135   6.555   0.821   4.688 -0.6050 -1.7030  0.4783
   31MOL    H7615136   6.487   0.716   4.578 -1.7867  0.6685  2.0952
   31MOL    C7715137   6.586   1.383   3.907 -0.4203  0.2117 -0.0532
   31MOL    C7815138   6.662   1.520   3.947 -0.3592  0.4335  0.1732
   31MOL    O7915139   6.556   1.612   3.988 -0.1084 -0.0250 -0.4296
   31MOL    C8015140   6.594   1.702   4.088 -0.2198 -0.4970  0.0367
   31MOL    C8115141   6.482   1.804   4.110 -0.5041 -0.3969  0.4869
   31MOL    C8215142   6.340   1.749   4.142  0.0825 -0.1971 -0.3795
   31MOL    C8315143   6.238   1.865   4.133 -0.2146 -0.2793 -0.2743
   31MOL    C8415144   6.209   1.893   3.988  0.4693 -0.5611  1.4881
   31MOL    C8515145   6.110   2.010   3.980  0.4798 -0.5671 -0.5513
   31MOL    H8615146   6.544   1.400   3.807  1.2554  1.0888 -0.6294
   31MOL    H8715147   6.670   1.317   3.884  0.4219  0.2185  2.8330
   31MOL    H8815148   6.732   1.500   4.028 -0.2484 -0.0791 -0.0470
   31MOL    H8915149   6.684   1.753   4.055 -0.3236  0.5409  1.3165
   31MOL    H9015150   6.613   1.655   4.185  0.7307 -1.5663 -0.6483
   31MOL    H9115151   6.474   1.869   4.022  1.3812  0.0665  0.6521
   31MOL    H9215152   6.507   1.869   4.194 -1.9976  0.0109  0.6370
   31MOL    H9315153   6.308   1.661   4.085  2.1981 -0.9127 -0.5129
   31MOL    H9415154   6.343   1.698   4.238 -2.2713 -1.2509 -0.8177
   31MOL    H9515155   6.146   1.842   4.187 -0.9480 -0.3986 -1.5660
   31MOL    H9615156   6.269   1.953   4.189  0.6649  0.0625 -1.2845
   31MOL    H9715157   6.297   1.905   3.926  0.2075  4.0603  1.8559
   31MOL    H9815158   6.152   1.808   3.952 -0.2540  0.7825 -0.5916
   31MOL    H9915159   6.020   1.983   4.034 -0.9602  1.1060 -2.0481
   31MOL   H10015160   6.156   2.097   4.028 -1.0074  0.9070 -1.7078
   31MOL   H10115161   6.105   2.035   3.874  0.7348  0.0163 -0.4306
   31MOL   C10215162   6.751   1.575   3.825 -0.1767 -0.7428  0.4815
   31MOL   C10315163   6.867   1.477   3.794  1.4196 -0.1450 -0.2373
   31MOL   O10415164   6.940   1.533   3.685 -0.1907  0.1774 -0.3212
   31MOL   C10515165   6.892   1.495   3.556  0.5465 -0.4464  0.1954
   31MOL   C10615166   7.001   1.484   3.454  0.3789  0.1704 -0.2832
   31MOL   C10715167   6.960   1.442   3.317  0.4307 -0.9970  0.1814
   31MOL   C10815168   6.894   1.301   3.312  0.4501 -0.3778 -0.5664
   31MOL   C10915169   6.860   1.278   3.162  0.0224  0.6151 -0.0652
   31MOL   C11015170   6.829   1.127   3.134 -0.1787  0.2085 -0.6374
   31MOL   H11115171   6.685   1.591   3.740 -0.7859  1.2002  1.2866
   31MOL   H11215172   6.786   1.675   3.852 -1.5623  0.0483 -0.6223
   31MOL   H11315173   6.815   1.385   3.767 -0.7563  0.3275  2.1260
   31MOL   H11415174   6.808   1.561   3.531 -0.9460 -2.1964  0.4559
   31MOL   H11515175   6.850   1.394   3.555  0.1236 -0.2865 -1.9871
   31MOL   H11615176   7.073   1.411   3.491  1.5746  1.3497 -0.2287
   31MOL   H11715177   7.051   1.580   3.439  1.7665 -0.6253 -0.8954
   31MOL   H11815178   6.897   1.525   3.284  1.8650  0.6803  1.5290
   31MOL   H11915179   7.044   1.432   3.248 -1.0795  2.4868 -2.3185
   31MOL   H12015180   6.969   1.235   3.354 -1.2649 -1.1147  1.4240
   31MOL   H12115181   6.801   1.288   3.367  0.0298 -0.3065 -1.2501
   31MOL   H12215182   6.761   1.322   3.146  0.8207  2.2628 -0.6416
   31MOL   H12315183   6.933   1.323   3.095  0.5892 -2.1395 -1.3556
   31MOL   H12415184   6.765   1.112   3.046 -1.7835 -1.5345  0.7809
   31MOL   H12515185   6.924   1.080   3.111 -0.6707  0.1718 -2.6925
   31MOL   H12615186   6.770   1.081   3.213 -1.8578  1.5395 -1.0802
   31MOL   C12715187   6.973   1.480   3.906  0.3807  0.6422  0.0875
   31MOL   C12815188   6.967   1.352   3.994  1.0432 -0.1403  0.4231
   31MOL   O12915189   7.051   1.373   4.113  0.2921  0.7707 -0.2135
   31MOL   C13015190   6.991   1.439   4.218 -0.2093  0.5657  1.1245
   31MOL   C13115191   7.081   1.468   4.339 -0.3819  0.2937 -0.3490
   31MOL   C13215192   7.177   1.352   4.380 -0.3290 -0.3099 -0.0287
   31MOL   C13315193   7.120   1.211   4.398 -0.1188 -0.3917  0.6746
   31MOL   C13415194   7.014   1.196   4.512  0.3271  0.3547 -0.2663
   31MOL   C13515195   6.977   1.046   4.536 -0.2405 -0.0344  0.4953
   31MOL   H13615196   7.076   1.482   3.871  0.4201  3.6584  0.2596
   31MOL   H13715197   6.966   1.571   3.966  1.6175  0.2995  0.7569
   31MOL   H13815198   6.866   1.319   4.017  0.7486  1.6365  1.7387
   31MOL   H13915199   6.897   1.388   4.239  0.5920 -1.5616 -0.2898
   31MOL   H14015200   6.967   1.540   4.185 -0.2407 -0.2979 -1.6000
   31MOL   H14115201   7.026   1.505   4.425  1.8952  1.8140  0.5103
   31MOL   H14215202   7.144   1.554   4.317 -1.8131  1.9790  1.8488
   31MOL   H14315203   7.241   1.357   4.293 -0.4783  2.3179 -0.0108
   31MOL   H14415204   7.231   1.387   4.468  0.6558 -0.6274 -0.5062
   31MOL   H14515205   7.069   1.175   4.308 -1.6916 -0.0925  1.4352
   31MOL   H14615206   7.202   1.141   4.416 -0.0369 -1.6671 -3.8023
   31MOL   H14715207   7.043   1.257   4.597  1.3431  3.0736 -2.4932
   31MOL   H14815208   6.920   1.246   4.488  0.0218 -0.0216  0.1240
   31MOL   H14915209   7.065   0.984   4.521  0.5179  1.0098  0.5814
   31MOL   H15015210   6.940   1.033   4.638  0.1849  1.2503  0.8291
   31MOL   H15115211   6.899   1.022   4.464  0.7110  2.2738 -1.3838
   31MOL   C15215212   7.043   1.239   3.912  0.0801 -0.0433  0.4616
   31MOL   C15315213   7.057   1.106   3.983  0.2591 -0.0773  0.4206
   31MOL   O15415214   6.926   1.056   3.983 -0.0547 -0.0738 -0.2195
   31MOL   C15515215   6.899   0.967   4.091  0.4098 -0.6610 -0.7621
   31MOL   C15615216   6.781   0.888   4.047 -0.2487  0.4661 -0.5315
   31MOL   C15715217   6.723   0.796   4.169  0.3635 -0.6645  0.3581
   31MOL   C15815218   6.593   0.727   4.122  0.3990 -0.4778 -0.7965
   31MOL   C15915219   6.618   0.593   4.051 -0.4778 -0.2829 -0.9103
   31MOL   C16015220   6.496   0.500   4.063  0.2915  0.9104  1.0602
   31MOL   H16115221   6.988   1.224   3.820  1.2211 -0.4983 -0.1680
   31MOL   H16215222   7.141   1.270   3.875 -0.3537  2.5433  1.3557
   31MOL   H16315223   7.085   1.119   4.088 -1.7412 -0.5065  1.0437
   31MOL   H16415224   6.876   1.029   4.177 -1.4410  0.4520 -2.0251
   31MOL   H16515225   6.987   0.903   4.101  0.1789 -1.1689 -1.8578
   31MOL   H16615226   6.806   0.823   3.963 -0.1389 -0.5927  0.3181
   31MOL   H16715227   6.705   0.952   4.002  1.2862  0.5851 -3.1120
   31MOL   H16815228   6.791   0.721   4.207 -1.1679 -3.2061 -1.7236
   31MOL   H16915229   6.703   0.865   4.251  0.9783 -1.1894  0.9559
   31MOL   H17015230   6.530   0.715   4.210  0.0320  0.2612 -0.9501
   31MOL   H17115231   6.534   0.804   4.072  1.7102  0.2783 -1.2182
   31MOL   H17215232   6.617   0.618   3.945  1.6230 -0.8259 -1.0681
   31MOL   H17315233   6.708   0.544   4.086 -1.7717 -2.0028  0.1274
   31MOL   H17415234   6.412   0.543   4.009  1.4725 -0.0701 -1.6711
   31MOL   H17515235   6.513   0.404   4.012 -2.0668  0.6690  0.6931
   31MOL   H17615236   6.463   0.471   4.163 -1.9646 -1.1318 -0.2231
   31MOL   C17715237   7.139   1.014   3.899 -0.0291  0.2733  0.4780
   31MOL   C17815238   7.291   1.031   3.919 -0.3710 -0.0071 -0.4619
   31MOL   O17915239   7.324   1.011   4.053 -0.0913  0.1712 -0.5568
   31MOL   C18015240   7.398   1.112   4.128  0.8083  0.0102 -0.1164
   31MOL   C18115241   7.451   1.029   4.255  0.0884 -0.7360  0.2833
   31MOL   C18215242   7.508   1.125   4.353 -0.9118  0.5972  0.9513
   31MOL   C18315243   7.504   1.084   4.502  0.1839  0.4108 -0.1852
   31MOL   C18415244   7.620   0.996   4.550 -0.4891  0.0000 -0.5343
   31MOL   C18515245   7.756   1.061   4.530  0.4069 -0.4550 -0.2158
   31MOL   H18615246   7.107   0.914   3.929  0.3193 -0.1074 -0.4314
   31MOL   H18715247   7.106   1.013   3.795  1.7445 -1.5062 -0.1044
   31MOL   H18815248   7.325   1.134   3.914 -1.3241  0.3531  0.3899
   31MOL   H18915249   7.335   1.190   4.170  0.4492  0.2298 -1.0440
   31MOL   H19015250   7.486   1.142   4.071 -0.5334  2.2335 -1.1003
   31MOL   H19115251   7.523   0.950   4.235  0.3524 -0.1349 -1.2042
   31MOL   H19215252   7.359   0.985   4.293  0.8414 -3.1513 -0.5679
   31MOL   H19315253   7.609   1.148   4.319  0.2897 -1.1839  3.1870
   31MOL   H19415254   7.444   1.213   4.347 -0.2493  1.1371  1.7701
   31MOL   H19515255   7.501   1.172   4.565  1.4935 -0.7194  1.4998
   31MOL   H19615256   7.408   1.036   4.520 -0.0829 -0.1133 -2.7583
   31MOL   H19715257   7.618   0.982   4.658  0.2035  2.5018 -0.1654
   31MOL   H19815258   7.602   0.897   4.508 -0.6553 -0.1546 -0.1006
   31MOL   H19915259   0.052   1.004   4.586  1.6157  1.9187  0.6471
   31MOL   H20015260   0.003   1.068   4.424  0.3525  3.3867 -0.0306
   31MOL   H20115261   7.742   1.164   4.563 -0.5329 -1.5173  2.8701
   31MOL   C20215262   7.374   0.929   3.833  0.0328 -0.2688  0.0673
   31MOL   C20315263   7.323   0.911   3.683  0.3648 -0.4408 -0.9581
   31MOL   O20415264   7.417   0.828   3.609  0.1309 -0.4029 -0.5164
   31MOL   C20515265   7.376   0.690   3.612 -0.6075 -0.0757 -0.4248
   31MOL   C20615266   7.478   0.605   3.539 -0.6607 -0.1475  0.1110
   31MOL   C20715267   7.502   0.632   3.392  0.0431 -0.2840  0.2606
   31MOL   C20815268   7.375   0.620   3.309  0.1005 -0.4802 -0.2991
   31MOL   C20915269   7.388   0.653   3.152 -0.8781  0.3119 -0.1826
   31MOL   C21015270   7.265   0.604   3.086  0.0263 -0.0125 -0.1058
   31MOL   H21115271   7.479   0.959   3.832 -0.4813  1.6361 -2.1878
   31MOL   H21215272   7.374   0.833   3.883  1.0628 -1.4577 -2.1466
   31MOL   H21315273   7.225   0.864   3.690  1.3559 -2.2495  0.9541
   31MOL   H21415274   7.275   0.674   3.573  0.4571 -3.8110 -1.8877
   31MOL   H21515275   7.364   0.660   3.716 -1.6169  0.3345 -0.4182
   31MOL   H21615276   7.464   0.497   3.553  0.8739 -0.7228 -2.4498
   31MOL   H21715277   7.574   0.619   3.589 -1.3659  1.8296  0.9595
   31MOL   H21815278   7.546   0.729   3.369 -0.5172 -0.0318  0.2596
   31MOL   H21915279   7.584   0.567   3.360 -0.4382 -0.5829 -0.3869
   31MOL   H22015280   7.345   0.516   3.311 -1.0949 -0.1304  0.5768
   31MOL   H22115281   7.299   0.687   3.350  1.3893 -0.0893  1.5031
   31MOL   H22215282   7.405   0.758   3.131 -0.9004  0.6052  1.2309
   31MOL   H22315283   7.474   0.602   3.109 -0.9017 -0.4662  0.6723
   31MOL   H22415284   7.174   0.627   3.143 -0.8903 -1.7954 -0.8035
   31MOL   H22515285   7.253   0.642   2.985 -2.3952 -1.2629 -0.3201
   31MOL   H22615286   7.270   0.496   3.070  1.0767  0.3392 -2.2863
   31MOL   C22715287   7.333   1.045   3.606  0.1677 -0.0561 -0.5586
   31MOL   C22815288   7.270   1.040   3.472  0.1552 -0.1670  0.0187
   31MOL   O22915289   7.134   0.998   3.480 -0.3411 -0.2723  0.5540
   31MOL   C23015290   7.080   0.934   3.363 -0.1441  0.0967 -0.6341
   31MOL   C23115291   6.939   0.892   3.395  0.3109  0.2709  0.2192
   31MOL   C23215292   6.938   0.784   3.508 -0.1949 -0.1150 -0.1517
   31MOL   C23315293   6.791   0.738   3.544  0.4064 -0.2500  0.0443
   31MOL   C23415294   6.799   0.616   3.642  0.5869  0.4979  0.5920
   31MOL   C23515295   6.661   0.553   3.669 -0.3365  0.1895  0.4971
   31MOL   H23615296   7.289   1.122   3.670  1.3845 -0.5002  0.8469
   31MOL   H23715297   7.437   1.067   3.581 -0.6094  3.3670 -0.9324
   31MOL   H23815298   7.318   0.966   3.409 -0.4724  1.0073 -1.8938
   31MOL   H23915299   7.148   0.857   3.328 -0.3521 -0.9720  1.2958
   31MOL   H24015300   7.074   1.005   3.280  1.6091  1.5040  0.3999
   31MOL   H24115301   6.890   0.853   3.306  0.3235 -0.3821  0.4919
   31MOL   H24215302   6.879   0.977   3.426 -0.1587  0.0635 -0.1140
   31MOL   H24315303   7.018   0.715   3.481  0.6510  0.9675 -0.4539
   31MOL   H24415304   6.986   0.817   3.600  0.5339  1.0350 -0.9406
   31MOL   H24515305   6.746   0.822   3.597 -1.1014 -0.6049 -0.6352
   31MOL   H24615306   6.736   0.705   3.455  1.1658 -0.9378 -0.1802
   31MOL   H24715307   6.864   0.538   3.601  0.4743  1.1795 -0.9302
   31MOL   H24815308   6.837   0.651   3.738  2.2482  1.3355 -0.3536
   31MOL   H24915309   6.675   0.475   3.743 -0.7440 -0.9151 -0.5644
   31MOL   H25015310   6.588   0.625   3.706  0.1875  0.3800  1.1662
   31MOL   H25115311   6.620   0.513   3.576 -3.5214  0.6475  1.6493
   31MOL   C25215312   7.266   1.182   3.401 -0.5748 -1.0426  0.3602
   31MOL   C25315313   7.403   1.261   3.399 -0.3821  0.4108  0.4377
   31MOL   O25415314   7.365   1.395   3.362 -0.4293  0.4636  0.0637
   31MOL   C25515315   7.459   1.496   3.366 -0.0351  0.5154  0.1124
   31MOL   C25615316   7.392   1.635   3.354 -0.2519  0.1793  0.4800
   31MOL   C25715317   7.300   1.647   3.231  0.2093 -0.1173  0.3330
   31MOL   C25815318   7.202   1.767   3.234 -0.3723  0.2878  0.5274
   31MOL   C25915319   7.136   1.779   3.099  0.2197 -0.3557 -0.2658
   31MOL   C26015320   7.033   1.667   3.062 -0.3161 -0.4001 -0.5119
   31MOL   H26115321   7.234   1.165   3.299 -0.0518  1.6427 -0.3020
   31MOL   H26215322   7.189   1.247   3.442  0.5850  0.4087  0.2816
   31MOL   H26315323   7.445   1.274   3.499  0.3559 -0.1097  0.1970
   31MOL   H26415324   7.519   1.493   3.275  1.8314  2.5891  1.2244
   31MOL   H26515325   7.517   1.495   3.458 -1.9534  0.0850  1.3653
   31MOL   H26615326   7.474   1.707   3.354 -0.2207  0.1846 -2.1210
   31MOL   H26715327   7.338   1.652   3.446 -0.1867 -0.9836  0.7489
   31MOL   H26815328   7.354   1.638   3.137  2.9633  0.4573  1.8093
   31MOL   H26915329   7.246   1.552   3.228 -1.0812  0.5609  1.4701
   31MOL   H27015330   7.121   1.767   3.307 -0.5988 -1.5051  0.3009
   31MOL   H27115331   7.264   1.856   3.242  1.9017 -1.1253 -0.6887
   31MOL   H27215332   7.095   1.880   3.089 -0.5409 -0.8639 -2.3882
   31MOL   H27315333   7.215   1.782   3.025 -0.0089  2.3555 -0.4694
   31MOL   H27415334   7.076   1.569   3.043  0.1945 -0.3262  0.2467
   31MOL   H27515335   6.955   1.654   3.137 -0.2559  1.2077 -0.1419
   31MOL   H27615336   6.990   1.694   2.965 -1.9164  1.5714  0.7041
   31MOL   C27715337   7.511   1.212   3.300  0.4934  0.1440  0.0616
   31MOL   C27815338   7.650   1.214   3.362  0.1064 -0.1047  0.7064
   31MOL   O27915339   7.656   1.139   3.479 -0.0411 -0.3723  0.5920
   31MOL   C28015340   7.714   1.213   3.596 -0.5141 -0.5337  0.4298
   31MOL   C28115341   7.696   1.128   3.723 -0.3509  0.2170  0.1853
   31MOL   C28215342   7.758   0.990   3.723 -0.1721  0.8091  0.0907
   31MOL   C28315343   7.765   0.906   3.855 -0.4864  0.2884 -0.3689
   31MOL   C28415344   0.067   0.978   3.965 -0.1216 -0.1790 -0.3095
   31MOL   C28515345   0.065   0.910   4.100  0.1682 -0.1483 -0.4177
   31MOL   H28615346   7.488   1.110   3.269 -2.2064  1.7098 -3.4831
   31MOL   H28715347   7.509   1.270   3.208 -0.3383 -2.2547 -1.4909
   31MOL   H28815348   7.678   1.318   3.378 -1.6928  0.6893 -1.0251
   31MOL   H28915349   7.675   1.313   3.613  0.4763 -0.1745  0.6404
   31MOL   H29015350   0.038   1.231   3.565 -0.9869 -0.2921 -1.0004
   31MOL   H29115351   7.592   1.105   3.742 -0.6426  2.5301  1.5427
   31MOL   H29215352   7.724   1.176   3.817 -1.7423  0.8037  0.3137
   31MOL   H29315353   7.696   0.935   3.652  2.0048 -0.8445 -0.5938
   31MOL   H29415354   0.077   0.995   3.673 -0.0002 -0.1190  0.3259
   31MOL   H29515355   7.666   0.880   3.893 -0.6261  0.7776 -0.4063
   31MOL   H29615356   0.048   0.816   3.845 -2.5145 -1.3632  1.4938
   31MOL   H29715357   0.165   0.992   3.918  0.7306 -1.7768  0.9635
   31MOL   H29815358   0.039   1.081   3.987 -2.7517 -0.6010 -1.4672
   31MOL   H29915359   0.132   0.950   4.176 -1.1908 -1.4016  1.5080
   31MOL   H30015360   7.743   0.902   4.143 -0.2728  0.6219 -1.2866
   31MOL   H30115361   0.112   0.812   4.094 -0.3142 -0.3599 -0.7232
   31MOL   C30215362   7.755   1.167   3.262 -0.9778 -0.1129  0.0446
   31MOL   C30315363   0.127   1.199   3.296  0.0115 -0.9175 -0.4238
   31MOL   O30415364   0.149   1.339   3.323  0.5833 -0.3134  0.2863
   31MOL   C30515365   0.148   1.433   3.213 -0.1048  0.2460 -0.0219
   31MOL   C30615366   0.154   1.577   3.273  0.2302 -0.2279 -0.1940
   31MOL   C30715367   0.041   1.601   3.362  0.6436  0.2732  0.7426
   31MOL   C30815368   0.066   1.725   3.452 -0.3442  0.1563  0.2010
   31MOL   C30915369   7.737   1.768   3.548  0.0792 -0.0357 -0.1563
   31MOL   C31015370   0.008   1.892   3.637  0.0733  0.3616  0.0280
   31MOL   H31115371   7.739   1.062   3.235 -2.5607 -0.3850  1.9571
   31MOL   H31215372   7.736   1.217   3.167  0.6955 -1.1759 -0.8826
   31MOL   H31315373   0.149   1.148   3.390 -0.1331 -1.1349 -0.5054
   31MOL   H31415374   0.054   1.427   3.157 -1.3275  1.1307  1.8757
   31MOL   H31515375   0.232   1.423   3.145  0.6441 -0.8704  1.0443
   31MOL   H31615376   0.149   1.650   3.193 -2.7553 -0.0556  0.0807
   31MOL   H31715377   0.245   1.587   3.333 -0.3777  0.6749  0.5982
   31MOL   H31815378   7.728   1.602   3.304 -0.5678 -1.7184  2.5369
   31MOL   H31915379   0.033   1.513   3.425 -0.8045  0.8809  1.4248
   31MOL   H32015380   0.161   1.714   3.504  0.7688 -1.6910 -2.1234
   31MOL   H32115381   0.089   1.809   3.386 -0.1664  0.0590  0.1401
   31MOL   H32215382   7.639   1.782   3.503 -1.2159  0.5129  2.7004
   31MOL   H32315383   7.716   1.681   3.611 -1.8346  0.4575 -0.0597
   31MOL   H32415384   0.043   1.970   3.569  1.5931  0.8476  1.3423
   31MOL   H32515385   7.705   1.940   3.692 -1.3312 -2.1940  0.2874
   31MOL   H32615386   0.085   1.865   3.709 -0.8185 -2.3690  0.0245
   31MOL   C32715387   0.227   1.138   3.191 -0.3966  0.6486 -0.0706
   31MOL   C32815388   0.372   1.129   3.246  0.5373 -0.2021 -0.4268
   31MOL   O32915389   0.374   1.039   3.356  0.5501 -0.4212 -0.3018
   31MOL   C33015390   0.487   1.041   3.442  0.0421 -0.9250 -0.1499
   31MOL   C33115391   0.480   0.926   3.546 -0.3148 -0.2802 -0.2689
   31MOL   C33215392   0.566   0.948   3.670  0.2963 -0.9699 -0.2970
   31MOL   C33315393   0.568   0.824   3.776 -0.1639 -0.5553  0.5955
   31MOL   C33415394   0.449   0.832   3.875 -0.3266  0.1693  0.0562
   31MOL   C33515395   0.471   0.743   3.999 -1.0143  0.5121  0.3688
   31MOL   H33615396   0.230   1.197   3.100  0.5622 -1.5584 -1.5292
   31MOL   H33715397   0.198   1.040   3.154  2.5276 -1.2063  2.2545
   31MOL   H33815398   0.396   1.230   3.280 -0.3365 -0.1125 -0.0529
   31MOL   H33915399   0.476   1.136   3.495 -3.0933 -0.5167 -1.4038
   31MOL   H34015400   0.583   1.039   3.391  0.0413  2.6974 -0.4679
   31MOL   H34115401   0.500   0.829   3.501 -0.7158 -0.8110  0.6694
   31MOL   H34215402   0.379   0.914   3.585 -2.1289  2.3145 -3.9441
   31MOL   H34315403   0.666   0.941   3.629  0.1113 -1.0606 -0.7358
   31MOL   H34415404   0.557   1.044   3.719  0.0903 -0.5306 -1.1874
   31MOL   H34515405   0.555   0.726   3.729  0.6510 -0.9361  1.1564
   31MOL   H34615406   0.662   0.834   3.829 -1.0097 -1.1730  2.2657
   31MOL   H34715407   0.428   0.936   3.896 -2.3217 -0.3602  0.7829
   31MOL   H34815408   0.359   0.801   3.822 -0.8140 -3.0495  2.5935
   31MOL   H34915409   0.565   0.774   4.045 -1.1109 -0.2206  1.0655
   31MOL   H35015410   0.391   0.757   4.071  0.1920 -2.0625  2.3094
   31MOL   H35115411   0.484   0.638   3.974 -3.0768  0.5560 -1.0005
   31MOL   C35215412   0.464   1.066   3.138 -0.1992  0.2366 -0.4836
   31MOL   C35315413   0.503   1.162   3.015 -0.5248  0.0324  0.2945
   31MOL   O35415414   0.492   1.091   2.889  0.0522  0.1757 -0.6126
   31MOL   C35515415   0.360   1.080   2.831  0.4636 -0.1977 -0.1007
   31MOL   C35615416   0.360   1.011   2.702  0.3484 -0.1715  0.3259
   31MOL   C35715417   0.392   1.100   2.580  0.0093  0.2762  0.1402
   31MOL   C35815418   0.410   1.021   2.443  0.2204 -0.9439  0.3310
   31MOL   C35915419   0.486   1.109   2.335  0.7991 -0.1046 -0.0721
   31MOL   C36015420   0.492   1.035   2.203  0.2044 -0.4928 -0.1408
   31MOL   H36115421   0.552   1.025   3.187 -1.3176 -0.5655  0.9227
   31MOL   H36215422   0.420   0.972   3.103  0.2135  0.2683 -1.0919
   31MOL   H36315423   0.447   1.255   3.027 -1.0937 -0.1752 -0.6939
   31MOL   H36415424   0.318   1.180   2.821 -2.0574 -1.1603  0.6706
   31MOL   H36515425   0.296   1.035   2.906  0.1988  0.2204 -0.0730
   31MOL   H36615426   0.260   0.969   2.692 -0.3167  0.5137  3.5525
   31MOL   H36715427   0.436   0.932   2.702  0.8752  0.3251  0.8678
   31MOL   H36815428   0.309   1.170   2.568  1.3713  1.7431 -0.9892
   31MOL   H36915429   0.485   1.151   2.606  1.5662 -2.7618  0.8100
   31MOL   H37015430   0.465   0.927   2.440  1.9664  0.0851 -2.2324
   31MOL   H37115431   0.305   1.004   2.418  0.3255 -0.1418 -0.7236
   31MOL   H37215432   0.444   1.209   2.321  3.4040  0.7999 -1.6501
   31MOL   H37315433   0.585   1.145   2.363  0.4431  0.6776  0.2229
   31MOL   H37415434   0.553   1.102   2.143 -1.2668  1.0105  0.0132
   31MOL   H37515435   0.522   0.931   2.219  1.0771 -0.1920  0.1883
   31MOL   H37615436   0.394   1.033   2.156 -0.7670 -0.3507  1.8445
   31MOL   C37715437   0.648   1.191   3.030  0.1724 -0.2147 -0.5257
   31MOL   C37815438   0.693   1.288   3.148 -0.2886 -0.0522 -0.0898
   31MOL   O37915439   0.636   1.418   3.116  0.2642  0.2474  0.1233
   31MOL   C38015440   0.629   1.509   3.229  0.2983  0.0179 -0.3667
   31MOL   C38115441   0.566   1.642   3.183 -0.6161  0.2492 -0.2624
   31MOL   C38215442   0.565   1.753   3.289  0.8291 -0.2964  0.0608
   31MOL   C38315443   0.520   1.885   3.237  0.2928 -0.3106 -0.3396
   31MOL   C38415444   0.497   1.982   3.348 -0.2810  0.1137 -0.1460
   31MOL   C38515445   0.374   1.952   3.429  0.6148 -0.1470 -0.5797
   31MOL   H38615446   0.689   1.091   3.041  0.6057  0.1522  1.2986
   31MOL   H38715447   0.702   1.231   2.944  0.1420 -0.8779 -0.8478
   31MOL   H38815448   0.637   1.266   3.239  0.3458  0.4241  0.4224
   31MOL   H38915449   0.730   1.517   3.268  0.5088  1.7164 -1.1924
   31MOL   H39015450   0.563   1.470   3.307  0.0837  0.3253 -0.3906
   31MOL   H39115451   0.467   1.612   3.149  0.1989 -3.8954  0.7760
   31MOL   H39215452   0.626   1.675   3.098 -1.4308  0.8276 -0.6272
   31MOL   H39315453   0.498   1.709   3.363 -0.2670  0.2642 -0.5906
   31MOL   H39415454   0.663   1.748   3.338  0.2007 -1.5310  1.2254
   31MOL   H39515455   0.608   1.916   3.180  2.1801 -0.7527  2.2266
   31MOL   H39615456   0.434   1.872   3.171  0.5046  2.9729 -1.3320
   31MOL   H39715457   0.581   1.991   3.417 -0.2321 -2.8594  0.2374
   31MOL   H39815458   0.479   2.080   3.302 -0.6952 -1.2267 -2.9456
   31MOL   H39915459   0.334   2.041   3.477 -3.4426 -0.0411 -3.9475
   31MOL   H40015460   0.293   1.924   3.362  2.9183  0.9132 -3.9175
   31MOL   H40115461   0.390   1.869   3.498  0.7237  0.6980  0.4182
   31MOL   C40215462   0.851   1.294   3.169 -0.6315 -0.1434  0.4986
   31MOL   C40315463   0.910   1.223   3.296 -0.2749 -0.1625 -0.3682
   31MOL   O40415464   0.839   1.285   3.404 -0.2514 -0.5652 -1.0134
   31MOL   C40515465   0.817   1.227   3.531 -0.4901 -0.3842 -0.5567
   31MOL   C40615466   0.736   1.316   3.624 -0.2573  0.2948  0.1129
   31MOL   C40715467   0.607   1.387   3.574  0.3585 -0.2629  0.1836
   31MOL   C40815468   0.516   1.446   3.682 -0.0546 -0.6803 -0.3089
   31MOL   C40915469   0.383   1.506   3.636 -0.2073 -0.7515  0.8566
   31MOL   C41015470   0.300   1.585   3.734  0.5083  0.2988 -0.3189
   31MOL   H41115471   0.873   1.401   3.167 -0.4577 -0.1686  1.0179
   31MOL   H41215472   0.909   1.264   3.081  0.6521  3.5734  0.0018
   31MOL   H41315473   0.872   1.121   3.303  1.1450 -0.8397 -2.1593
   31MOL   H41415474   0.916   1.218   3.576 -0.7452 -0.2345  0.0411
   31MOL   H41515475   0.761   1.134   3.524 -1.8653  0.3273  0.7673
   31MOL   H41615476   0.807   1.392   3.655 -1.9240  2.1593 -0.5337
   31MOL   H41715477   0.703   1.254   3.707  0.6333 -0.4223 -0.0590
   31MOL   H41815478   0.634   1.472   3.511  0.7256 -0.5636 -0.0759
   31MOL   H41915479   0.542   1.322   3.515 -0.0282  0.7719 -0.5390
   31MOL   H42015480   0.492   1.375   3.761 -2.3383  0.8456  0.4406
   31MOL   H42115481   0.559   1.532   3.734  0.2560 -2.1515  1.9342
   31MOL   H42215482   0.398   1.570   3.549 -2.8794  1.1920  1.7619
   31MOL   H42315483   0.321   1.420   3.609 -1.5416  0.9033 -1.5290
   31MOL   H42415484   0.199   1.600   3.698 -1.7649 -4.7688  3.2990
   31MOL   H42515485   0.278   1.528   3.825  0.4923  1.8584  0.6742
   31MOL   H42615486   0.350   1.679   3.757  0.1802  0.0465  1.5259
   31MOL   C42715487   1.063   1.234   3.300 -0.1164  0.1845 -0.4037
   31MOL   C42815488   1.151   1.174   3.404 -0.0305  1.0959 -0.8051
   31MOL   O42915489   1.134   1.030   3.418  0.6079 -0.2406 -0.2228
   31MOL   C43015490   1.157   0.991   3.552  0.4322 -0.4495  0.0248
   31MOL   C43115491   1.122   0.838   3.578  0.1260  0.7877  0.6586
   31MOL   C43215492   0.975   0.789   3.573  0.0244 -0.6490 -0.4068
   31MOL   C43315493   0.966   0.666   3.491 -0.7840  0.1749 -0.2166
   31MOL   C43415494   0.830   0.591   3.515 -0.3836  0.1598  0.3956
   31MOL   C43515495   0.827   0.468   3.432  0.5796 -0.4655 -0.0379
   31MOL   H43615496   1.108   1.195   3.209 -0.6504 -0.3513 -0.4370
   31MOL   H43715497   1.087   1.340   3.306  2.4647 -0.4209  0.8790
   31MOL   H43815498   1.136   1.216   3.504  1.1443  0.7700 -0.4809
   31MOL   H43915499   1.104   1.052   3.625  0.8979 -1.4825  1.2431
   31MOL   H44015500   1.258   1.010   3.587  0.1846  2.1675 -0.6280
   31MOL   H44115501   1.160   0.810   3.676 -0.7135  0.7572  0.9858
   31MOL   H44215502   1.187   0.783   3.511  0.8060  1.1615  1.0020
   31MOL   H44315503   0.945   0.772   3.676  0.4325  2.7320  0.3304
   31MOL   H44415504   0.907   0.857   3.522  0.0768 -0.9164 -0.8385
   31MOL   H44515505   0.976   0.700   3.388  0.9091  2.7423  0.7292
   31MOL   H44615506   1.045   0.597   3.521 -0.0995  1.9506  2.2571
   31MOL   H44715507   0.820   0.567   3.621  1.5796 -0.1714  0.5227
   31MOL   H44815508   0.748   0.659   3.492  0.8420  1.6340  0.2820
   31MOL   H44915509   0.809   0.483   3.325  3.9360 -0.0603 -0.6106
   31MOL   H45015510   0.921   0.415   3.447  0.2548 -0.6378  1.4473
   31MOL   H45115511   0.757   0.392   3.467 -0.6871 -0.3032 -2.1249
   31MOL   C45215512   1.301   1.191   3.369 -0.1508 -0.4277 -0.1661
   31MOL   C45315513   1.366   1.329   3.364 -0.2748 -0.0557  0.2101
   31MOL   O45415514   1.502   1.322   3.337  0.2598  0.2150 -0.1298
   31MOL   C45515515   1.539   1.287   3.206 -0.0298 -0.6606 -0.0600
   31MOL   C45615516   1.686   1.316   3.195 -0.3081  0.4417 -0.5022
   31MOL   C45715517   1.755   1.308   3.057  0.1825 -0.2529 -0.0143
   31MOL   C45815518   1.910   1.327   3.060  0.0513  0.1090 -0.5023
   31MOL   C45915519   1.969   1.305   2.921 -0.2258  0.0294 -0.1040
   31MOL   C46015520   2.122   1.292   2.920  0.4661  0.0694  0.5369
   31MOL   H46115521   1.369   1.147   3.442 -0.9202  1.8743  2.0185
   31MOL   H46215522   1.309   1.133   3.277 -2.7226 -3.0501  1.2010
   31MOL   H46315523   1.319   1.393   3.291  2.1860  1.7725  0.1651
   31MOL   H46415524   1.488   1.330   3.120 -0.3483 -1.2792 -0.1865
   31MOL   H46515525   1.522   1.181   3.183  0.0278 -0.5532 -0.6004
   31MOL   H46615526   1.740   1.250   3.264 -2.8068 -1.7694 -0.5831
   31MOL   H46715527   1.718   1.410   3.241  0.8679 -1.1775  2.1238
   31MOL   H46815528   1.729   1.214   3.007 -1.4222  0.6177 -0.8505
   31MOL   H46915529   1.720   1.387   2.991  0.2717 -1.0474 -1.0270
   31MOL   H47015530   1.930   1.429   3.092 -0.3638 -0.1611  0.6580
   31MOL   H47115531   1.950   1.250   3.126 -0.3255  1.3704  1.2240
   31MOL   H47215532   1.928   1.218   2.869  2.6921 -1.5095  0.0613
   31MOL   H47315533   1.935   1.391   2.864  0.5222  1.6432  1.8354
   31MOL   H47415534   2.164   1.277   2.821 -1.4932 -0.2619 -0.2833
   31MOL   H47515535   2.174   1.383   2.950 -1.7080  1.5782 -0.1513
   31MOL   H47615536   2.158   1.215   2.989 -3.0843 -1.1200  1.1954
   31MOL   C47715537   1.360   1.391   3.501  0.3912 -0.2801  0.1725
   31MOL   C47815538   1.399   1.531   3.507  0.3093 -0.0303 -0.3098
   31MOL   O47915539   1.324   1.582   3.618  0.3767  0.2491  0.6771
   31MOL   C48015540   1.342   1.713   3.651 -0.1030  0.4709  0.1275
   31MOL   C48115541   1.263   1.774   3.772  0.5671  0.4619 -0.0686
   31MOL   C48215542   1.280   1.701   3.899 -0.9995  0.3642  0.0503
   31MOL   C48315543   1.421   1.733   3.960  0.0018 -0.8104 -0.3757
   31MOL   C48415544   1.432   1.716   4.112 -0.2487  0.1298 -0.7896
   31MOL   C48515545   1.361   1.831   4.185  0.0685  0.2628  0.2050
   31MOL   H48615546   1.256   1.377   3.531  0.9985 -0.5109  2.2844
   31MOL   H48715547   1.415   1.333   3.576  1.2338  2.3739  1.6644
   31MOL   H48815548   1.504   1.528   3.535  0.1949  0.8395  0.2294
   31MOL   H48915549   1.325   1.772   3.562  1.8385 -0.0434 -0.6081
   31MOL   H49015550   1.448   1.735   3.664 -0.0249  0.6582 -0.8199
   31MOL   H49115551   1.158   1.763   3.747  0.5679 -0.8928  0.4774
   31MOL   H49215552   1.287   1.880   3.774 -0.7228  0.7610 -0.1855
   31MOL   H49315553   1.199   1.739   3.962 -0.9879  1.2996 -0.4902
   31MOL   H49415554   1.265   1.593   3.894 -1.3067  0.4497 -1.0720
   31MOL   H49515555   1.486   1.664   3.907  1.1131  0.5609 -0.8373
   31MOL   H49615556   1.452   1.833   3.929  2.0467 -0.8460  1.4811
   31MOL   H49715557   1.385   1.622   4.139  0.4156  0.0933  0.2732
   31MOL   H49815558   1.538   1.704   4.133 -0.5471 -2.1862 -0.5559
   31MOL   H49915559   1.396   1.929   4.153  1.9274 -1.0326 -1.8757
   31MOL   H50015560   1.253   1.815   4.178  0.2994 -1.7038  0.6843
   31MOL   H50115561   1.375   1.834   4.293  0.9235  1.8980  0.0518
   31MOL   H50215562   1.370   1.591   3.421 -1.4364 -0.1195  0.1827
   32MOL     C115563   5.656   5.120   2.312  0.0081 -0.1720 -0.6882
   32MOL     C215564   5.551   5.064   2.211  0.6516 -0.0571 -0.5683
   32MOL     O315565   5.548   4.923   2.228 -0.0255 -0.1785 -0.1777
   32MOL     C415566   5.440   4.868   2.304 -0.4577 -0.2215 -0.1246
   32MOL     C515567   5.302   4.876   2.231 -0.4182 -0.3356 -0.0870
   32MOL     C615568   5.285   4.769   2.120 -0.6181 -0.3550  0.2380
   32MOL     C715569   5.149   4.706   2.121 -0.0927  0.1188 -0.4722
   32MOL     C815570   5.114   4.633   1.991 -0.0155 -0.6352 -0.2120
   32MOL     C915571   4.977   4.572   1.991 -0.4639  0.0567 -0.3977
   32MOL    H1015572   5.648   5.227   2.332  1.5417 -0.2489  0.4139
   32MOL    H1115573   5.649   5.073   2.410 -1.4318  2.4570  0.5127
   32MOL    H1215574   5.461   5.109   2.253  1.0159  1.5678 -1.4926
   32MOL    H1315575   5.452   4.912   2.403 -0.6373  1.9469 -1.0445
   32MOL    H1415576   5.461   4.762   2.321  0.2942  0.0147  0.4680
   32MOL    H1515577   5.292   4.970   2.175  0.1406 -1.0782 -1.4803
   32MOL    H1615578   5.224   4.878   2.306 -0.7511  0.0758 -0.4404
   32MOL    H1715579   5.304   4.821   2.027 -0.6590 -2.2747 -0.8773
   32MOL    H1815580   5.364   4.693   2.127 -0.8901 -0.6846 -0.3100
   32MOL    H1915581   5.162   4.637   2.204  2.7455  0.1368 -0.8314
   32MOL    H2015582   5.073   4.784   2.132 -0.1398  0.0309 -0.1717
   32MOL    H2115583   5.190   4.556   1.984 -0.4080 -1.0859  0.5077
   32MOL    H2215584   5.125   4.706   1.910 -0.0042  0.4744  0.7724
   32MOL    H2315585   4.893   4.642   1.992 -0.0982  0.4964  0.0102
   32MOL    H2415586   4.952   4.503   1.910 -0.9340 -0.4176  0.1431
   32MOL    H2515587   4.960   4.523   2.087 -0.1702 -2.4760 -1.5948
   32MOL    H2615588   5.755   5.118   2.267  0.1101 -0.0645 -0.4736
   32MOL    C2715589   5.581   5.103   2.061  0.0432  0.2690  0.1599
   32MOL    C2815590   5.557   5.256   2.030  0.6146  0.8919  0.6633
   32MOL    O2915591   5.665   5.329   2.084  0.0917  0.3872  0.2948
   32MOL    C3015592   5.649   5.463   2.135 -0.5617  0.3923  0.2140
   32MOL    C3115593   5.785   5.493   2.190  0.1644 -0.3717  0.7384
   32MOL    C3215594   5.780   5.633   2.261 -0.4558 -0.1166 -0.6368
   32MOL    C3315595   5.913   5.687   2.315 -0.0533 -0.3142  0.4758
   32MOL    C3415596   5.959   5.605   2.424  0.3002  0.3581 -0.4965
   32MOL    C3515597   6.078   5.657   2.512  0.0636 -0.0262 -0.5903
   32MOL    H3615598   5.685   5.083   2.038 -0.0403 -0.0881  0.0861
   32MOL    H3715599   5.516   5.037   2.002 -2.6099  2.9841 -0.0849
   32MOL    H3815600   5.467   5.291   2.081  1.5446 -0.2704  3.2029
   32MOL    H3915601   5.578   5.465   2.217  0.6166 -1.1332  1.2888
   32MOL    H4015602   5.618   5.535   2.058  1.2740  2.8671  1.7054
   32MOL    H4115603   5.858   5.493   2.108 -2.4743 -0.5146 -1.7108
   32MOL    H4215604   5.801   5.411   2.260 -2.1349 -0.8953  0.6741
   32MOL    H4315605   5.769   5.703   2.179  1.9268  0.6482 -0.3360
   32MOL    H4415606   5.703   5.652   2.335  0.8484 -0.2720  0.7936
   32MOL    H4515607   5.991   5.695   2.238 -0.3870  1.5206  0.3064
   32MOL    H4615608   5.892   5.785   2.357 -1.8848  0.3906 -1.9849
   32MOL    H4715609   5.870   5.584   2.483 -0.0101  0.2447 -1.0028
   32MOL    H4815610   5.991   5.512   2.378 -1.4568 -0.5168  0.0323
   32MOL    H4915611   6.039   5.740   2.571 -1.7412 -1.4045  0.1849
   32MOL    H5015612   6.110   5.572   2.572  0.8904 -0.2959 -1.3887
   32MOL    H5115613   6.167   5.691   2.459  0.8751 -2.5167 -0.8931
   32MOL    C5215614   5.549   5.291   1.877 -0.3474  0.1357  0.2718
   32MOL    C5315615   5.400   5.270   1.817 -0.2662  0.6813  0.4737
   32MOL    O5415616   5.308   5.339   1.906  0.2862 -0.0724  0.1040
   32MOL    C5515617   5.197   5.255   1.935  0.0018  0.3215  0.6395
   32MOL    C5615618   5.084   5.346   1.995  0.6831 -0.0521  0.6353
   32MOL    C5715619   4.944   5.290   1.993  0.2830 -0.4131  0.3240
   32MOL    C5815620   4.911   5.186   2.100  0.2292 -0.1105 -0.2397
   32MOL    C5915621   4.965   5.047   2.077  0.0030 -0.3259 -0.2352
   32MOL    C6015622   4.945   4.986   1.937 -0.7380 -0.2187  0.1641
   32MOL    H6115623   5.624   5.233   1.823 -0.4400  0.7056 -0.4690
   32MOL    H6215624   5.589   5.390   1.860  1.8366 -0.5250  1.2970
   32MOL    H6315625   5.388   5.162   1.810  0.1086  0.6365  0.4897
   32MOL    H6415626   5.231   5.177   2.003  2.6591 -0.3743 -1.4070
   32MOL    H6515627   5.173   5.204   1.842  0.7023 -3.1338  2.2711
   32MOL    H6615628   5.072   5.436   1.935  2.9234  1.2419  2.0792
   32MOL    H6715629   5.105   5.375   2.098 -1.0582 -0.4115  1.1156
   32MOL    H6815630   4.883   5.379   2.006 -0.4108 -0.7523 -0.5590
   32MOL    H6915631   4.929   5.261   1.889  0.3284  1.0110 -0.0851
   32MOL    H7015632   4.929   5.226   2.200 -1.2220 -0.5236  0.2139
   32MOL    H7115633   4.802   5.186   2.108  0.3295 -1.1068  1.3586
   32MOL    H7215634   5.069   5.047   2.110 -0.0532  1.7799  0.0145
   32MOL    H7315635   4.919   4.978   2.148 -0.0982 -2.1508 -2.0460
   32MOL    H7415636   4.976   4.882   1.936 -0.9678 -0.2968 -2.3011
   32MOL    H7515637   4.839   4.984   1.912 -0.6356  0.3458 -0.3377
   32MOL    H7615638   5.003   5.038   1.861  1.9865 -1.5914  1.2286
   32MOL    C7715639   5.383   5.326   1.679  0.4568 -0.0446 -0.0999
   32MOL    C7815640   5.463   5.260   1.561 -0.1984 -0.7004  0.2995
   32MOL    O7915641   5.492   5.359   1.466  0.6298 -0.0335  0.1009
   32MOL    C8015642   5.584   5.463   1.499 -0.0707  0.5181  0.4000
   32MOL    C8115643   5.643   5.529   1.371 -0.4451 -0.3398 -0.1173
   32MOL    C8215644   5.728   5.426   1.293 -0.6494  0.0465 -0.2699
   32MOL    C8315645   5.837   5.495   1.211  0.7823 -0.0783  0.2795
   32MOL    C8415646   5.933   5.391   1.153  0.2232 -0.4999 -0.2163
   32MOL    C8515647   6.045   5.448   1.067 -0.2575 -0.6499  0.0553
   32MOL    H8615648   5.412   5.431   1.687 -0.9137  0.2120  1.8899
   32MOL    H8715649   5.277   5.330   1.653  0.3662 -1.4705  0.0275
   32MOL    H8815650   5.559   5.223   1.599  1.4281  1.8197 -1.2184
   32MOL    H8915651   5.667   5.425   1.560  0.1038  0.9714  0.4437
   32MOL    H9015652   5.542   5.542   1.562 -1.8820 -0.2763  0.2372
   32MOL    H9115653   5.704   5.608   1.413  0.5019 -2.1598  2.0243
   32MOL    H9215654   5.565   5.577   1.312 -2.0280  0.3365  2.4641
   32MOL    H9315655   5.772   5.352   1.360 -1.0706 -1.2336 -1.3959
   32MOL    H9415656   5.662   5.371   1.226 -1.8633 -0.3120  1.1945
   32MOL    H9515657   5.780   5.556   1.141  3.6470  2.1684 -0.2073
   32MOL    H9615658   5.877   5.566   1.283  0.5931 -1.5456  1.8349
   32MOL    H9715659   5.982   5.328   1.228  0.1576 -0.2400  0.0456
   32MOL    H9815660   5.871   5.328   1.089 -1.6377  3.3621 -2.3345
   32MOL    H9915661   6.110   5.516   1.123  0.6580 -2.2842  1.0138
   32MOL   H10015662   6.091   5.363   1.018 -2.3141 -0.4413 -2.3506
   32MOL   H10115663   6.000   5.509   0.989 -0.5070 -0.3905  0.4000
   32MOL   C10215664   5.395   5.144   1.485 -0.3088  0.3163  0.7398
   32MOL   C10315665   5.332   5.019   1.560 -0.7444  0.3049 -0.0007
   32MOL   O10415666   5.243   4.951   1.477 -0.3243  0.2440  0.2126
   32MOL   C10515667   5.121   4.908   1.539  0.5682  0.8661 -0.1950
   32MOL   C10615668   5.019   5.019   1.557 -0.0111 -0.0329  0.0541
   32MOL   C10715669   5.000   5.108   1.429 -0.3118  0.9196 -0.7787
   32MOL   C10815670   4.888   5.203   1.454 -0.3009 -0.3134  0.2208
   32MOL   C10915671   4.904   5.309   1.565 -0.0476  0.0003 -0.0177
   32MOL   C11015672   4.977   5.435   1.528 -0.0410  0.2130 -0.0598
   32MOL   H11115673   5.315   5.190   1.428 -0.4871 -0.3033  0.4848
   32MOL   H11215674   5.455   5.095   1.408 -0.5375  1.2107 -0.0131
   32MOL   H11315675   5.275   5.049   1.648 -2.2806 -0.2147 -0.7956
   32MOL   H11415676   5.127   4.850   1.632  0.4151 -0.9901 -1.3093
   32MOL   H11515677   5.073   4.840   1.469 -0.2725 -0.3173  1.4837
   32MOL   H11615678   5.050   5.075   1.646  2.2261  1.7661 -1.7747
   32MOL   H11715679   4.926   4.974   1.590 -1.5753  3.9100  1.3486
   32MOL   H11815680   5.096   5.157   1.407  0.6459 -0.6593 -0.1793
   32MOL   H11915681   4.981   5.042   1.344  1.8801  0.4898 -0.9778
   32MOL   H12015682   4.844   5.257   1.370 -0.4181 -0.6446  0.0660
   32MOL   H12115683   4.799   5.141   1.465 -0.2730 -0.5592 -0.8927
   32MOL   H12215684   4.807   5.347   1.599 -1.4738 -2.6467 -1.0003
   32MOL   H12315685   4.947   5.276   1.659  1.5353 -0.1458 -0.7900
   32MOL   H12415686   4.937   5.500   1.450 -1.5391 -1.6545 -0.8948
   32MOL   H12515687   4.978   5.509   1.607 -0.2577  0.7675 -0.5728
   32MOL   H12615688   5.078   5.412   1.494 -0.2540 -1.0623  0.1291
   32MOL   C12715689   5.444   4.914   1.603  0.3050  0.1467  0.0410
   32MOL   C12815690   5.432   4.770   1.560 -0.1557  0.2976  0.8433
   32MOL   O12915691   5.515   4.690   1.641  0.2880 -0.0907 -0.2875
   32MOL   C13015692   5.453   4.648   1.761  0.8655 -0.1502 -0.4957
   32MOL   C13115693   5.548   4.612   1.872 -0.8376  0.0326 -0.2624
   32MOL   C13215694   5.635   4.727   1.915 -0.2613  0.2128  0.8004
   32MOL   C13315695   5.732   4.672   2.017  0.1180  0.5225 -0.6580
   32MOL   C13415696   5.834   4.772   2.064  0.3775  0.0798  0.0181
   32MOL   C13515697   5.912   4.705   2.178 -0.5818 -0.1494  0.2076
   32MOL   H13615698   5.536   4.961   1.568  0.4114  0.6073  0.9055
   32MOL   H13715699   5.458   4.926   1.711 -0.3648  1.8802 -0.0474
   32MOL   H13815700   5.334   4.723   1.567  0.5450 -1.2901  0.2718
   32MOL   H13915701   5.385   4.568   1.731  0.6724 -0.5767  1.0266
   32MOL   H14015702   5.381   4.722   1.797  2.4905  1.4924 -0.6026
   32MOL   H14115703   5.626   4.542   1.843  0.1984  1.1091 -0.1248
   32MOL   H14215704   5.489   4.581   1.958  0.6532 -1.8880  0.0872
   32MOL   H14315705   5.679   4.779   1.830  1.7411 -1.7348  0.6108
   32MOL   H14415706   5.571   4.804   1.958 -0.3092 -0.7146  2.4289
   32MOL   H14515707   5.670   4.646   2.103 -1.5026  0.3391 -1.8662
   32MOL   H14615708   5.771   4.573   1.996 -1.3078 -0.0106 -0.8285
   32MOL   H14715709   5.903   4.796   1.983 -0.8181  2.4462 -0.3423
   32MOL   H14815710   5.802   4.870   2.101  1.9250  0.3135  0.7769
   32MOL   H14915711   5.845   4.688   2.263  0.3433  0.2981  1.0248
   32MOL   H15015712   5.945   4.603   2.156 -0.7621 -0.2332  0.3118
   32MOL   H15115713   5.999   4.767   2.198 -0.8001 -0.2351  1.5085
   32MOL   C15215714   5.498   4.743   1.423  0.2631 -0.1812  0.3799
   32MOL   C15315715   5.407   4.733   1.300 -0.3976 -0.1503  0.3399
   32MOL   O15415716   5.487   4.698   1.182 -0.1474 -0.4767 -0.3583
   32MOL   C15515717   5.579   4.792   1.136  1.1122 -0.4172 -0.3705
   32MOL   C15615718   5.525   4.935   1.104 -0.0569 -1.1921 -0.0673
   32MOL   C15715719   5.630   5.022   1.033 -0.2380 -0.0521 -0.1552
   32MOL   C15815720   5.563   5.159   1.008 -0.3316 -0.8129 -0.0325
   32MOL   C15915721   5.448   5.162   0.903 -0.6132 -0.2072  0.4675
   32MOL   C16015722   5.297   5.162   0.944  0.2275  0.2855  1.0727
   32MOL   H16115723   5.573   4.820   1.405 -0.7336  0.8007  0.4261
   32MOL   H16215724   5.559   4.653   1.424 -0.4165 -0.6379  2.2237
   32MOL   H16315725   5.369   4.834   1.285 -0.6841 -0.0254  1.7945
   32MOL   H16415726   5.618   4.743   1.047  1.0423 -1.1366 -0.0056
   32MOL   H16515727   5.661   4.787   1.208 -0.1199 -0.6190  1.0318
   32MOL   H16615728   5.481   4.983   1.191  1.9157 -0.6740  0.6638
   32MOL   H16715729   5.443   4.923   1.032  0.3418  1.6129 -1.0307
   32MOL   H16815730   5.724   5.027   1.089 -1.3979  1.7162  1.6780
   32MOL   H16915731   5.660   4.971   0.941  0.1861  0.2792 -0.2008
   32MOL   H17015732   5.525   5.189   1.106  0.4124  0.5409 -0.1503
   32MOL   H17115733   5.629   5.239   0.975  1.3539 -1.8006  0.8410
   32MOL   H17215734   5.452   5.250   0.838 -0.3165  0.7256  1.7324
   32MOL   H17315735   5.460   5.077   0.836 -1.4665 -1.5015  1.9281
   32MOL   H17415736   5.281   5.222   1.034 -2.4448 -0.4496  1.1164
   32MOL   H17515737   5.236   5.206   0.865 -0.4557  0.2640  1.5867
   32MOL   H17615738   5.264   5.060   0.963 -0.3942  0.3110  0.1745
   32MOL   C17715739   5.294   4.634   1.291  0.1589 -0.4701  0.2658
   32MOL   C17815740   5.208   4.651   1.157 -0.2719 -0.0758 -0.4702
   32MOL   O17915741   5.129   4.540   1.148 -0.0335  0.8308 -0.6113
   32MOL   C18015742   5.126   4.475   1.023  0.0687 -0.0943 -0.1075
   32MOL   C18115743   5.029   4.356   1.008 -0.4789 -0.3171 -0.0756
   32MOL   C18215744   5.063   4.232   1.092  0.0928  0.5234  0.6155
   32MOL   C18315745   4.984   4.100   1.069 -0.2249 -0.1847 -0.3372
   32MOL   C18415746   5.047   3.972   1.131  0.0269 -0.1740 -0.1926
   32MOL   C18515747   5.099   3.985   1.275 -0.3862 -0.5980  0.2915
   32MOL   H18615748   5.342   4.537   1.284 -3.3382 -2.2105 -0.9293
   32MOL   H18715749   5.232   4.625   1.380 -1.2434 -1.3199 -0.7608
   32MOL   H18815750   5.270   4.665   1.069  1.9476  1.9786  1.3355
   32MOL   H18915751   5.225   4.441   0.993  1.0407  1.5469  1.2208
   32MOL   H19015752   5.109   4.542   0.939  0.6987  0.8468  0.5205
   32MOL   H19115753   5.049   4.329   0.904 -3.7518  1.1468 -1.1515
   32MOL   H19215754   4.924   4.384   1.002 -0.9083 -1.7491  0.6373
   32MOL   H19315755   5.163   4.221   1.051 -1.1788 -1.0165 -2.2056
   32MOL   H19415756   5.069   4.262   1.197  1.1252 -0.9977  1.0124
   32MOL   H19515757   4.884   4.120   1.108 -0.0248  0.4598 -0.1470
   32MOL   H19615758   4.964   4.080   0.963 -2.2225 -1.1778  0.2144
   32MOL   H19715759   4.969   3.896   1.135 -0.1504  0.0631  1.2726
   32MOL   H19815760   5.127   3.933   1.069  0.0271 -2.6742  1.3109
   32MOL   H19915761   5.020   4.023   1.340 -0.0489 -0.1053  0.4184
   32MOL   H20015762   5.159   3.903   1.314  2.1936  0.9640 -0.2635
   32MOL   H20115763   5.169   4.068   1.291 -1.0686 -0.2949  1.7767
   32MOL   C20215764   5.123   4.780   1.166  0.0677 -0.4833  0.1446
   32MOL   C20315765   5.048   4.826   1.037 -0.2736  1.5669  0.3434
   32MOL   O20415766   5.149   4.842   0.933  0.3903 -0.4985  0.3435
   32MOL   C20515767   5.103   4.820   0.794  0.0708 -0.3171 -0.4385
   32MOL   C20615768   5.211   4.861   0.697 -0.3271 -0.3802  0.4008
   32MOL   C20715769   5.331   4.763   0.720  0.4796 -0.7599 -0.3257
   32MOL   C20815770   5.444   4.784   0.621 -0.4862 -0.9056  0.9598
   32MOL   C20915771   5.536   4.669   0.607 -0.2817  0.4657 -0.5691
   32MOL   C21015772   5.617   4.672   0.738 -0.5586 -0.4885 -0.2982
   32MOL   H21115773   5.048   4.761   1.243  0.2813 -0.7278  0.2937
   32MOL   H21215774   5.190   4.860   1.195 -1.2709  1.5659 -2.1561
   32MOL   H21315775   4.967   4.761   1.004 -1.5500  1.4644  3.5283
   32MOL   H21415776   5.011   4.874   0.772  1.2775  0.7170 -3.1638
   32MOL   H21515777   5.074   4.715   0.780  1.7163 -0.5665 -2.0871
   32MOL   H21615778   5.226   4.966   0.722 -2.6499  0.9268 -3.2315
   32MOL   H21715779   5.162   4.849   0.600 -0.0078 -0.3484  0.2353
   32MOL   H21815780   5.363   4.788   0.821  0.3776  2.8818 -1.1436
   32MOL   H21915781   5.286   4.664   0.708 -2.0450  0.4514 -1.1656
   32MOL   H22015782   5.395   4.786   0.523  2.2931  0.3352 -0.4536
   32MOL   H22115783   5.489   4.881   0.638 -2.1210 -0.3058  2.0403
   32MOL   H22215784   5.479   4.578   0.592  0.5720 -0.4823  1.6977
   32MOL   H22315785   5.595   4.673   0.516 -0.0674 -1.7357 -0.5410
   32MOL   H22415786   5.686   4.757   0.741 -0.6879 -0.4104  1.6519
   32MOL   H22515787   5.561   4.680   0.832  0.7559 -1.8179  0.6182
   32MOL   H22615788   5.673   4.579   0.748 -0.7785 -0.5006  0.9642
   32MOL   C22715789   4.976   4.959   1.065 -0.0303 -0.0194  0.6245
   32MOL   C22815790   4.824   4.928   1.090 -0.1996 -0.3187  0.2568
   32MOL   O22915791   4.823   4.846   1.205 -0.2079 -0.9891 -0.7673
   32MOL   C23015792   4.729   4.732   1.214 -0.5106 -0.2024  0.0128
   32MOL   C23115793   4.716   4.671   1.356  0.1421  0.4297 -1.2388
   32MOL   C23215794   4.670   4.783   1.448 -0.5751  0.0719 -0.6031
   32MOL   C23315795   4.640   4.729   1.592  0.5779 -0.4144  0.1698
   32MOL   C23415796   4.546   4.816   1.669  0.2633 -0.2304 -0.1967
   32MOL   C23515797   4.611   4.926   1.754 -0.1424 -1.0123 -0.3110
   32MOL   H23615798   5.014   5.034   1.134 -1.0404  3.4056 -2.3896
   32MOL   H23715799   4.976   5.009   0.969  1.4534 -2.6664 -0.8243
   32MOL   H23815800   4.782   4.871   1.008  3.5822 -2.4241 -0.3235
   32MOL   H23915801   4.762   4.657   1.142  2.3764 -0.4699  1.5260
   32MOL   H24015802   4.628   4.762   1.186 -0.9940 -2.0931 -0.3359
   32MOL   H24115803   4.812   4.637   1.395 -0.2294 -1.2857 -1.7573
   32MOL   H24215804   4.646   4.589   1.339  0.3336  0.7114 -3.5603
   32MOL   H24315805   4.744   4.862   1.459  0.1363 -0.5498 -0.8975
   32MOL   H24415806   4.577   4.824   1.408 -0.0126  2.4895  0.4822
   32MOL   H24515807   4.590   4.632   1.584 -0.4667  0.2206 -1.1546
   32MOL   H24615808   4.730   4.706   1.649  0.3058 -0.2836  0.6511
   32MOL   H24715809   4.467   4.848   1.601 -1.0604 -0.3008  1.2828
   32MOL   H24815810   4.504   4.755   1.749  1.6798  0.0310  0.7730
   32MOL   H24915811   4.530   4.987   1.794  0.5151  1.2804 -2.2947
   32MOL   H25015812   4.677   4.895   1.835  0.8698 -0.0898 -0.7608
   32MOL   H25115813   4.659   5.003   1.693 -0.5437 -1.0459 -0.6730
   32MOL   C25215814   4.742   5.054   1.121  0.9411  0.0017  0.3186
   32MOL   C25315815   4.716   5.144   0.991 -0.3311  0.1021  0.3983
   32MOL   O25415816   4.707   5.280   1.026  0.0731 -0.5345 -0.0472
   32MOL   C25515817   4.843   5.340   1.033  0.2389 -0.6311  0.0788
   32MOL   C25615818   4.839   5.483   1.082  0.2199  0.5133  0.5053
   32MOL   C25715819   4.978   5.543   1.086  0.7914  0.3571  0.5180
   32MOL   C25815820   5.097   5.452   1.142 -0.1031 -0.3851 -0.2575
   32MOL   C25915821   5.232   5.534   1.167  0.5905  0.6754 -0.4477
   32MOL   C26015822   5.311   5.574   1.045  0.0324 -0.6385  0.0320
   32MOL   H26115823   4.644   5.030   1.164  0.4477  1.4175  0.0202
   32MOL   H26215824   4.796   5.115   1.194  0.1161 -1.5597  2.2865
   32MOL   H26315825   4.790   5.134   0.912 -2.2826  3.6083 -2.0011
   32MOL   H26415826   4.897   5.342   0.938  1.0462  1.7665  0.5583
   32MOL   H26515827   4.895   5.278   1.107 -1.8506 -0.2062  1.9632
   32MOL   H26615828   4.800   5.493   1.183  1.4653 -0.8453  1.1269
   32MOL   H26715829   4.770   5.538   1.018  1.3497  0.8995 -0.3967
   32MOL   H26815830   5.019   5.581   0.993 -0.3369 -1.7526 -0.8696
   32MOL   H26915831   4.963   5.629   1.152 -1.8868  0.3835 -0.0739
   32MOL   H27015832   5.069   5.405   1.236 -1.7903  0.8649 -0.1029
   32MOL   H27115833   5.123   5.373   1.070  2.4962  0.6071 -0.4504
   32MOL   H27215834   5.216   5.625   1.225 -1.4685 -0.1586  0.3407
   32MOL   H27315835   5.299   5.476   1.230 -0.5060 -1.9758 -1.6775
   32MOL   H27415836   5.250   5.611   0.963 -2.2424 -1.6917  1.1767
   32MOL   H27515837   5.393   5.638   1.076 -0.8654  1.3929 -1.7447
   32MOL   H27615838   5.364   5.486   1.009  0.9957 -0.5450  1.1729
   32MOL   C27715839   4.580   5.116   0.930  0.3759 -0.6383  0.8389
   32MOL   C27815840   4.549   4.976   0.867  0.0344 -1.0395  0.1483
   32MOL   O27915841   4.406   4.972   0.871  0.0163  0.1137 -0.0741
   32MOL   C28015842   4.349   4.904   0.984 -0.5167 -0.0574  0.1603
   32MOL   C28115843   4.319   4.761   0.939 -0.4586  0.6065 -0.0686
   32MOL   C28215844   4.219   4.741   0.826 -0.3357 -0.3692  0.0187
   32MOL   C28315845   4.191   4.598   0.782 -0.1001  0.2051  1.0339
   32MOL   C28415846   4.101   4.600   0.662  0.4818  0.2621 -0.2486
   32MOL   C28515847   4.042   4.461   0.616 -0.0645  0.0598  0.1786
   32MOL   H28615848   4.508   5.132   1.009  1.2552 -1.4031  1.8194
   32MOL   H28715849   4.574   5.188   0.849 -1.5336 -1.7705 -0.0409
   32MOL   H28815850   4.588   4.890   0.921  2.1020  0.9575  1.9587
   32MOL   H28915851   4.253   4.953   1.000 -0.2001  0.5173  0.3479
   32MOL   H29015852   4.411   4.917   1.073  0.4339  2.2392 -0.7989
   32MOL   H29115853   4.265   4.717   1.022 -0.5853 -1.6730 -1.3079
   32MOL   H29215854   4.414   4.708   0.927 -0.2797  0.6724  1.0213
   32MOL   H29315855   4.127   4.799   0.835  0.7152  1.4016 -0.5179
   32MOL   H29415856   4.267   4.788   0.741 -1.0978 -2.6832 -1.7375
   32MOL   H29515857   4.280   4.554   0.737 -1.5956  0.2537 -2.0857
   32MOL   H29615858   4.144   4.543   0.864 -3.0192  2.7078  1.1554
   32MOL   H29715859   4.017   4.665   0.688  0.5356 -0.5811  2.1366
   32MOL   H29815860   4.153   4.653   0.583  1.1074  1.3861  0.8907
   32MOL   H29915861   4.030   4.404   0.708  0.0193  2.5942  1.8091
   32MOL   H30015862   3.944   4.466   0.570 -1.2190 -1.8091  2.2948
   32MOL   H30115863   4.115   4.408   0.554 -0.1038  0.5801 -0.3117
   32MOL   C30215864   4.602   4.981   0.726 -0.3445  0.3549  0.1715
   32MOL   C30315865   4.586   4.851   0.653 -0.0356  0.0890  0.2055
   32MOL   O30415866   4.703   4.771   0.698  0.5863  0.2335  0.1561
   32MOL   C30515867   4.692   4.628   0.678 -0.7379 -0.0342  0.1537
   32MOL   C30615868   4.614   4.551   0.784  0.0723 -0.1400 -0.3364
   32MOL   C30715869   4.650   4.400   0.788 -0.0835  0.2657 -0.3578
   32MOL   C30815870   4.572   4.322   0.893 -0.3811 -0.1537 -0.6546
   32MOL   C30915871   4.612   4.173   0.898 -0.6059  0.0518 -0.3099
   32MOL   C31015872   4.523   4.087   0.981  0.5669 -0.5180 -0.2628
   32MOL   H31115873   4.537   5.051   0.674 -0.8089 -0.2598 -0.0905
   32MOL   H31215874   4.703   5.023   0.720 -0.3096  0.0983 -1.2690
   32MOL   H31315875   4.491   4.814   0.691 -1.3858  0.5612 -2.5937
   32MOL   H31415876   4.798   4.602   0.688 -0.0907  2.5481  0.3021
   32MOL   H31515877   4.672   4.598   0.575 -0.2230  0.1441 -0.0010
   32MOL   H31615878   4.508   4.557   0.760  0.3595  0.2817 -1.5324
   32MOL   H31715879   4.631   4.580   0.888 -0.1853 -0.0688 -0.3154
   32MOL   H31815880   4.637   4.335   0.701 -3.5859  0.5693 -0.1131
   32MOL   H31915881   4.753   4.406   0.824 -0.7985 -2.4285  2.3063
   32MOL   H32015882   4.582   4.371   0.990  0.2358 -2.0107  0.2393
   32MOL   H32115883   4.467   4.333   0.864 -0.0778  1.5976 -1.1401
   32MOL   H32215884   4.613   4.132   0.797 -1.3536  2.2525 -1.2549
   32MOL   H32315885   4.718   4.173   0.922 -1.0619 -1.5804  1.8667
   32MOL   H32415886   4.425   4.060   0.940  0.4074 -0.0723 -0.1813
   32MOL   H32515887   4.570   3.990   0.996  1.4968  0.1725  1.4691
   32MOL   H32615888   4.489   4.142   1.069  1.5988 -0.0744 -0.1455
   32MOL   C32715889   4.580   4.874   0.501 -0.2599 -0.2918  0.2456
   32MOL   C32815890   4.698   4.938   0.421 -0.7671  0.1076  0.3924
   32MOL   O32915891   4.694   5.071   0.466  0.4456 -0.5287 -0.5356
   32MOL   C33015892   4.633   5.173   0.381 -0.1311  0.7238 -0.1773
   32MOL   C33115893   4.658   5.310   0.430 -0.2196  0.1635  0.6830
   32MOL   C33215894   4.591   5.328   0.568 -0.7022 -0.1372  0.6821
   32MOL   C33315895   4.594   5.475   0.615  0.2025 -0.0686 -0.6343
   32MOL   C33415896   4.728   5.520   0.659  0.1204 -0.5595  0.9065
   32MOL   C33515897   4.725   5.668   0.673 -0.1692  0.5166 -0.0536
   32MOL   H33615898   4.483   4.918   0.478 -1.5747 -2.6107  1.2745
   32MOL   H33715899   4.572   4.770   0.470  0.4158 -0.3584  0.2859
   32MOL   H33815900   4.678   4.921   0.315  0.6326  0.3734  0.0770
   32MOL   H33915901   4.525   5.163   0.382 -0.3476  2.3872  4.9616
   32MOL   H34015902   4.667   5.149   0.280 -0.9950  0.7265 -0.4689
   32MOL   H34115903   4.616   5.393   0.374  0.9359  1.6226  1.9344
   32MOL   H34215904   4.767   5.318   0.434 -0.0228 -1.6459 -0.4375
   32MOL   H34315905   4.486   5.305   0.547 -0.4799 -0.3319 -0.2080
   32MOL   H34415906   4.630   5.265   0.648  2.1163  3.0913  1.9347
   32MOL   H34515907   4.556   5.541   0.537 -1.4189  1.4872  1.3710
   32MOL   H34615908   4.527   5.476   0.702  0.8575  2.5474 -0.1134
   32MOL   H34715909   4.751   5.462   0.748  1.4456  0.4474  1.2331
   32MOL   H34815910   4.799   5.487   0.583 -1.8345 -1.0307 -0.7513
   32MOL   H34915911   4.657   5.706   0.749 -0.1025 -1.7253  1.1773
   32MOL   H35015912   4.822   5.699   0.712 -0.3770  0.7005  0.3179
   32MOL   H35115913   4.704   5.729   0.585 -2.6662 -0.3156 -0.0708
   32MOL   C35215914   4.837   4.874   0.438 -0.0615  0.6540  0.2076
   32MOL   C35315915   4.942   4.912   0.328  0.1309 -0.1716  0.0746
   32MOL   O35415916   5.043   4.813   0.351  0.1645 -1.4522  0.1763
   32MOL   C35515917   5.027   4.698   0.274  0.4302 -0.2721  0.1262
   32MOL   C35615918   5.127   4.602   0.327  0.2058 -0.0800  0.0987
   32MOL   C35715919   5.104   4.557   0.475  0.0539 -0.2354  0.0325
   32MOL   C35815920   5.033   4.422   0.489  0.5167  0.1517 -0.5735
   32MOL   C35915921   5.012   4.374   0.640 -0.1141 -1.0957  0.0222
   32MOL   C36015922   4.946   4.242   0.656  0.0874 -0.3398 -0.7405
   32MOL   H36115923   4.880   4.897   0.535  0.0611  0.5773  0.1711
   32MOL   H36215924   4.820   4.766   0.437  1.2984  0.4230  1.4760
   32MOL   H36315925   4.902   4.889   0.230  1.5113 -0.9780 -0.3246
   32MOL   H36415926   5.059   4.721   0.172 -1.0649  3.1567  0.3763
   32MOL   H36515927   4.929   4.651   0.278  0.4967 -0.6658 -1.9203
   32MOL   H36615928   5.224   4.650   0.310 -0.1964 -0.4331 -3.8291
   32MOL   H36715929   5.125   4.514   0.262  0.5819 -0.4085  0.5290
   32MOL   H36815930   5.202   4.552   0.523  0.3427 -0.1360 -0.5472
   32MOL   H36915931   5.052   4.638   0.526 -0.0633  1.3751 -2.5360
   32MOL   H37015932   4.936   4.416   0.439  0.9508  0.0190 -1.3958
   32MOL   H37115933   5.096   4.345   0.445 -1.4551 -0.6647 -2.0370
   32MOL   H37215934   5.110   4.371   0.687 -0.2391 -0.0252  0.3624
   32MOL   H37315935   4.962   4.448   0.703  1.1784 -0.0152 -0.2022
   32MOL   H37415936   4.965   4.196   0.753  1.2131  1.7481  0.0618
   32MOL   H37515937   4.839   4.246   0.634 -0.1841  3.1635  0.8248
   32MOL   H37615938   4.982   4.174   0.580  0.2734 -1.3140  0.2031
   32MOL   C37715939   4.994   5.053   0.339 -0.5314  0.1209 -0.6963
   32MOL   C37815940   5.078   5.089   0.217 -0.5033  0.6246  1.3002
   32MOL   O37915941   5.168   5.194   0.246 -0.2671  1.0645 -0.2538
   32MOL   C38015942   5.281   5.147   0.320 -1.4099  0.3295 -0.3839
   32MOL   C38115943   5.395   5.244   0.287 -0.4573 -0.0960 -0.2565
   32MOL   C38215944   5.526   5.222   0.371  0.2023 -0.0422  0.2176
   32MOL   C38315945   5.577   5.083   0.366  0.0221 -0.8654 -0.3856
   32MOL   C38415946   5.708   5.073   0.434 -0.0907  0.0999  0.1752
   32MOL   C38515947   5.795   4.950   0.381  0.4822  0.6543 -0.2594
   32MOL   H38615948   4.916   5.128   0.351 -0.5666  0.1174 -0.8919
   32MOL   H38715949   5.047   5.059   0.434 -0.3348 -3.0823 -0.5610
   32MOL   H38815950   5.134   5.005   0.176 -1.1830  1.7797 -2.1319
   32MOL   H38915951   5.310   5.043   0.301  0.0261  0.3945  1.3175
   32MOL   H39015952   5.253   5.155   0.425 -0.7384  1.7668 -0.3140
   32MOL   H39115953   5.360   5.344   0.312 -3.4271 -1.5794  1.7627
   32MOL   H39215954   5.410   5.238   0.179  1.2561  0.7649 -0.0940
   32MOL   H39315955   5.598   5.299   0.344 -0.5574  0.7034  0.3321
   32MOL   H39415956   5.500   5.231   0.476 -0.5971  2.1521 -0.1493
   32MOL   H39515957   5.519   5.004   0.413  0.2338  0.0519  1.4576
   32MOL   H39615958   5.579   5.061   0.259 -0.1572 -2.3918 -0.0842
   32MOL   H39715959   5.767   5.163   0.413 -3.0826  2.5519  1.9342
   32MOL   H39815960   5.693   5.073   0.541 -0.8806  1.1473  0.0673
   32MOL   H39915961   5.760   4.853   0.418  0.2313  1.6234  2.1342
   32MOL   H40015962   5.811   4.952   0.274  1.4863  1.7845 -0.1042
   32MOL   H40115963   5.894   4.958   0.425 -0.1415 -0.7020  1.4505
   32MOL   C40215964   4.982   5.142   0.109  0.4321 -0.0776  0.4145
   32MOL   C40315965   5.058   5.172   7.750  0.1582  0.1214 -0.6445
   32MOL   O40415966   4.954   5.198   7.659  0.4028  0.3318 -0.8048
   32MOL   C40515967   4.925   5.338   7.650  0.4013 -0.1471  0.5301
   32MOL   C40615968   4.827   5.364   7.535  0.8580 -0.0537  0.1186
   32MOL   C40715969   4.712   5.258   7.540  0.5227  0.4625 -0.1871
   32MOL   C40815970   4.599   5.273   7.427 -0.0107 -0.3099 -0.4933
   32MOL   C40915971   4.653   5.275   7.287 -0.0256 -0.6717  0.0877
   32MOL   C41015972   4.705   5.138   7.241 -0.1742 -0.0112 -0.1118
   32MOL   H41115973   4.938   5.233   0.149 -0.2064 -0.0967 -0.2373
   32MOL   H41215974   4.896   5.082   0.080 -0.1224 -0.0438  1.9593
   32MOL   H41315975   5.117   5.263   7.766  2.1662 -1.4704  1.3232
   32MOL   H41415976   5.009   5.406   7.640  0.7840 -0.9956 -2.6794
   32MOL   H41515977   4.869   5.362   7.741 -0.7237  1.5809 -0.5817
   32MOL   H41615978   4.885   5.336   7.447 -0.8031 -0.4681 -0.8482
   32MOL   H41715979   4.793   5.467   7.533  1.1322  0.1303  2.9443
   32MOL   H41815980   4.745   5.155   7.550 -0.8464  0.0582  0.2406
   32MOL   H41915981   4.660   5.258   7.635  0.3824  0.9502 -0.2604
   32MOL   H42015982   4.516   5.204   7.444  0.2209  0.0180  2.2466
   32MOL   H42115983   4.543   5.367   7.435 -0.2166 -0.3731 -1.1002
   32MOL   H42215984   4.574   5.298   7.215  0.6477  0.7472 -0.2108
   32MOL   H42315985   4.729   5.352   7.278 -0.8052  0.1383  0.3282
   32MOL   H42415986   4.738   5.148   7.137  0.0079  0.3272 -0.0224
   32MOL   H42515987   4.796   5.113   7.296 -0.2479 -0.5653 -0.2343
   32MOL   H42615988   4.644   5.049   7.256  1.2674 -1.1761 -0.9052
   32MOL   C42715989   5.150   5.064   7.691 -0.4873 -0.2845  0.1024
   32MOL   C42815990   5.214   5.102   7.556 -0.4936  0.4251 -0.0189
   32MOL   O42915991   5.332   5.013   7.544  0.3969  0.0409  0.2184
   32MOL   C43015992   5.449   5.071   7.597  0.3978  0.0304 -0.1567
   32MOL   C43115993   5.572   4.992   7.562  0.1461 -0.1440  0.3306
   32MOL   C43215994   5.606   4.980   7.410  0.3656  0.1608 -0.3471
   32MOL   C43315995   5.647   5.103   7.332  0.2240 -0.0941  0.2212
   32MOL   C43415996   5.646   5.082   7.182 -0.0383 -0.3965  0.6266
   32MOL   C43515997   5.685   5.204   7.105 -0.4090 -0.6233 -0.0802
   32MOL   H43615998   5.229   5.047   7.764  1.6913 -2.9315 -2.7700
   32MOL   H43715999   5.093   4.972   7.677 -2.0917  0.7824 -0.5789
   32MOL   H43816000   5.238   5.208   7.551 -0.5689  0.4281 -0.3217
   32MOL   H43916001   5.439   5.094   7.703 -1.4712  1.7752 -0.6838
   32MOL   H44016002   5.468   5.162   7.540  2.1681 -1.5548 -2.2114
   32MOL   H44116003   5.550   4.898   7.613 -1.2308  0.4887  0.9393
   32MOL   H44216004   5.660   5.030   7.612 -0.7816  0.8855  1.2151
   32MOL   H44316005   5.690   4.911   7.397  0.1673 -0.7660  2.8068
   32MOL   H44416006   5.526   4.924   7.362 -0.9305  1.5324  0.1888
   32MOL   H44516007   5.579   5.184   7.358  1.0840  0.9529 -0.8044
   32MOL   H44616008   5.736   5.146   7.377 -0.2055  1.8331 -0.7195
   32MOL   H44716009   5.720   5.004   7.166  0.6189  0.3015  0.2506
   32MOL   H44816010   5.550   5.040   7.150 -0.2689 -0.1318  0.9652
   32MOL   H44916011   5.784   5.232   7.140 -0.0410 -1.1008 -0.7233
   32MOL   H45016012   5.666   5.201   6.997 -0.5456  1.1543 -0.1138
   32MOL   H45116013   5.618   5.289   7.118 -1.4980 -0.8159 -3.6958
   32MOL   C45216014   5.131   5.047   7.436  0.2949 -0.3389  0.2258
   32MOL   C45316015   5.183   5.102   7.304 -0.1757 -0.3786  0.4663
   32MOL   O45416016   5.116   5.218   7.275  0.7976 -0.4124 -0.4991
   32MOL   C45516017   5.175   5.312   7.198  0.2614  0.4702 -0.0630
   32MOL   C45616018   5.073   5.425   7.157 -0.0683 -0.4579 -0.0183
   32MOL   C45716019   4.983   5.368   7.047  0.4068 -0.0151  0.4778
   32MOL   C45816020   4.877   5.464   6.979  0.2311  0.1465 -0.5960
   32MOL   C45916021   4.835   5.412   6.846  0.1329  0.3481  0.1110
   32MOL   C46016022   4.708   5.488   6.793  0.1517  0.1895 -0.1589
   32MOL   H46116023   5.126   4.938   7.441 -0.5810 -0.2316  2.1041
   32MOL   H46216024   5.028   5.077   7.451  0.3539  0.8229 -1.5933
   32MOL   H46316025   5.290   5.121   7.315 -0.2014  0.0403  0.0237
   32MOL   H46416026   5.215   5.273   7.105 -1.0263  0.7888 -0.7558
   32MOL   H46516027   5.253   5.366   7.253 -0.5603  1.2268  0.3700
   32MOL   H46616028   5.119   5.512   7.112  1.1757 -0.8225  0.5165
   32MOL   H46716029   5.010   5.447   7.243 -1.4788 -0.9553 -0.8920
   32MOL   H46816030   5.058   5.337   6.974  1.0735 -1.3200  1.6934
   32MOL   H46916031   4.928   5.281   7.081 -1.2897  0.5443 -0.7649
   32MOL   H47016032   4.791   5.478   7.045  0.3254  0.2824 -0.5014
   32MOL   H47116033   4.918   5.564   6.966 -1.9579  0.9669 -1.5140
   32MOL   H47216034   4.926   5.422   6.786 -1.3059  3.0757 -1.7486
   32MOL   H47316035   4.802   5.308   6.849 -1.2229  0.7782  0.2952
   32MOL   H47416036   4.742   5.589   6.770 -0.6401  0.0053 -2.1735
   32MOL   H47516037   4.669   5.454   6.697 -0.8582  0.8366  0.0141
   32MOL   H47616038   4.622   5.487   6.859  0.4004 -0.1628  0.1633
   32MOL   C47716039   5.161   5.008   7.185 -0.8208  0.0186  0.7788
   32MOL   C47816040   5.277   4.903   7.181  0.1057 -0.5445 -0.0092
   32MOL   O47916041   5.260   4.822   7.064 -0.8598 -0.3879  0.6280
   32MOL   C48016042   5.333   4.698   7.076  0.4488  0.4697 -0.4689
   32MOL   C48116043   5.334   4.610   6.950  0.7217 -0.8761  0.0184
   32MOL   C48216044   5.198   4.552   6.909  0.2269 -0.2494 -0.1236
   32MOL   C48316045   5.169   4.413   6.975  0.4443 -0.4486  0.4330
   32MOL   C48416046   5.059   4.334   6.901 -0.9931 -0.2627  0.2800
   32MOL   C48516047   5.089   4.294   6.754 -0.5709 -0.2679 -0.6031
   32MOL   H48616048   5.056   4.978   7.187 -0.0592 -2.9699 -1.2084
   32MOL   H48716049   5.173   5.063   7.092  2.1216 -1.5746  0.1289
   32MOL   H48816050   5.377   4.946   7.180 -0.3581  0.6009 -3.2329
   32MOL   H48916051   5.296   4.636   7.157  0.4605  1.7074  0.5001
   32MOL   H49016052   5.436   4.715   7.104  0.9771 -0.8332 -1.5556
   32MOL   H49116053   5.412   4.534   6.956  1.5122 -0.1293 -0.6370
   32MOL   H49216054   5.374   4.680   6.877  0.2879  1.4221  1.9390
   32MOL   H49316055   5.120   4.624   6.934  1.4610  1.0471  0.0007
   32MOL   H49416056   5.191   4.546   6.800 -0.4153 -1.6287 -0.0245
   32MOL   H49516057   5.260   4.357   6.991 -0.7445 -2.2264  1.1669
   32MOL   H49616058   5.129   4.434   7.075  0.1612  1.3686 -0.0382
   32MOL   H49716059   5.045   4.239   6.952  0.5778  0.9807  3.1726
   32MOL   H49816060   4.967   4.390   6.884 -0.2566  0.4835 -1.4928
   32MOL   H49916061   5.189   4.253   6.741 -0.6356 -1.4081  2.0792
   32MOL   H50016062   5.017   4.212   6.745 -2.0506  0.6864  1.9306
   32MOL   H50116063   5.070   4.372   6.680  0.4483  0.4432 -0.1216
   32MOL   H50216064   5.265   4.844   7.272 -0.1840  0.8793  0.8884
   33MOL     C116065   6.794   1.811   0.611  0.6822  0.7334 -0.2525
   33MOL     C216066   6.650   1.827   0.568 -0.0562  0.2118  0.1033
   33MOL     O316067   6.595   1.704   0.609 -0.2520  0.3033  0.0637
   33MOL     C416068   6.509   1.702   0.721  0.3821 -0.0844 -0.6489
   33MOL     C516069   6.450   1.557   0.738 -0.5791 -0.1429  0.2697
   33MOL     C616070   6.320   1.548   0.821 -0.4126  0.1287  0.1642
   33MOL     C716071   6.337   1.573   0.974 -0.1426  0.4419  0.0541
   33MOL     C816072   6.200   1.557   1.044 -0.3860  0.4989  0.2243
   33MOL     C916073   6.205   1.598   1.190 -0.7164  0.5907 -0.5364
   33MOL    H1016074   6.815   1.787   0.716 -0.0976 -0.5633 -0.3967
   33MOL    H1116075   6.831   1.729   0.550  0.9165  0.4627  0.2434
   33MOL    H1216076   6.602   1.910   0.621  2.6238  0.6528  1.9544
   33MOL    H1316077   6.425   1.769   0.703  1.7256  0.8038 -3.9260
   33MOL    H1416078   6.565   1.731   0.810 -0.6414  1.5448 -0.5234
   33MOL    H1516079   6.539   1.499   0.763 -1.5108 -0.8876  1.8585
   33MOL    H1616080   6.417   1.513   0.644 -0.8049 -1.1874  0.8400
   33MOL    H1716081   6.239   1.611   0.785 -0.8081 -0.4087  0.1092
   33MOL    H1816082   6.286   1.445   0.812 -2.0808  0.5308  1.5860
   33MOL    H1916083   6.417   1.511   1.016  1.1831  1.0427 -1.5121
   33MOL    H2016084   6.369   1.674   0.998 -0.3556  0.4109  0.4746
   33MOL    H2116085   6.171   1.452   1.032  0.7421 -0.1206  2.4698
   33MOL    H2216086   6.124   1.609   0.987 -0.4384  1.8104  1.4823
   33MOL    H2316087   6.113   1.571   1.240 -0.9241  1.0284 -0.6849
   33MOL    H2416088   6.278   1.536   1.242 -0.5924  1.1331 -0.0629
   33MOL    H2516089   6.228   1.704   1.199  0.3656  0.3257 -0.0135
   33MOL    H2616090   6.856   1.899   0.591  1.9765 -0.4864 -1.6403
   33MOL    C2716091   6.642   1.859   0.416  0.8566  0.9400  0.6943
   33MOL    C2816092   6.505   1.877   0.350  0.5450  0.3141  0.5263
   33MOL    O2916093   6.455   1.989   0.416  0.0948 -0.1668  0.3838
   33MOL    C3016094   6.318   2.013   0.389 -0.3151 -0.2671  0.0334
   33MOL    C3116095   6.257   2.088   0.501 -0.6136  0.0055 -0.3752
   33MOL    C3216096   6.148   2.197   0.464  0.4348 -0.1956  0.6445
   33MOL    C3316097   6.101   2.267   0.594 -0.0191 -0.0969 -0.0262
   33MOL    C3416098   5.979   2.367   0.568 -0.4269  0.3219 -0.3375
   33MOL    C3516099   5.905   2.396   0.705 -0.0231 -1.1282  0.0050
   33MOL    H3616100   6.709   1.939   0.384  0.3775  0.6187 -1.1463
   33MOL    H3716101   6.684   1.765   0.380  0.9058  0.6986  1.3704
   33MOL    H3816102   6.453   1.784   0.372 -0.7197  0.8567 -0.1098
   33MOL    H3916103   6.276   1.915   0.369 -0.2549 -0.1942 -0.4564
   33MOL    H4016104   6.311   2.070   0.296 -0.1119 -1.5038 -0.7486
   33MOL    H4116105   6.325   2.123   0.578 -0.0865  0.4525 -1.0422
   33MOL    H4216106   6.198   2.013   0.555 -1.4229 -0.1447 -1.4507
   33MOL    H4316107   6.200   2.265   0.397  2.2437  0.3624  2.5614
   33MOL    H4416108   6.062   2.155   0.412  1.6397 -1.0239 -0.7138
   33MOL    H4516109   6.045   2.201   0.660 -0.2042 -0.4624 -0.5444
   33MOL    H4616110   6.186   2.309   0.647  1.0752 -0.7074 -1.2674
   33MOL    H4716111   6.017   2.455   0.517 -0.5127 -0.6054 -2.0159
   33MOL    H4816112   5.909   2.323   0.497  2.1197 -2.1480 -1.3829
   33MOL    H4916113   5.981   2.435   0.772 -0.9817 -1.1616  1.1130
   33MOL    H5016114   5.830   2.474   0.692  0.1296 -1.1149 -0.8321
   33MOL    H5116115   5.860   2.311   0.757 -1.0315 -0.2659  0.5629
   33MOL    C5216116   6.495   1.875   0.193 -0.5013 -0.4487 -0.0005
   33MOL    C5316117   6.564   1.990   0.117 -0.4315  0.4646 -0.5604
   33MOL    O5416118   6.705   1.975   0.110  0.8734  0.2565  0.2852
   33MOL    C5516119   6.779   2.100   0.113 -0.0247 -0.0128  0.2543
   33MOL    C5616120   6.933   2.074   0.101 -0.0506  0.2399 -0.0429
   33MOL    C5716121   6.976   2.029   0.246  0.2363  0.1100  0.6505
   33MOL    C5816122   7.114   1.963   0.258  0.3010  0.3417 -0.2592
   33MOL    C5916123   7.228   2.053   0.210 -0.7574 -0.3887 -0.4503
   33MOL    C6016124   7.356   1.977   0.217  0.0441 -0.1809 -0.3980
   33MOL    H6116125   6.389   1.879   0.168 -0.4819 -0.9298 -0.1539
   33MOL    H6216126   6.527   1.780   0.151  2.1105 -0.4248  1.8133
   33MOL    H6316127   6.537   2.080   0.173  1.9060  1.3732 -0.8565
   33MOL    H6416128   6.764   2.154   0.207  0.3389  1.4954 -0.5408
   33MOL    H6516129   6.737   2.159   0.032  0.4453 -0.3620 -0.2425
   33MOL    H6616130   6.979   2.171   0.080 -0.8729  0.3354 -1.4514
   33MOL    H6716131   6.967   2.005   0.023  2.8442  1.3228  0.2076
   33MOL    H6816132   6.981   2.113   0.316 -1.3584  2.0325 -1.4759
   33MOL    H6916133   6.903   1.958   0.284  1.7802 -1.1959  1.2630
   33MOL    H7016134   7.122   1.927   0.361  1.5699  1.5553  0.0964
   33MOL    H7116135   7.112   1.865   0.212  1.2314  0.2832 -0.1876
   33MOL    H7216136   7.211   2.081   0.106 -2.4574 -0.0614 -0.1135
   33MOL    H7316137   7.222   2.146   0.268 -0.8207 -1.3773  1.1707
   33MOL    H7416138   7.379   1.917   0.129  0.7917 -0.4796 -0.0046
   33MOL    H7516139   7.443   2.043   0.218 -1.7729  2.2618  0.9612
   33MOL    H7616140   7.358   1.917   0.307 -2.7179  0.7886  0.3574
   33MOL    C7716141   6.514   2.002   7.754 -0.4620 -0.0897 -0.4680
   33MOL    C7816142   6.394   2.091   7.746 -0.3385  0.3150 -0.5606
   33MOL    O7916143   6.317   2.049   7.635  0.2876  0.3584  0.0658
   33MOL    C8016144   6.228   1.943   7.656  0.6498  0.4749  0.6445
   33MOL    C8116145   6.159   1.909   7.513 -0.3855  0.3199  0.0443
   33MOL    C8216146   6.072   2.021   7.456  0.0835  0.6484  0.1727
   33MOL    C8316147   6.017   2.015   7.321  0.2874 -0.1439  0.3619
   33MOL    C8416148   5.946   2.140   7.269  0.4676 -0.6450 -0.0815
   33MOL    C8516149   6.041   2.260   7.253  0.0956  0.0056  0.1214
   33MOL    H8616150   6.507   1.902   7.711 -1.5089 -0.3456  0.2996
   33MOL    H8716151   6.592   2.046   7.690  0.8897  0.5890  1.6054
   33MOL    H8816152   6.333   2.083   0.058  2.8611 -1.0330  1.5702
   33MOL    H8916153   6.150   1.979   7.722 -0.2788  0.4982 -0.4619
   33MOL    H9016154   6.278   1.850   7.683 -0.9199 -1.0718 -1.5185
   33MOL    H9116155   6.087   1.829   7.532 -1.5727  1.2542 -0.4415
   33MOL    H9216156   6.234   1.869   7.445 -1.1075 -0.8203 -0.0928
   33MOL    H9316157   5.982   2.033   7.516 -0.9331 -2.3867 -0.6475
   33MOL    H9416158   6.136   2.109   7.464 -0.0664  0.6544  1.3507
   33MOL    H9516159   6.097   1.990   7.251  0.3841  1.0196  0.0615
   33MOL    H9616160   5.948   1.930   7.320 -0.6462  0.5916  1.3190
   33MOL    H9716161   5.902   2.118   7.171  1.7554 -2.9691 -0.1854
   33MOL    H9816162   5.862   2.155   7.337 -2.3438 -0.7375 -3.3843
   33MOL    H9916163   6.090   2.262   7.155 -1.9520  1.9939 -0.9154
   33MOL   H10016164   5.981   2.350   7.267  0.7715  0.2825  1.3177
   33MOL   H10116165   6.124   2.264   7.324  0.6673  0.7281 -0.5737
   33MOL   C10216166   6.432   2.241   7.733  0.1298 -0.7204  0.4338
   33MOL   C10316167   6.311   2.338   7.737  0.4523 -0.3309 -0.5772
   33MOL   O10416168   6.244   2.331   0.081 -0.1822 -0.2847 -0.0552
   33MOL   C10516169   6.108   2.359   0.080 -0.0719 -0.0532 -0.3485
   33MOL   C10616170   6.034   2.237   0.039 -0.4014 -0.0292 -1.0497
   33MOL   C10716171   5.888   2.248   0.051  0.3449  0.2784  0.5118
   33MOL   C10816172   5.840   2.293   0.192 -0.2568 -0.2275  0.0609
   33MOL   C10916173   5.693   2.279   0.210 -0.1389 -0.1864  1.0901
   33MOL   C11016174   5.651   2.334   0.346  0.7202  0.4161  0.2055
   33MOL   H11116175   6.506   2.269   0.029  0.4944  2.0609 -0.9295
   33MOL   H11216176   6.492   2.256   7.643 -0.7412 -2.0957 -0.3897
   33MOL   H11316177   6.248   2.305   7.654  1.5702 -0.0254 -1.5737
   33MOL   H11416178   6.079   2.435   0.007  1.9068  0.8198 -0.2365
   33MOL   H11516179   6.071   2.385   0.179  2.0874 -1.6280  0.8930
   33MOL   H11616180   6.069   2.155   0.102 -1.5495  1.4907  1.6177
   33MOL   H11716181   6.060   2.208   7.715 -3.0885 -2.0441 -1.2224
   33MOL   H11816182   5.845   2.326   7.767  0.9881  1.3417  1.3708
   33MOL   H11916183   5.847   2.153   0.019  3.0625 -1.2007  1.2708
   33MOL   H12016184   5.884   2.247   0.281 -0.8054 -0.3587  0.2667
   33MOL   H12116185   5.855   2.400   0.207 -1.7769 -0.1583  1.2043
   33MOL   H12216186   5.648   2.333   0.127 -0.0372 -1.2658  0.3253
   33MOL   H12316187   5.659   2.179   0.183  0.3211  0.4235 -1.9274
   33MOL   H12416188   5.545   2.323   0.368  0.7017  0.9513  0.3928
   33MOL   H12516189   5.691   2.274   0.427 -0.9954 -0.1509  0.6559
   33MOL   H12616190   5.676   2.439   0.362 -1.0925  0.5475  2.2669
   33MOL   C12716191   6.353   2.488   7.727 -1.1554  0.0426  0.9263
   33MOL   C12816192   6.414   2.534   7.598  0.4544  0.2406  0.4910
   33MOL   O12916193   6.438   2.671   7.594  0.0675  0.0536 -0.4234
   33MOL   C13016194   6.508   2.726   7.703  0.1223 -0.0490 -0.1755
   33MOL   C13116195   6.609   2.819   7.647  1.0035  0.1280 -0.1595
   33MOL   C13216196   6.696   2.886   7.754 -0.7958  0.0226 -0.0708
   33MOL   C13316197   6.801   2.979   7.684 -0.1491 -0.1121 -1.0559
   33MOL   C13416198   6.874   3.060   0.008 -0.3768 -0.2641 -0.9339
   33MOL   C13516199   6.991   3.140   7.737  0.0816  0.0131 -0.0936
   33MOL   H13616200   6.265   2.547   7.753 -1.9181 -0.3658 -0.6977
   33MOL   H13716201   6.424   2.508   0.029 -0.9009 -1.9520  1.2147
   33MOL   H13816202   6.513   2.489   7.603 -0.0865 -0.8292  1.8009
   33MOL   H13916203   6.573   2.651   7.749 -0.9518 -1.4074 -0.8135
   33MOL   H14016204   6.439   2.775   7.771 -2.0766  0.7710 -2.9293
   33MOL   H14116205   6.552   2.887   7.583  1.1280  1.0924  0.7490
   33MOL   H14216206   6.676   2.764   7.581 -0.1447 -0.5467 -0.7822
   33MOL   H14316207   6.634   2.934   0.051 -1.1146 -0.1688 -0.2120
   33MOL   H14416208   6.757   2.820   0.037 -1.2369  1.0032  1.4386
   33MOL   H14516209   6.861   2.909   7.626  3.1276  2.4408 -0.9055
   33MOL   H14616210   6.749   3.053   7.622  1.2070  0.0675 -1.9892
   33MOL   H14716211   6.808   3.129   0.061  1.1868 -0.6600  1.5969
   33MOL   H14816212   6.919   3.000   0.088  1.4700  2.0707 -0.1536
   33MOL   H14916213   6.957   3.214   7.665  0.6220 -0.1445 -0.5179
   33MOL   H15016214   7.035   3.201   0.037 -1.4040  1.5989 -0.4736
   33MOL   H15116215   7.056   3.078   7.675  0.4076  0.2142  0.0461
   33MOL   C15216216   6.356   2.487   7.470 -0.1616 -0.1700 -0.9697
   33MOL   C15316217   6.228   2.568   7.417  0.0770  0.0970 -0.2505
   33MOL   O15416218   6.185   2.540   7.282 -0.2656  0.2019 -0.2277
   33MOL   C15516219   6.284   2.561   7.185 -0.2309 -0.4656  0.1314
   33MOL   C15616220   6.228   2.547   7.040 -0.7279  0.5119  0.2102
   33MOL   C15716221   6.332   2.566   6.929  0.3672  0.4959  0.2023
   33MOL   C15816222   6.425   2.448   6.922  0.5257 -0.6622 -0.5076
   33MOL   C15916223   6.512   2.456   6.793  0.2022  0.0701 -0.0103
   33MOL   C16016224   6.588   2.327   6.767  0.3141 -0.2818  0.3420
   33MOL   H16116225   6.437   2.515   7.403  1.2740 -0.5685  0.5743
   33MOL   H16216226   6.346   2.378   7.474  0.8054 -0.1954  1.7311
   33MOL   H16316227   6.261   2.671   7.429 -0.2791  0.2547 -0.6002
   33MOL   H16416228   6.361   2.484   7.193  0.8236  0.5379 -0.0682
   33MOL   H16516229   6.330   2.660   7.189 -0.9742 -0.1233  0.1500
   33MOL   H16616230   6.154   2.626   7.028 -0.9715  0.1916 -0.3924
   33MOL   H16716231   6.168   2.456   7.033 -2.0458  1.4178 -0.3841
   33MOL   H16816232   6.295   2.581   6.828  0.2142  0.9065  0.3185
   33MOL   H16916233   6.399   2.649   6.952  1.0354 -0.7236  2.8585
   33MOL   H17016234   6.488   2.429   7.009 -0.5378  1.1231  0.6935
   33MOL   H17116235   6.350   2.370   6.905  0.8487 -1.0751 -0.0276
   33MOL   H17216236   6.454   2.490   6.707  1.4846  1.2602 -0.4129
   33MOL   H17316237   6.585   2.532   6.820  0.3505  0.1159 -0.5381
   33MOL   H17416238   6.540   2.231   6.746  1.1381 -0.9354  1.4408
   33MOL   H17516239   6.663   2.337   6.690  0.3926  1.6333  0.6454
   33MOL   H17616240   6.635   2.308   6.863 -0.2536 -1.4712  0.4009
   33MOL   C17716241   6.107   2.557   7.505 -0.5214  0.3798 -0.1304
   33MOL   C17816242   5.983   2.637   7.453 -0.1958 -0.2406 -0.3254
   33MOL   O17916243   5.864   2.591   7.524  0.5286  0.2437 -0.2809
   33MOL   C18016244   5.806   2.474   7.477 -0.8045 -0.0377  0.6696
   33MOL   C18116245   5.678   2.472   7.561  0.1897 -0.3294 -0.3022
   33MOL   C18216246   5.589   2.351   7.505  0.5766 -0.3721  0.1354
   33MOL   C18316247   5.630   2.213   7.554  0.1701  0.4807 -0.2902
   33MOL   C18416248   5.527   2.107   7.528 -0.2171  0.2625  0.7207
   33MOL   C18516249   5.601   1.974   7.567 -1.3128  0.6846 -0.0693
   33MOL   H18616250   6.086   2.451   7.517 -1.2005  0.7797  2.6277
   33MOL   H18716251   6.131   2.589   7.607 -2.5013  3.0164 -0.4255
   33MOL   H18816252   5.973   2.631   7.345  0.5619 -2.3319 -0.3169
   33MOL   H18916253   5.872   2.387   7.479  0.3581  0.8323  1.1472
   33MOL   H19016254   5.787   2.487   7.371 -1.9237 -0.8492  0.7560
   33MOL   H19116255   5.630   2.568   7.543  0.3172 -0.1155  0.4854
   33MOL   H19216256   5.707   2.463   7.665 -0.3408 -0.1469 -0.1330
   33MOL   H19316257   5.490   2.367   7.546  1.0786  0.7109  0.9690
   33MOL   H19416258   5.582   2.361   7.397 -0.0107  0.6933  0.2659
   33MOL   H19516259   5.719   2.176   7.504 -0.8666  0.0243 -1.8464
   33MOL   H19616260   5.636   2.211   7.663 -1.0820 -1.2864 -0.2262
   33MOL   H19716261   5.441   2.115   7.595 -2.0444  0.1523 -1.5332
   33MOL   H19816262   5.491   2.095   7.425 -0.7147  0.3439  0.8828
   33MOL   H19916263   5.546   1.882   7.551 -0.5842 -0.3374  2.9022
   33MOL   H20016264   5.703   1.962   7.529 -0.8320 -4.6284  2.4245
   33MOL   H20116265   5.611   1.983   7.675 -0.8049 -0.2221 -0.0372
   33MOL   C20216266   5.975   2.791   7.481  0.2333  0.0898 -0.2159
   33MOL   C20316267   6.061   2.872   7.377  0.4143  0.1137 -0.1787
   33MOL   O20416268   6.126   2.978   7.446  0.0042 -0.0416 -0.1449
   33MOL   C20516269   6.243   2.942   7.517 -0.8615 -0.1437 -0.1854
   33MOL   C20616270   6.296   3.059   7.606 -0.2864 -0.1391  0.0266
   33MOL   C20716271   6.380   3.161   7.537 -0.4390  0.1888  0.5402
   33MOL   C20816272   6.427   3.264   7.642  0.8186 -0.1100  0.5183
   33MOL   C20916273   6.512   3.381   7.586  0.5496 -0.4039  0.0798
   33MOL   C21016274   6.549   3.477   7.696  0.1534 -0.8319  0.1771
   33MOL   H21116275   5.871   2.824   7.481 -0.1676 -1.1302 -0.5957
   33MOL   H21216276   6.002   2.819   7.583 -0.1114 -2.4468  0.6026
   33MOL   H21316277   6.130   2.803   7.328 -0.5767 -0.8830 -0.1977
   33MOL   H21416278   6.317   2.899   7.450  0.1734  2.5216 -0.8065
   33MOL   H21516279   6.222   2.863   7.589 -0.4533  2.7608  3.2293
   33MOL   H21616280   6.345   3.022   7.697 -1.5585 -1.9023  0.0128
   33MOL   H21716281   6.211   3.109   7.653 -1.8357 -0.9096 -1.9230
   33MOL   H21816282   6.463   3.108   7.489  1.6339 -0.3155  4.4652
   33MOL   H21916283   6.313   3.211   7.467  0.6403  0.7161 -0.1310
   33MOL   H22016284   6.334   3.306   7.680  2.3517  2.3331  1.7727
   33MOL   H22116285   6.479   3.237   7.734  3.0694  0.4681 -0.5478
   33MOL   H22216286   6.596   3.344   7.528 -0.5984 -0.4927 -1.5565
   33MOL   H22316287   6.445   3.426   7.512 -0.1350 -3.8848 -1.5314
   33MOL   H22416288   6.656   3.493   7.704  0.3994 -2.1949 -0.1968
   33MOL   H22516289   6.507   3.576   7.684  0.4160 -0.7975 -0.4750
   33MOL   H22616290   6.513   3.441   0.014 -1.7457  2.1718  0.6549
   33MOL   C22716291   5.968   2.928   7.264 -0.3690 -0.6904  0.1819
   33MOL   C22816292   6.043   2.999   7.151 -0.3962 -0.0480  0.8652
   33MOL   O22916293   5.976   2.982   7.024  0.3939 -0.1439  0.1837
   33MOL   C23016294   6.048   2.912   6.929  0.2117 -0.2168 -0.1257
   33MOL   C23116295   5.952   2.858   6.828  0.5713 -1.0690  0.4757
   33MOL   C23216296   6.009   2.778   6.720  0.2450 -0.9172 -0.2560
   33MOL   C23316297   5.918   2.778   6.590  0.4149 -0.1406  0.0661
   33MOL   C23416298   5.980   2.693   6.482 -0.5650 -0.1055  0.5057
   33MOL   C23516299   5.880   2.653   6.370  0.2542  0.2559  0.1043
   33MOL   H23616300   5.920   2.837   7.225 -1.1088  0.1157 -0.8223
   33MOL   H23716301   5.881   2.983   7.302  1.1141  2.1067 -0.3683
   33MOL   H23816302   6.144   2.960   7.138 -0.4982 -0.2075  0.5439
   33MOL   H23916303   6.097   2.827   6.977 -1.9063 -0.5297  1.5274
   33MOL   H24016304   6.130   2.976   6.896 -0.3567  1.0987  0.9691
   33MOL   H24116305   5.898   2.945   6.791 -1.0030 -1.8004  1.0203
   33MOL   H24216306   5.872   2.793   6.864  0.1453  0.5554  2.5757
   33MOL   H24316307   6.111   2.804   6.691 -0.2057  0.5588 -0.5664
   33MOL   H24416308   6.012   2.677   6.760 -2.8902 -0.3182  1.6553
   33MOL   H24516309   5.817   2.747   6.616  0.8387 -0.4368  1.4112
   33MOL   H24616310   5.918   2.881   6.555  0.7327 -0.1913 -0.0896
   33MOL   H24716311   6.071   2.742   6.448 -0.2015 -0.8937  0.3127
   33MOL   H24816312   6.011   2.598   6.527  2.2057  1.2251  1.4792
   33MOL   H24916313   5.793   2.604   6.415  1.4823 -0.5939  1.5999
   33MOL   H25016314   5.838   2.743   6.325 -2.1672  0.4486  2.5471
   33MOL   H25116315   5.920   2.587   6.294 -3.8557  0.5792 -2.4938
   33MOL   C25216316   6.066   3.151   7.178  0.2993 -0.5078  0.1168
   33MOL   C25316317   6.176   3.213   7.089 -0.2692 -0.5594 -0.0068
   33MOL   O25416318   6.298   3.172   7.157 -0.4453 -0.0685 -0.5765
   33MOL   C25516319   6.416   3.189   7.082  0.4076  0.1050  0.0149
   33MOL   C25616320   6.528   3.133   7.168 -0.1544  0.3613 -0.3891
   33MOL   C25716321   6.539   2.980   7.168 -0.1203 -0.4254 -0.1380
   33MOL   C25816322   6.666   2.936   7.234  0.2740 -0.4637  0.5610
   33MOL   C25916323   6.657   2.788   7.275  0.0837  0.5563  0.4917
   33MOL   C26016324   6.692   2.701   7.159  0.5054  0.0274 -0.9208
   33MOL   H26116325   5.971   3.205   7.177  0.0866 -0.8226 -2.9921
   33MOL   H26216326   6.111   3.157   7.277  0.5493 -0.4194 -0.0013
   33MOL   H26316327   6.168   3.173   6.988 -0.0634 -1.3001  0.2694
   33MOL   H26416328   6.425   3.295   7.060  0.0470  0.2555  0.5848
   33MOL   H26516329   6.402   3.138   6.987  2.0886 -0.1208 -0.1334
   33MOL   H26616330   6.524   3.177   7.268 -1.6923  1.2432 -0.8165
   33MOL   H26716331   6.616   3.179   7.123 -0.6771  1.2789 -0.4776
   33MOL   H26816332   6.455   2.949   7.229 -0.0594 -1.0531 -0.3635
   33MOL   H26916333   6.530   2.941   7.066  1.1100  0.8975 -0.7800
   33MOL   H27016334   6.758   2.951   7.177 -0.5722 -0.2054 -0.7728
   33MOL   H27116335   6.676   2.988   7.329  0.5816 -1.3818  1.0316
   33MOL   H27216336   6.738   2.775   7.347  1.4229 -3.2470 -1.5768
   33MOL   H27316337   6.565   2.772   7.332  0.3917 -0.4662  0.7099
   33MOL   H27416338   6.701   2.595   7.185 -1.2010  0.2765  0.7891
   33MOL   H27516339   6.612   2.712   7.086  1.0278  2.0906 -1.2010
   33MOL   H27616340   6.782   2.733   7.107 -0.4401  1.2179 -1.8550
   33MOL   C27716341   6.163   3.361   7.070 -0.1848 -0.5667 -0.0809
   33MOL   C27816342   6.040   3.401   6.997 -0.5511  0.5836 -0.3820
   33MOL   O27916343   6.009   3.540   7.032  0.7915 -0.2305 -0.1335
   33MOL   C28016344   5.914   3.558   7.131  0.1727  0.5050 -0.3213
   33MOL   C28116345   5.769   3.548   7.075  0.6610  0.5935 -0.0896
   33MOL   C28216346   5.659   3.576   7.173  0.4322  0.0261 -0.6481
   33MOL   C28316347   5.520   3.531   7.124  0.0033  0.4136  0.3410
   33MOL   C28416348   5.403   3.599   7.207  0.4401 -0.3107  1.0023
   33MOL   C28516349   5.379   3.525   7.330 -0.1960 -0.4290 -0.4491
   33MOL   H28616350   6.158   3.399   7.171  1.2804 -0.9545  0.1491
   33MOL   H28716351   6.249   3.406   7.020 -0.9512  2.3590  1.1508
   33MOL   H28816352   5.949   3.346   7.021  1.5086 -2.5461  0.5236
   33MOL   H28916353   5.934   3.652   7.183  1.4347 -0.6904  1.3693
   33MOL   H29016354   5.915   3.486   7.212  1.3329  1.2322  0.3263
   33MOL   H29116355   5.758   3.443   7.048 -0.6478  0.0859  2.2881
   33MOL   H29216356   5.760   3.607   6.984  1.4141  0.4343 -0.2700
   33MOL   H29316357   5.692   3.513   7.255  1.9114  1.8220  0.1631
   33MOL   H29416358   5.671   3.680   7.206 -1.6489  0.2611 -0.5162
   33MOL   H29516359   5.517   3.563   7.020  2.0055 -0.8949 -0.1418
   33MOL   H29616360   5.507   3.424   7.112  1.2680  0.1052  1.5608
   33MOL   H29716361   5.430   3.702   7.229 -1.3124  0.2242  0.7438
   33MOL   H29816362   5.317   3.616   7.143  1.2413 -0.8674 -0.2394
   33MOL   H29916363   5.308   3.579   7.393  0.9525 -0.0132  0.5269
   33MOL   H30016364   5.330   3.429   7.313 -1.7454  0.5906 -1.9477
   33MOL   H30116365   5.471   3.512   7.387  1.0355  0.8536 -2.0804
   33MOL   C30216366   6.066   3.393   6.846 -0.9732  0.8021 -0.6073
   33MOL   C30316367   5.951   3.447   6.753 -0.1864  0.9067  0.1073
   33MOL   O30416368   5.837   3.356   6.767 -0.1218 -0.2534 -0.2540
   33MOL   C30516369   5.856   3.228   6.705 -0.7064 -0.5818 -0.0701
   33MOL   C30616370   5.721   3.159   6.739 -0.3355  0.0636 -0.0306
   33MOL   C30716371   5.680   3.151   6.890  0.3307 -0.3973 -0.4045
   33MOL   C30816372   5.572   3.038   6.900 -0.2736 -1.0206 -0.2981
   33MOL   C30916373   5.536   3.001   7.042  0.0416 -0.5918 -0.2007
   33MOL   C31016374   5.453   3.110   7.108 -0.1455 -0.3615 -0.3962
   33MOL   H31116375   6.163   3.437   6.822  0.0203 -1.0920 -0.1323
   33MOL   H31216376   6.090   3.292   6.816  0.1489  0.5699  1.0287
   33MOL   H31316377   5.918   3.541   6.796 -2.0972  0.3229 -0.0422
   33MOL   H31416378   5.944   3.179   6.744 -1.1102 -0.3079  1.2043
   33MOL   H31516379   5.862   3.244   6.597 -0.5773 -1.8247 -0.2528
   33MOL   H31616380   5.716   3.062   6.690 -0.8011 -1.2812  2.5890
   33MOL   H31716381   5.639   3.205   6.684  0.0902  0.8545 -0.0036
   33MOL   H31816382   5.768   3.133   6.952 -1.0563  0.0659  1.7488
   33MOL   H31916383   5.641   3.248   6.920 -0.5815 -0.2730 -1.9554
   33MOL   H32016384   5.481   3.068   6.848  0.7762  0.8564 -1.1024
   33MOL   H32116385   5.613   2.952   6.847  2.4194  0.3792 -0.5681
   33MOL   H32216386   5.476   2.911   7.050 -0.0190 -0.5829 -0.5769
   33MOL   H32316387   5.615   2.985   7.115  0.8669  1.5656 -0.5807
   33MOL   H32416388   5.421   3.065   7.202  0.2648  0.6187  0.2177
   33MOL   H32516389   5.512   3.195   7.140  0.7433 -1.5540  1.1860
   33MOL   H32616390   5.365   3.147   7.054 -0.0910 -0.8225 -0.8038
   33MOL   C32716391   6.000   3.456   6.605  0.4380  0.4719  0.1516
   33MOL   C32816392   5.901   3.501   6.496 -0.1633  0.6659 -0.0451
   33MOL   O32916393   5.890   3.643   6.475  0.1733 -0.4864 -0.4356
   33MOL   C33016394   5.843   3.711   6.587 -0.5781 -0.3250 -0.3436
   33MOL   C33116395   5.789   3.850   6.533  0.1484  0.3604  0.5275
   33MOL   C33216396   5.657   3.845   6.448 -0.2696 -0.9852 -0.5770
   33MOL   C33316397   5.594   3.985   6.437  0.5574 -0.6462 -0.1446
   33MOL   C33416398   5.445   3.969   6.390  0.4572 -0.6687  0.1340
   33MOL   C33516399   5.374   4.103   6.374 -0.2502 -0.6248 -0.1655
   33MOL   H33616400   6.042   3.359   6.579  0.7151  1.2527 -2.4100
   33MOL   H33716401   6.089   3.517   6.595  1.8145 -1.5064  0.0126
   33MOL   H33816402   5.813   3.455   6.542 -1.5048  2.2103 -1.0448
   33MOL   H33916403   5.923   3.741   6.656 -1.1544 -0.1825  0.2719
   33MOL   H34016404   5.771   3.654   6.646 -1.3881 -0.6076 -1.5872
   33MOL   H34116405   5.868   3.910   6.487  0.9077 -2.0173 -1.3429
   33MOL   H34216406   5.777   3.912   6.622  0.5552 -2.7166  2.7920
   33MOL   H34316407   5.686   3.804   6.351 -5.6914 -1.6945 -2.0884
   33MOL   H34416408   5.587   3.776   6.497  0.5989 -2.0164 -0.7587
   33MOL   H34516409   5.604   4.029   6.536 -2.9480  3.4643 -1.4520
   33MOL   H34616410   5.642   4.047   6.361 -1.9797  2.0363  0.3453
   33MOL   H34716411   5.436   3.909   6.299  0.3740  1.1280 -1.0772
   33MOL   H34816412   5.395   3.910   6.467 -0.0286 -0.4415 -0.0026
   33MOL   H34916413   5.390   4.173   6.456  2.3112  0.2799 -1.3758
   33MOL   H35016414   5.396   4.162   6.286  0.2275 -1.6873 -0.7627
   33MOL   H35116415   5.265   4.094   6.365 -0.1773  0.0202 -1.8208
   33MOL   C35216416   5.929   3.438   6.357  0.2760 -0.0145 -0.1930
   33MOL   C35316417   5.811   3.457   6.258 -0.0507  0.4304 -0.8412
   33MOL   O35416418   5.694   3.387   6.303 -0.1376 -0.1031 -0.2533
   33MOL   C35516419   5.567   3.447   6.263  0.1940 -0.3636  0.3283
   33MOL   C35616420   5.499   3.522   6.381 -0.2142  0.4518  0.8051
   33MOL   C35716421   5.462   3.427   6.494  0.4017 -0.3133 -0.9721
   33MOL   C35816422   5.394   3.500   6.614  0.2803 -0.4147  0.8401
   33MOL   C35916423   5.372   3.410   6.734 -0.1681 -0.0585 -0.1284
   33MOL   C36016424   5.295   3.454   6.855  0.1013 -0.4262  0.2827
   33MOL   H36116425   6.025   3.482   6.327  0.1515  0.6412  0.3317
   33MOL   H36216426   5.945   3.332   6.375 -0.9038 -0.5590 -2.3197
   33MOL   H36316427   5.787   3.563   6.266  0.1335  0.5408 -1.6825
   33MOL   H36416428   5.494   3.367   6.247 -1.4174  0.9037  1.2719
   33MOL   H36516429   5.576   3.513   6.177 -1.0608 -0.4131  0.1482
   33MOL   H36616430   5.418   3.582   6.341 -0.6872 -1.3001 -0.9577
   33MOL   H36716431   5.573   3.586   6.428 -0.0652  0.4378  0.5865
   33MOL   H36816432   5.390   3.354   6.456 -1.3004  1.2369 -0.8021
   33MOL   H36916433   5.550   3.372   6.527 -0.0287 -1.7426 -2.1785
   33MOL   H37016434   5.455   3.586   6.639 -1.0576  0.9349 -0.4707
   33MOL   H37116435   5.300   3.535   6.571  2.3815  1.7872 -2.1878
   33MOL   H37216436   5.337   3.314   6.696  0.8613 -0.3827 -0.2822
   33MOL   H37316437   5.471   3.402   6.780 -0.0377  0.7702 -0.2565
   33MOL   H37416438   5.302   3.370   6.925  2.7971 -0.4208  0.0439
   33MOL   H37516439   5.333   3.545   6.901  0.4757 -0.9216  0.9647
   33MOL   H37616440   5.189   3.470   6.833 -0.0551 -0.0221  1.3129
   33MOL   C37716441   5.846   3.408   6.114 -0.1724  0.5179 -0.1762
   33MOL   C37816442   5.920   3.523   6.036 -0.4918  0.0769 -0.0542
   33MOL   O37916443   5.836   3.637   6.015 -0.1643 -0.1404  0.0887
   33MOL   C38016444   5.891   3.763   6.014 -1.1047  0.7335  0.3667
   33MOL   C38116445   5.787   3.862   5.974  0.2573 -0.1703 -0.2517
   33MOL   C38216446   5.669   3.875   6.074  0.2947 -0.0876 -0.4620
   33MOL   C38316447   5.559   3.967   6.016 -0.0021  0.3315 -0.3931
   33MOL   C38416448   5.473   3.897   5.916  0.4284 -0.4078  0.1703
   33MOL   C38516449   5.353   3.986   5.875  0.5052 -0.0326  0.1396
   33MOL   H38616450   5.900   3.314   6.125 -1.0300 -0.1377 -1.3837
   33MOL   H38716451   5.755   3.394   6.056 -0.7482  0.2911  0.7832
   33MOL   H38816452   6.001   3.567   6.094 -1.5702 -1.7697  2.9169
   33MOL   H38916453   5.979   3.772   5.950  0.1383  1.8331  2.1852
   33MOL   H39016454   5.922   3.796   6.113 -0.8936  0.4521  0.3956
   33MOL   H39116455   5.752   3.845   5.872  0.3016 -0.6574 -0.1865
   33MOL   H39216456   5.836   3.958   5.961  2.3680 -0.9409  1.6741
   33MOL   H39316457   5.633   3.777   6.108  0.8324  0.1266  0.7431
   33MOL   H39416458   5.706   3.922   6.165 -0.5617  1.5434 -0.9355
   33MOL   H39516459   5.486   3.995   6.093  0.2406  2.7455 -1.0046
   33MOL   H39616460   5.590   4.063   5.975 -4.4679  1.4596 -1.4317
   33MOL   H39716461   5.537   3.880   5.829  1.9381 -1.1396  1.4040
   33MOL   H39816462   5.437   3.800   5.952 -2.7947  0.6352 -0.0720
   33MOL   H39916463   5.393   4.084   5.851  0.5856  0.1325  0.9275
   33MOL   H40016464   5.304   3.945   5.786  0.9942 -1.8388  0.6872
   33MOL   H40116465   5.278   3.992   5.954  0.6552  0.3787  0.2497
   33MOL   C40216466   5.980   3.484   5.898 -0.3382 -1.0056  0.6976
   33MOL   C40316467   6.089   3.375   5.905 -0.6464  0.0601 -0.8278
   33MOL   O40416468   6.186   3.408   6.009 -1.1843  0.3329 -0.0708
   33MOL   C40516469   6.229   3.316   6.106  0.1537  0.6363  0.5893
   33MOL   C40616470   6.294   3.407   6.208  0.2096  0.0714 -0.2936
   33MOL   C40716471   6.330   3.331   6.336  0.0815 -0.0069  0.1316
   33MOL   C40816472   6.402   3.410   6.448  0.0744  0.5595  0.1039
   33MOL   C40916473   6.390   3.329   6.570 -0.0022  0.1979 -1.0599
   33MOL   C41016474   6.433   3.413   6.695  0.3388  0.6289  0.2722
   33MOL   H41116475   6.017   3.580   5.865 -1.6467 -0.9026 -0.4892
   33MOL   H41216476   5.899   3.452   5.832 -1.4038  0.0516  1.4640
   33MOL   H41316477   6.037   3.282   5.931 -0.6401 -0.0189 -1.0938
   33MOL   H41416478   6.287   3.230   6.074 -0.8431  0.2094 -0.1164
   33MOL   H41516479   6.139   3.292   6.162  0.9300 -0.8762  1.2155
   33MOL   H41616480   6.221   3.487   6.224  0.2007 -0.4042  2.2287
   33MOL   H41716481   6.384   3.458   6.173  0.9245 -0.8076  0.2427
   33MOL   H41816482   6.237   3.294   6.378  1.7182 -2.5771  1.6545
   33MOL   H41916483   6.397   3.249   6.311  1.5788  0.9978  0.7412
   33MOL   H42016484   6.500   3.444   6.417 -0.3611  1.7032 -0.0406
   33MOL   H42116485   6.347   3.502   6.470  0.7415  1.1727 -0.7428
   33MOL   H42216486   6.287   3.297   6.584 -0.0981  1.8678  2.5066
   33MOL   H42316487   6.446   3.237   6.551  0.5609  0.7969 -2.3735
   33MOL   H42416488   6.361   3.492   6.719 -1.9502 -1.4333  0.3293
   33MOL   H42516489   6.445   3.341   6.775 -0.5229 -0.9915 -1.0296
   33MOL   H42616490   6.531   3.459   6.683 -0.2277  1.4710 -1.3276
   33MOL   C42716491   6.161   3.354   5.769 -0.5581 -0.5969 -0.3451
   33MOL   C42816492   6.286   3.270   5.766 -0.1305  0.6776  0.9216
   33MOL   O42916493   6.312   3.239   5.627  0.0171  0.1547 -0.0966
   33MOL   C43016494   6.266   3.107   5.588  0.6299  0.0546 -0.1945
   33MOL   C43116495   6.295   3.078   5.442 -0.1343  0.2444 -0.1937
   33MOL   C43216496   6.210   2.957   5.398 -0.1475  0.9810  0.1873
   33MOL   C43316497   6.221   2.915   5.247  0.1898 -0.0945 -0.3329
   33MOL   C43416498   6.361   2.876   5.207  0.2750 -0.2431 -0.0234
   33MOL   C43516499   6.363   2.800   5.073 -0.0673  0.2298  0.5367
   33MOL   H43616500   6.090   3.328   5.691 -1.0225 -1.3632  0.3143
   33MOL   H43716501   6.211   3.447   5.742  0.5811 -0.5561  1.7213
   33MOL   H43816502   6.270   3.177   5.821 -0.2426  0.4361  0.4784
   33MOL   H43916503   6.158   3.110   5.606 -0.0793 -2.4988 -3.4401
   33MOL   H44016504   6.300   3.024   5.649  0.7661  2.6536  3.4459
   33MOL   H44116505   6.402   3.062   5.430 -0.3477 -0.4776 -1.2475
   33MOL   H44216506   6.276   3.165   5.380  0.4658  1.7508  1.7089
   33MOL   H44316507   6.226   2.870   5.462  0.8261  0.3227 -0.9343
   33MOL   H44416508   6.104   2.980   5.412  0.0472  0.3657  3.0401
   33MOL   H44516509   6.137   2.849   5.230  0.4444 -1.1490  2.2232
   33MOL   H44616510   6.198   3.001   5.184  0.0479  0.5501  0.5814
   33MOL   H44716511   6.423   2.965   5.212  0.1333 -0.2776  2.9797
   33MOL   H44816512   6.406   2.818   5.287 -0.4184 -2.1706 -0.9975
   33MOL   H44916513   6.335   2.855   4.984  3.3773  0.6365 -0.3630
   33MOL   H45016514   6.468   2.782   5.051 -0.0295  0.3776  0.5924
   33MOL   H45116515   6.314   2.703   5.079 -1.4396  0.8922  0.2976
   33MOL   C45216516   6.405   3.338   5.824 -0.2405 -0.8826  0.3468
   33MOL   C45316517   6.524   3.251   5.847 -0.9379  0.4269  0.6282
   33MOL   O45416518   6.484   3.140   5.930 -0.0719  0.1700  0.3530
   33MOL   C45516519   6.549   3.019   5.896 -0.2469 -0.2676 -0.5883
   33MOL   C45616520   6.516   2.906   5.998 -0.1682 -1.0753  0.2624
   33MOL   C45716521   6.557   2.940   6.142 -0.4289  0.1466 -0.1500
   33MOL   C45816522   6.516   2.841   6.256 -0.0718 -0.5050 -0.5650
   33MOL   C45916523   6.528   2.901   6.396  0.4221  0.1522  0.4078
   33MOL   C46016524   6.512   2.794   6.503 -0.2639  0.3783 -0.5291
   33MOL   H46116525   6.430   3.414   5.751  0.9230 -0.2973  1.3432
   33MOL   H46216526   6.400   3.395   5.917 -0.3362 -0.5793  0.1567
   33MOL   H46316527   6.563   3.230   5.748  0.7459 -1.9783  1.7451
   33MOL   H46416528   6.654   3.048   5.904  0.2547 -2.6468  2.5676
   33MOL   H46516529   6.542   2.986   5.792  1.4864 -1.2880 -0.3947
   33MOL   H46616530   6.559   2.812   5.964  0.1676 -0.7022 -0.3636
   33MOL   H46716531   6.410   2.883   5.989  0.2829 -2.5384 -1.5673
   33MOL   H46816532   6.661   2.970   6.154 -0.3210 -0.1489 -0.3470
   33MOL   H46916533   6.496   3.026   6.169  2.4162  1.5889  1.9354
   33MOL   H47016534   6.412   2.822   6.230 -0.3432  1.0608 -0.6805
   33MOL   H47116535   6.558   2.741   6.250  0.7262 -0.1318 -1.3787
   33MOL   H47216536   6.618   2.962   6.406  2.3175 -2.4377 -0.2585
   33MOL   H47316537   6.443   2.967   6.411  0.4369  0.2579  0.0457
   33MOL   H47416538   6.414   2.749   6.516  0.6604 -2.0754 -1.6975
   33MOL   H47516539   6.576   2.707   6.487 -0.1610  0.7551 -2.3072
   33MOL   H47616540   6.549   2.837   6.596  1.3336  0.6829 -1.2950
   33MOL   C47716541   6.653   3.309   5.914 -0.1778 -0.3974  0.3243
   33MOL   C47816542   6.638   3.341   6.067 -0.2896  0.3985  0.4266
   33MOL   O47916543   6.768   3.336   6.120  0.0290  0.0439  0.4735
   33MOL   C48016544   6.783   3.361   6.261  0.6690 -0.2226  0.0057
   33MOL   C48116545   6.775   3.239   6.352  0.1546 -0.0985 -0.0599
   33MOL   C48216546   6.779   3.274   6.502 -0.5802  0.4907  0.2156
   33MOL   C48316547   6.734   3.165   6.594  0.2746  0.4679  0.0052
   33MOL   C48416548   6.785   3.185   6.740 -0.1338 -0.2583  0.4466
   33MOL   C48516549   6.726   3.087   6.834  0.3182 -0.9658  0.0770
   33MOL   H48616550   6.739   3.244   5.901  0.5693 -0.0748  3.2582
   33MOL   H48716551   6.672   3.400   5.857 -1.1761 -0.1207  0.4324
   33MOL   H48816552   6.597   3.439   6.092  1.0993  0.7256  1.4860
   33MOL   H48916553   6.710   3.439   6.282 -0.9162 -1.5962 -0.3330
   33MOL   H49016554   6.882   3.404   6.278  0.5038 -0.2666  1.0704
   33MOL   H49116555   6.852   3.170   6.317 -0.6896 -0.1745 -1.8179
   33MOL   H49216556   6.688   3.175   6.335  0.2779 -0.5902  1.0801
   33MOL   H49316557   6.877   3.309   6.533 -0.5272  0.3340  0.2273
   33MOL   H49416558   6.708   3.356   6.506 -0.9130  0.2709 -1.0109
   33MOL   H49516559   6.626   3.162   6.603  0.1618  4.1266  0.8361
   33MOL   H49616560   6.767   3.070   6.553 -0.5012 -0.2299  0.9850
   33MOL   H49716561   6.890   3.156   6.731  0.5663  1.9582  1.1101
   33MOL   H49816562   6.781   3.288   6.773 -2.6753 -0.3576  0.5149
   33MOL   H49916563   6.624   3.111   6.863  0.9819  2.8264 -0.4924
   33MOL   H50016564   6.728   2.987   6.793 -1.0104 -0.3503 -1.5326
   33MOL   H50116565   6.789   3.086   6.923 -1.0340 -1.9183  1.0432
   33MOL   H50216566   6.573   3.273   6.123 -0.6947  1.3214  1.0812
   34MOL     C116567   7.403   4.362   7.109  0.1905 -0.2603  0.1452
   34MOL     C216568   7.320   4.317   7.224 -0.2848  0.3576 -0.2975
   34MOL     O316569   7.407   4.264   7.319 -0.4444  0.6901 -0.5732
   34MOL     C416570   7.406   4.322   7.449 -0.6351  0.6738 -0.4833
   34MOL     C516571   7.542   4.300   7.527  0.4752 -0.6903 -0.6683
   34MOL     C616572   7.555   4.154   7.559 -0.2046  0.5963 -0.1777
   34MOL     C716573   7.689   4.112   7.621  0.3704  1.0873  0.2843
   34MOL     C816574   7.731   4.205   7.744 -0.0927  0.0920  0.5849
   34MOL     C916575   0.070   4.149   0.034  0.5460  0.1326 -0.7599
   34MOL    H1016576   7.478   4.430   7.149 -2.5153  1.5321  2.3278
   34MOL    H1116577   7.452   4.270   7.076  0.2424 -0.9651  2.1184
   34MOL    H1216578   7.279   4.411   7.262 -1.1680 -0.5378  1.0438
   34MOL    H1316579   7.327   4.281   7.512  0.8412 -1.6334 -0.0768
   34MOL    H1416580   7.400   4.431   7.450  1.6794  0.8450  2.6626
   34MOL    H1516581   7.531   4.350   7.623  0.1635  1.1418 -1.6203
   34MOL    H1616582   7.626   4.339   7.469  0.2091  0.8272 -0.0627
   34MOL    H1716583   7.469   4.124   7.619  0.7916 -2.4875 -0.2097
   34MOL    H1816584   7.554   4.102   7.463  0.4832 -1.8245  1.0811
   34MOL    H1916585   7.673   4.006   7.642 -1.6307  0.9250 -1.8082
   34MOL    H2016586   7.766   4.111   7.544 -1.4767  0.6573 -1.6302
   34MOL    H2116587   7.645   4.216   0.031 -0.6520 -0.5863 -0.0296
   34MOL    H2216588   7.771   4.295   7.699 -1.6315 -0.0268 -1.0637
   34MOL    H2316589   0.043   4.056   0.083  2.5535 -0.2221 -0.2765
   34MOL    H2416590   0.160   4.121   7.758 -0.4761 -2.2611 -1.2841
   34MOL    H2516591   0.092   4.194   0.131 -3.2037 -0.1447  0.2747
   34MOL    H2616592   7.336   4.400   7.033 -0.1409 -0.6287  0.2511
   34MOL    C2716593   7.211   4.210   7.180 -0.2316  0.6634  0.6475
   34MOL    C2816594   7.088   4.198   7.280  0.2405 -0.2436 -0.3219
   34MOL    O2916595   7.025   4.327   7.282  0.4969  0.0890  0.2189
   34MOL    C3016596   6.945   4.352   7.396 -0.1188  0.3738  0.5370
   34MOL    C3116597   7.034   4.441   7.483  0.0802 -0.0088  0.2552
   34MOL    C3216598   6.961   4.506   7.596 -0.0399  0.7407  0.0499
   34MOL    C3316599   7.055   4.585   7.680 -0.7485 -0.5715 -0.2801
   34MOL    C3416600   6.971   4.649   0.019 -0.5444 -0.4390  0.3572
   34MOL    C3516601   6.929   4.538   0.122  0.5289  0.1679  0.2735
   34MOL    H3616602   7.170   4.233   7.082 -0.4277  0.4722  0.6848
   34MOL    H3716603   7.262   4.114   7.166  0.3545  0.9215  1.0012
   34MOL    H3816604   7.134   4.186   7.378 -0.4202  1.2224  0.1794
   34MOL    H3916605   6.909   4.268   7.456 -2.1887  1.9484  1.5653
   34MOL    H4016606   6.856   4.402   7.357  0.9859  0.0193 -2.6224
   34MOL    H4116607   7.087   4.516   7.423 -0.4634 -0.9584 -1.4545
   34MOL    H4216608   7.113   4.380   7.526  2.4290  2.5606 -0.2762
   34MOL    H4316609   6.884   4.564   7.545 -0.8045  0.4751  0.9019
   34MOL    H4416610   6.913   4.425   7.650  0.8247 -2.3440 -3.5487
   34MOL    H4516611   7.126   4.516   7.724  0.8300  1.8607  1.1407
   34MOL    H4616612   7.093   4.661   7.612  1.6855 -1.9498 -0.5125
   34MOL    H4716613   7.036   4.719   0.073 -1.9998 -0.8480  2.7333
   34MOL    H4816614   6.883   4.703   7.765 -0.1382  1.0732  1.7166
   34MOL    H4916615   7.015   4.481   0.158 -0.3258 -0.5077  1.2905
   34MOL    H5016616   6.873   4.578   0.206 -0.5483 -2.9643  1.1243
   34MOL    H5116617   6.850   4.470   0.088  0.2197  1.3034 -1.3160
   34MOL    C5216618   6.986   4.091   7.243 -0.4793 -0.3567 -0.0088
   34MOL    C5316619   7.003   3.951   7.306  0.2841  0.3123  0.5473
   34MOL    O5416620   7.006   3.972   7.446 -0.2484 -0.5131  0.3270
   34MOL    C5516621   7.103   3.893   7.513  0.4984 -0.2526  0.2344
   34MOL    C5616622   7.063   3.881   7.658 -0.0861 -0.5250 -0.6009
   34MOL    C5716623   7.044   4.020   7.719  0.8014 -0.6261  0.0882
   34MOL    C5816624   7.180   4.082   7.764 -0.1967  0.8118 -0.3666
   34MOL    C5916625   7.178   4.219   0.059 -0.0923  1.1358 -0.7501
   34MOL    C6016626   7.314   4.272   0.103 -0.0629 -0.2447  0.1899
   34MOL    H6116627   6.971   4.096   7.135 -2.0931  0.1969  0.2145
   34MOL    H6216628   6.886   4.128   7.266 -0.8646 -1.1612 -0.3487
   34MOL    H6316629   7.099   3.909   7.274  0.0605 -0.4255  0.8383
   34MOL    H6416630   7.198   3.945   7.496  0.7169 -0.4005  0.9705
   34MOL    H6516631   7.111   3.794   7.467 -1.6061  0.5765 -1.9913
   34MOL    H6616632   7.124   3.817   7.722  1.0577  1.1569  0.0099
   34MOL    H6716633   6.966   3.832   7.658 -1.0703  1.4074 -0.2327
   34MOL    H6816634   6.986   4.085   7.654 -1.9433 -1.3201  1.7472
   34MOL    H6916635   6.969   4.010   0.019  0.2814  3.3589  0.2052
   34MOL    H7016636   7.224   4.006   0.051  0.6572 -0.6280 -2.5647
   34MOL    H7116637   7.251   4.075   7.682 -1.0958 -0.6223 -1.0368
   34MOL    H7216638   7.144   4.281   7.755 -2.1136  3.0882  1.4668
   34MOL    H7316639   7.109   4.217   0.143  1.5654 -1.4705  0.6390
   34MOL    H7416640   7.303   4.362   0.162 -2.7086  0.5456 -1.4529
   34MOL    H7516641   7.388   4.211   0.156 -0.2624  0.3882  1.1905
   34MOL    H7616642   7.375   4.307   0.019  1.3174 -0.7498  0.9656
   34MOL    C7716643   6.891   3.844   7.272  0.3295 -0.2532  0.1597
   34MOL    C7816644   6.866   3.813   7.114  0.3570  0.5224  0.0958
   34MOL    O7916645   6.746   3.737   7.101  0.4907 -0.1854  0.7388
   34MOL    C8016646   6.633   3.825   7.097  0.4689  0.7221 -0.3240
   34MOL    C8116647   6.506   3.753   7.145  0.5990 -0.1757 -0.3941
   34MOL    C8216648   6.522   3.724   7.299  0.0299  0.8973  0.1276
   34MOL    C8316649   6.390   3.699   7.372  0.6476  0.3539 -0.1619
   34MOL    C8416650   6.289   3.597   7.303  0.0180 -0.5785  0.2002
   34MOL    C8516651   6.161   3.592   7.389 -0.1142  0.5845  0.1489
   34MOL    H8616652   6.793   3.876   7.308  0.0525 -0.3858 -0.4666
   34MOL    H8716653   6.911   3.753   7.329 -0.5732 -0.3048  0.4055
   34MOL    H8816654   6.845   3.905   7.060 -0.6539 -0.8546 -1.9250
   34MOL    H8916655   6.619   3.850   6.992  2.8463 -0.0627 -0.8758
   34MOL    H9016656   6.641   3.923   7.144 -1.2020  0.7844 -0.1460
   34MOL    H9116657   6.494   3.656   7.096  1.1427  0.6199 -2.1047
   34MOL    H9216658   6.420   3.818   7.134  0.9898  0.8224  1.9876
   34MOL    H9316659   6.591   3.642   7.317  0.6928  1.5737  0.7181
   34MOL    H9416660   6.569   3.807   7.352  2.6562 -0.6587  0.3533
   34MOL    H9516661   6.412   3.679   7.477  0.4146 -0.5236 -0.2794
   34MOL    H9616662   6.335   3.793   7.359 -1.5205 -0.9359 -0.6497
   34MOL    H9716663   6.259   3.629   7.202 -1.2002  0.0174  0.7354
   34MOL    H9816664   6.329   3.496   7.305  1.6210  0.0626  2.4580
   34MOL    H9916665   6.112   3.688   7.377 -0.4783  0.6348  1.9137
   34MOL   H10016666   6.086   3.516   7.366  0.0685  0.5773 -0.4242
   34MOL   H10116667   6.172   3.598   7.497 -1.1723  1.4646  0.2155
   34MOL   C10216668   6.980   3.731   7.062  0.4052  0.0707 -0.3527
   34MOL   C10316669   6.990   3.725   6.908  0.2527  0.8588 -0.4360
   34MOL   O10416670   7.073   3.835   6.866 -0.0469  0.7113  0.2786
   34MOL   C10516671   7.002   3.953   6.825  0.0064 -0.0500 -0.1447
   34MOL   C10616672   7.088   4.027   6.720  0.3272  0.6530  0.2806
   34MOL   C10716673   7.034   4.179   6.698  0.1036  0.1224  0.0674
   34MOL   C10816674   7.104   4.264   6.588  0.2741  0.1946  0.4164
   34MOL   C10916675   7.259   4.238   6.573  0.2454  0.5304  0.4648
   34MOL   C11016676   7.350   4.332   6.650  0.9746 -0.5915 -0.3898
   34MOL   H11116677   7.073   3.776   7.097  0.1086 -0.4221  1.0846
   34MOL   H11216678   6.973   3.633   7.109  0.8103 -0.0379 -0.5175
   34MOL   H11316679   6.888   3.728   6.868 -0.1170  3.4481  0.6075
   34MOL   H11416680   6.988   4.013   6.915 -0.4233  3.7744 -2.6296
   34MOL   H11516681   6.906   3.924   6.782  0.8532  0.0341 -2.1484
   34MOL   H11616682   7.093   3.979   6.622  2.6046  2.3013 -0.4462
   34MOL   H11716683   7.187   4.011   6.763  1.0183  0.5275 -1.3401
   34MOL   H11816684   6.926   4.193   6.686  0.2379  2.0225  0.8370
   34MOL   H11916685   7.056   4.229   6.792 -0.0726  0.4275 -0.0508
   34MOL   H12016686   7.056   4.251   6.491  0.3382  0.1548  0.3902
   34MOL   H12116687   7.091   4.368   6.619 -0.4558 -0.2265  1.5276
   34MOL   H12216688   7.287   4.133   6.572  0.2550  0.5046  2.5641
   34MOL   H12316689   7.277   4.262   6.468 -2.0721  0.8767  0.1376
   34MOL   H12416690   7.450   4.331   6.608  0.7243 -2.3711 -1.0069
   34MOL   H12516691   7.309   4.432   6.642  0.5392 -0.8137 -0.9566
   34MOL   H12616692   7.359   4.314   6.757  1.1495 -0.4155 -0.3758
   34MOL   C12716693   7.065   3.598   6.858  0.6719 -0.1248  0.3824
   34MOL   C12816694   7.084   3.595   6.703  0.2290 -0.5972  0.3066
   34MOL   O12916695   6.950   3.603   6.654  0.1714  0.2061  0.5585
   34MOL   C13016696   6.947   3.640   6.519 -0.1082  0.2799  0.6682
   34MOL   C13116697   6.832   3.732   6.506 -0.6142  0.3712  0.3108
   34MOL   C13216698   6.700   3.670   6.556  0.0729  1.2763 -0.1319
   34MOL   C13316699   6.573   3.762   6.556  0.6566 -0.6602 -0.3352
   34MOL   C13416700   6.551   3.832   6.418 -0.3418  1.0325  0.2516
   34MOL   C13516701   6.528   3.730   6.303 -0.1804 -0.3872 -0.2739
   34MOL   H13616702   7.167   3.594   6.895  1.7893 -1.3433 -2.7436
   34MOL   H13716703   7.004   3.508   6.868  0.7443 -0.3072 -0.7938
   34MOL   H13816704   7.145   3.680   6.672 -1.2420  0.1953 -0.4572
   34MOL   H13916705   6.937   3.553   6.454  1.7374  1.0428 -0.6732
   34MOL   H14016706   7.036   3.695   6.487 -2.1081  2.0173 -2.2297
   34MOL   H14116707   6.821   3.768   6.404 -0.2603 -0.4118 -0.0030
   34MOL   H14216708   6.858   3.816   6.571 -0.8916  0.2147  0.6234
   34MOL   H14316709   6.673   3.575   6.510 -1.9375  0.6884  2.1187
   34MOL   H14416710   6.708   3.633   6.658 -1.3515  0.8613 -0.1510
   34MOL   H14516711   6.479   3.716   6.586  1.0300 -0.6305  0.9061
   34MOL   H14616712   6.591   3.841   6.629  0.2403  0.0903 -1.0342
   34MOL   H14716713   6.458   3.888   6.424 -1.3145 -0.3244 -1.3045
   34MOL   H14816714   6.632   3.902   6.399  1.9190 -1.2896  0.9596
   34MOL   H14916715   6.619   3.675   6.278  1.6066  1.8763  1.0015
   34MOL   H15016716   6.456   3.654   6.334  1.3426 -2.0220 -0.5826
   34MOL   H15116717   6.501   3.778   6.210  2.3868  1.2738 -0.2275
   34MOL   C15216718   7.140   3.461   6.655  0.1202  0.3120  0.5898
   34MOL   C15316719   7.281   3.423   6.702  0.5411 -0.7993 -0.0602
   34MOL   O15416720   7.287   3.278   6.695  0.0128 -0.8406 -0.0611
   34MOL   C15516721   7.243   3.212   6.815  0.0646 -0.3009  0.3690
   34MOL   C15616722   7.220   3.062   6.781  0.3108 -0.1459  0.7647
   34MOL   C15716723   7.133   2.988   6.890  0.1850 -0.4869 -0.0922
   34MOL   C15816724   7.202   2.965   7.023 -0.1016 -0.3063 -0.3324
   34MOL   C15916725   7.110   2.900   7.131 -0.7500 -0.2456  0.8648
   34MOL   C16016726   7.185   2.874   7.261  0.1380 -0.1492 -0.7442
   34MOL   H16116727   7.068   3.389   6.692 -0.2019  0.1595 -0.3240
   34MOL   H16216728   7.143   3.468   6.546  2.6485 -0.0574  0.5978
   34MOL   H16316729   7.307   3.459   6.801 -3.7983 -0.5591  1.1126
   34MOL   H16416730   7.143   3.252   6.831  0.4531  1.5888 -1.7287
   34MOL   H16516731   7.317   3.229   6.893  0.8632  1.0140 -0.6621
   34MOL   H16616732   7.312   3.004   6.777  1.2441  1.3892 -1.2806
   34MOL   H16716733   7.164   3.076   6.689 -2.0032  0.1335  2.1615
   34MOL   H16816734   7.035   3.033   6.901 -0.0796 -0.4165 -2.5312
   34MOL   H16916735   7.099   2.893   6.849 -1.6762  0.7279 -1.4007
   34MOL   H17016736   7.288   2.900   7.006  0.5728  0.3856  0.3688
   34MOL   H17116737   7.246   3.061   7.051  2.7889 -1.4273 -0.8663
   34MOL   H17216738   7.024   2.966   7.144 -0.1138  1.4841 -2.8490
   34MOL   H17316739   7.087   2.804   7.085  0.5606  0.4943 -1.4683
   34MOL   H17416740   7.250   2.787   7.262  1.0777  0.5536 -0.5108
   34MOL   H17516741   7.240   2.961   7.296 -0.5591 -0.0114  0.0354
   34MOL   H17616742   7.113   2.848   7.338 -0.3481  0.8070 -0.8597
   34MOL   C17716743   7.395   3.473   6.614 -0.5742 -0.0792  0.0395
   34MOL   C17816744   7.443   3.621   6.628 -0.8785 -0.3927 -0.1336
   34MOL   O17916745   7.481   3.631   6.760 -0.4456 -0.2886 -0.1740
   34MOL   C18016746   7.431   3.754   6.823 -0.3371 -0.1609  0.2468
   34MOL   C18116747   7.510   3.774   6.955 -0.4258  0.6406  0.3866
   34MOL   C18216748   7.476   3.896   7.031 -0.5291 -0.0291  0.3646
   34MOL   C18316749   7.548   3.895   7.165  0.4911  0.4930  0.2253
   34MOL   C18416750   7.466   3.822   7.265  0.5674 -0.0472 -0.1046
   34MOL   C18516751   7.536   3.808   7.409  0.1592  0.4879 -0.6429
   34MOL   H18616752   7.478   3.404   6.630 -0.2650  0.1359 -0.6042
   34MOL   H18716753   7.359   3.458   6.512 -1.1557 -0.3386  0.2852
   34MOL   H18816754   7.361   3.689   6.607  0.7399  1.4757 -0.6082
   34MOL   H18916755   7.322   3.761   6.828 -0.1962  2.0029  0.6506
   34MOL   H19016756   7.445   3.838   6.755  0.5556  0.1980  0.8631
   34MOL   H19116757   7.616   3.777   6.931 -0.6638 -0.2886 -0.8322
   34MOL   H19216758   7.491   3.689   7.021  0.2527 -0.0701 -0.3345
   34MOL   H19316759   7.480   3.977   6.959 -1.2183  0.5309  0.9370
   34MOL   H19416760   7.368   3.887   7.047 -0.6469 -1.0292 -0.8986
   34MOL   H19516761   7.654   3.870   7.157  0.9838  2.2694  0.9321
   34MOL   H19616762   7.548   3.999   7.198 -1.2264  1.4056 -2.4450
   34MOL   H19716763   7.363   3.854   7.282  0.4487 -0.0258 -0.8556
   34MOL   H19816764   7.447   3.717   7.242 -1.3374  0.5939 -1.6805
   34MOL   H19916765   7.527   3.895   7.474 -0.3159 -2.2987  3.2628
   34MOL   H20016766   7.507   3.718   7.464  0.8353 -0.5914 -2.0462
   34MOL   H20116767   7.643   3.791   7.415  0.0306  0.3373  1.6645
   34MOL   C20216768   7.557   3.672   6.529  0.8763 -0.5799 -0.0646
   34MOL   C20316769   7.491   3.732   6.400  0.4897 -0.8199 -0.6121
   34MOL   O20416770   7.423   3.630   6.327 -0.5442 -0.0185 -0.5127
   34MOL   C20516771   7.303   3.676   6.272  0.2266 -0.0219 -0.2676
   34MOL   C20616772   7.258   3.587   6.150  0.1351  1.1186 -0.0178
   34MOL   C20716773   7.108   3.596   6.108 -0.4408 -0.1158  0.3582
   34MOL   C20816774   7.058   3.482   6.021 -0.2682  0.9676 -0.1485
   34MOL   C20916775   7.140   3.463   5.886  0.4112 -0.2382 -0.0399
   34MOL   C21016776   7.116   3.343   5.799 -0.5797  0.2560 -0.1767
   34MOL   H21116777   7.614   3.747   6.584 -0.0110 -1.7357  2.5179
   34MOL   H21216778   7.617   3.588   6.494  0.1727 -1.4478  0.7651
   34MOL   H21316779   7.435   3.818   6.437  0.9171 -0.7574 -0.0962
   34MOL   H21416780   7.312   3.777   6.232 -1.0675 -0.4291 -1.6516
   34MOL   H21516781   7.222   3.674   6.345 -0.9814  0.5014 -1.5549
   34MOL   H21616782   7.269   3.487   6.193 -0.3687  1.3413  0.6512
   34MOL   H21716783   7.329   3.604   6.069  0.9254  1.2391  0.6998
   34MOL   H21816784   7.046   3.615   6.196 -2.4089 -0.7113 -0.8768
   34MOL   H21916785   7.105   3.683   6.043 -0.0697 -0.7131 -0.4712
   34MOL   H22016786   7.060   3.386   6.072  0.0041  0.1918 -1.6138
   34MOL   H22116787   6.953   3.502   5.999  0.4032  3.7208 -0.9819
   34MOL   H22216788   7.125   3.561   5.839  1.2511 -0.1979 -0.2338
   34MOL   H22316789   7.246   3.461   5.910  0.2411 -0.2287  0.7261
   34MOL   H22416790   7.171   3.361   5.708 -1.6229 -0.3863 -0.9465
   34MOL   H22516791   7.173   3.258   5.838 -1.3828 -0.3128 -0.2139
   34MOL   H22616792   7.012   3.322   5.771 -0.4926  0.0527 -0.3446
   34MOL   C22716793   7.596   3.772   6.290 -0.1509  0.2396  0.1857
   34MOL   C22816794   7.684   3.893   6.324 -0.1228 -0.0215 -0.2280
   34MOL   O22916795   0.005   3.913   6.228 -0.5289 -0.1486 -0.1026
   34MOL   C23016796   0.117   3.825   6.223 -0.1931 -0.4040 -0.4416
   34MOL   C23116797   0.205   3.860   6.094 -0.4580 -0.4886  0.6241
   34MOL   C23216798   0.130   3.807   5.973 -0.2559  0.4669  0.3377
   34MOL   C23316799   0.199   3.829   5.839  0.2596  0.0855 -0.1851
   34MOL   C23416800   0.092   3.895   5.740 -0.3158 -0.4587 -0.0379
   34MOL   C23516801   0.145   3.913   5.594 -0.0796  0.2552 -0.4903
   34MOL   H23616802   7.662   3.690   6.264  2.6259  2.0232  1.4295
   34MOL   H23716803   7.547   3.803   6.198  0.2826  2.3796  0.6503
   34MOL   H23816804   7.736   3.880   6.420  0.8930  2.0817 -0.4851
   34MOL   H23916805   0.086   3.721   6.217 -2.1045  0.0821  0.5663
   34MOL   H24016806   0.163   3.854   6.318 -4.0230  1.4417  0.9901
   34MOL   H24116807   0.299   3.808   6.111 -0.2377 -0.2318  0.2129
   34MOL   H24216808   0.217   3.968   6.092  0.6514 -0.5796  1.9659
   34MOL   H24316809   0.105   3.703   5.992 -0.4817  0.9472  2.8540
   34MOL   H24416810   0.033   3.857   5.977 -1.1693 -1.3220  0.7357
   34MOL   H24516811   0.289   3.890   5.844 -0.1407  0.8473 -1.7251
   34MOL   H24616812   0.243   3.736   5.803 -0.8502 -0.9811  1.1611
   34MOL   H24716813   7.776   3.840   5.736 -0.8192  0.5010 -1.9769
   34MOL   H24816814   0.060   3.987   5.788  1.1505  0.1084 -0.1281
   34MOL   H24916815   0.253   3.931   5.602  0.3918 -2.0909 -1.1497
   34MOL   H25016816   0.124   3.825   5.534 -0.9922  0.3255 -0.2806
   34MOL   H25116817   0.106   4.001   5.545 -2.5390 -2.0297 -2.7658
   34MOL   C25216818   7.602   4.027   6.331  0.1904  0.0303 -0.2636
   34MOL   C25316819   7.681   4.137   6.400  0.3831 -0.0735  0.1270
   34MOL   O25416820   7.663   4.110   6.535  0.1474 -0.0741 -0.2891
   34MOL   C25516821   0.001   4.154   6.613 -0.0560 -0.6129  0.4713
   34MOL   C25616822   7.722   4.151   6.751 -0.0559  0.4024 -0.8609
   34MOL   C25716823   0.034   4.209   6.859 -0.1700  0.0014 -0.2173
   34MOL   C25816824   7.747   4.210   6.997  0.2430  0.3025  0.0274
   34MOL   C25916825   0.062   4.276   7.094  0.1223  0.0603 -0.3026
   34MOL   C26016826   7.771   4.303   7.229  0.0587 -0.1916 -0.0885
   34MOL   H26116827   7.581   4.053   6.227  0.5803  3.5613  0.4770
   34MOL   H26216828   7.503   4.010   6.372  0.8613  0.3004  1.5121
   34MOL   H26316829   0.009   4.138   6.375  0.4705 -1.9113  0.3483
   34MOL   H26416830   0.046   4.249   6.585 -0.3788 -0.3693  0.7718
   34MOL   H26516831   0.084   4.083   6.611  0.1658 -0.3466  0.2766
   34MOL   H26616832   7.701   4.050   6.786 -2.4815  0.7269 -1.2768
   34MOL   H26716833   7.625   4.201   6.743 -0.2812  0.1912  0.4049
   34MOL   H26816834   0.125   4.150   6.873  0.3617  0.8160 -0.2058
   34MOL   H26916835   0.064   4.308   6.824 -0.4795 -0.2323 -1.1462
   34MOL   H27016836   7.666   4.283   7.003 -1.0595 -1.0762 -0.6764
   34MOL   H27116837   7.718   4.112   7.035 -0.5472  0.4437 -0.2001
   34MOL   H27216838   0.142   4.206   7.117 -0.5266  0.0634  2.2108
   34MOL   H27316839   0.105   4.366   7.050 -1.0192  0.3004 -0.9513
   34MOL   H27416840   7.723   4.400   7.242 -0.1582 -0.3122  0.0231
   34MOL   H27516841   7.702   4.222   7.255 -0.8077  0.1708 -1.1938
   34MOL   H27616842   0.079   4.296   7.294  0.3958 -0.6336 -0.5764
   34MOL   C27716843   7.621   4.279   6.365 -0.9265 -0.0259  0.5450
   34MOL   C27816844   7.621   4.320   6.219  0.2629 -0.4277 -0.1976
   34MOL   O27916845   7.589   4.459   6.203 -0.1687  0.0806  0.0969
   34MOL   C28016846   7.466   4.510   6.259  0.5375  0.3174 -0.0842
   34MOL   C28116847   7.430   4.650   6.203 -0.7142 -0.4951  0.1043
   34MOL   C28216848   7.405   4.634   6.048 -0.0691 -0.0464  0.4433
   34MOL   C28316849   7.398   4.766   5.973 -1.2377  0.4813 -0.4309
   34MOL   C28416850   7.380   4.747   5.824 -0.2155 -0.2912  0.0189
   34MOL   C28516851   7.357   4.876   5.754 -0.6020  0.1386  0.3425
   34MOL   H28616852   7.522   4.281   6.410 -0.2083 -0.6835  2.2344
   34MOL   H28716853   7.687   4.350   6.416 -0.9184  0.4886 -0.1831
   34MOL   H28816854   7.541   4.265   6.169 -0.4746 -0.3455  0.8769
   34MOL   H28916855   7.469   4.517   6.368  0.7619  1.6558 -0.1681
   34MOL   H29016856   7.382   4.447   6.229  1.4677 -0.9725 -0.0465
   34MOL   H29116857   7.508   4.724   6.224  1.2849 -2.3752 -0.4836
   34MOL   H29216858   7.332   4.683   6.237 -0.7384 -0.7796  0.3161
   34MOL   H29316859   7.484   4.573   6.004  0.6280  2.1745 -1.5320
   34MOL   H29416860   7.312   4.578   6.039 -1.2504  2.0529 -1.0412
   34MOL   H29516861   7.309   4.806   6.022 -0.6253 -1.1295  2.1099
   34MOL   H29616862   7.484   4.828   5.998 -0.7457 -0.5789  0.5475
   34MOL   H29716863   7.463   4.690   5.781  0.1583  1.2686 -1.3738
   34MOL   H29816864   7.291   4.685   5.818 -0.4757  0.1875 -1.4435
   34MOL   H29916865   7.264   4.921   5.790  0.1267  1.8267  0.1841
   34MOL   H30016866   7.440   4.945   5.772 -1.8712  1.0441  2.9071
   34MOL   H30116867   7.338   4.870   5.646 -1.6756  0.7987  0.4813
   34MOL   C30216868   7.754   4.300   6.152 -0.4306 -0.1000  0.3238
   34MOL   C30316869   7.759   4.337   6.001 -0.5733  0.0827  0.2441
   34MOL   O30416870   7.679   4.238   5.932  0.0831 -0.0420  0.2372
   34MOL   C30516871   7.586   4.280   5.833  0.0327 -0.1511  0.1532
   34MOL   C30616872   7.542   4.147   5.773 -0.2088 -0.3751  0.2974
   34MOL   C30716873   7.447   4.062   5.857  0.0518  0.1267 -0.4367
   34MOL   C30816874   7.308   4.114   5.888 -0.0815  0.5523  0.3363
   34MOL   C30916875   7.227   4.018   5.975  0.3446  0.0960 -0.1743
   34MOL   C31016876   7.201   4.071   6.123  0.3313  0.2453  0.0349
   34MOL   H31116877   0.046   4.371   6.195  0.1201 -0.7913  0.5704
   34MOL   H31216878   0.014   4.198   6.161  0.9964  0.1415 -2.5714
   34MOL   H31316879   7.723   4.437   5.979  1.6661  1.2059  1.5491
   34MOL   H31416880   7.629   4.342   5.754  1.4054 -2.8659 -1.3233
   34MOL   H31516881   7.505   4.341   5.873  1.0876  1.9046 -0.7641
   34MOL   H31616882   7.632   4.096   5.738  0.0149  0.2752 -0.0765
   34MOL   H31716883   7.487   4.171   5.683 -2.2905  1.0710  1.9097
   34MOL   H31816884   7.455   3.961   5.816 -2.3058 -0.2318 -0.1277
   34MOL   H31916885   7.506   4.042   5.947  0.1554 -0.9468 -0.7393
   34MOL   H32016886   7.316   4.206   5.947 -2.1070  1.6606 -1.0827
   34MOL   H32116887   7.257   4.144   5.797  1.5974  0.0888 -0.7842
   34MOL   H32216888   7.131   3.999   5.928 -0.1271 -1.1081  1.2283
   34MOL   H32316889   7.266   3.916   5.980 -0.0373  0.0298  2.3083
   34MOL   H32416890   7.122   4.145   6.112  1.6347  1.5939 -0.4842
   34MOL   H32516891   7.162   3.986   6.178  0.2606  0.4255  0.2668
   34MOL   H32616892   7.292   4.105   6.173  0.8741 -0.3740 -0.5303
   34MOL   C32716893   0.132   4.334   5.952  0.4101 -0.2404  0.5134
   34MOL   C32816894   0.147   4.362   5.798 -0.2762 -0.2530 -0.2296
   34MOL   O32916895   0.073   4.479   5.765 -0.2145  0.1308 -0.1276
   34MOL   C33016896   0.041   4.492   5.633  0.4678 -0.1557  0.8039
   34MOL   C33116897   7.746   4.627   5.622 -0.1680  0.0569 -0.3039
   34MOL   C33216898   7.665   4.647   5.496 -0.5767  0.1506 -1.0065
   34MOL   C33316899   7.626   4.800   5.477 -0.6322  0.1739 -0.1328
   34MOL   C33416900   7.590   4.843   5.341 -0.0605 -0.8929 -0.3539
   34MOL   C33516901   7.530   4.981   5.332  0.0785 -0.4247  0.2774
   34MOL   H33616902   0.166   4.236   5.984 -0.0700 -0.6092 -0.1071
   34MOL   H33716903   0.192   4.396   6.020 -1.5119  1.5203  0.6678
   34MOL   H33816904   0.108   4.272   5.751 -2.1460  0.3662  0.1058
   34MOL   H33916905   7.765   4.406   5.592  2.4574 -1.8084  1.5190
   34MOL   H34016906   0.128   4.493   5.568  0.5190  0.5188  0.8895
   34MOL   H34116907   0.044   4.703   5.644  0.1750  0.6097 -3.1632
   34MOL   H34216908   7.681   4.637   5.708  1.9757 -0.6798  1.4534
   34MOL   H34316909   7.716   4.609   5.407 -2.4069  0.3422 -2.1670
   34MOL   H34416910   7.569   4.595   5.499 -0.5257  0.1517  1.6547
   34MOL   H34516911   7.543   4.818   5.546 -0.3852 -0.8099  0.4272
   34MOL   H34616912   7.714   4.853   5.514 -0.9346 -0.2756  1.2513
   34MOL   H34716913   7.674   4.834   5.273  0.0055 -1.4176 -0.2101
   34MOL   H34816914   7.517   4.771   5.301 -0.1071 -1.2027  0.2856
   34MOL   H34916915   7.441   4.994   5.393 -0.0990 -0.4678  0.0259
   34MOL   H35016916   7.597   5.052   5.381 -1.8522  0.8389  1.1514
   34MOL   H35116917   7.503   5.016   5.233  1.5126 -1.6337 -0.5622
   34MOL   C35216918   0.298   4.384   5.766 -0.2893  0.2806  0.4100
   34MOL   C35316919   0.395   4.265   5.790 -0.2071 -0.1201 -0.1417
   34MOL   O35416920   0.533   4.301   5.809 -0.5539  0.0460 -0.1196
   34MOL   C35516921   0.572   4.358   5.932 -0.3361 -0.9817  0.1210
   34MOL   C35616922   0.718   4.418   5.926  0.1037  0.0660 -1.1352
   34MOL   C35716923   0.766   4.483   6.054  0.7437 -0.1390  0.3800
   34MOL   C35816924   0.922   4.512   6.041 -0.2571 -0.1509 -0.2541
   34MOL   C35916925   0.979   4.561   6.173  0.1751 -0.1744  0.5318
   34MOL   C36016926   1.136   4.564   6.169  0.0311  0.3690 -0.9431
   34MOL   H36116927   0.312   4.425   5.666 -1.7492  0.4446  0.2501
   34MOL   H36216928   0.333   4.470   5.823  0.9573 -0.7262  1.2021
   34MOL   H36316929   0.368   4.217   5.884 -1.0116 -0.5702 -0.6009
   34MOL   H36416930   0.573   4.290   6.017  1.4740  0.4983  1.3250
   34MOL   H36516931   0.504   4.437   5.961  0.3424 -0.6481  0.8209
   34MOL   H36616932   0.727   4.488   5.843 -1.1030  1.3498 -0.2050
   34MOL   H36716933   0.783   4.335   5.901 -0.2269 -1.1899  1.9462
   34MOL   H36816934   0.709   4.571   6.086 -1.2004 -1.2024 -0.0991
   34MOL   H36916935   0.752   4.417   6.139  0.1541 -0.1247  0.2965
   34MOL   H37016936   0.973   4.423   6.005  1.0595  0.7050 -0.5288
   34MOL   H37116937   0.945   4.586   5.964 -2.7670  0.6564 -0.2806
   34MOL   H37216938   0.939   4.662   6.185  0.8320  0.0900  0.5135
   34MOL   H37316939   0.941   4.511   6.262 -3.8765 -0.6943 -1.3778
   34MOL   H37416940   1.176   4.608   6.261  0.6019 -2.3168  0.1439
   34MOL   H37516941   1.183   4.466   6.163  0.1929  0.3351  0.4890
   34MOL   H37616942   1.183   4.630   6.096  2.2661  1.0198  0.9921
   34MOL   C37716943   0.386   4.155   5.677 -0.1246  0.1841 -0.3643
   34MOL   C37816944   0.462   4.188   5.548  0.6877 -0.2357  0.3590
   34MOL   O37916945   0.390   4.135   5.442 -0.1570 -0.5023  0.3511
   34MOL   C38016946   0.279   4.217   5.397  0.3350  0.0090  0.6406
   34MOL   C38116947   0.203   4.148   5.280 -0.4292  0.0828  0.5845
   34MOL   C38216948   0.278   4.148   5.147 -0.3278  0.3226  0.8841
   34MOL   C38316949   0.202   4.084   5.033 -0.0060  0.2568  0.2084
   34MOL   C38416950   0.266   4.103   4.895 -0.6193 -0.0128  0.0216
   34MOL   C38516951   0.408   4.040   4.897 -0.4134 -0.1749  0.0055
   34MOL   H38616952   0.422   4.061   5.719  0.9410  0.5220 -0.5147
   34MOL   H38716953   0.278   4.145   5.664 -0.1363  2.1042 -1.8667
   34MOL   H38816954   0.478   4.296   5.536  2.9486 -0.8002 -2.1947
   34MOL   H38916955   0.314   4.313   5.361 -0.8354 -0.1890 -1.1256
   34MOL   H39016956   0.208   4.247   5.474  1.0808  0.5359  1.1199
   34MOL   H39116957   0.121   4.216   5.260 -0.4310 -0.4189 -1.1539
   34MOL   H39216958   0.168   4.052   5.318  1.0939  0.1407  2.2135
   34MOL   H39316959   0.300   4.252   5.121  0.5576 -0.3497 -1.2091
   34MOL   H39416960   0.375   4.098   5.153 -1.1869 -2.3565 -4.1865
   34MOL   H39516961   0.203   3.977   5.051 -0.3182  0.6819  3.0156
   34MOL   H39616962   0.098   4.115   5.037  0.0943  1.0904 -2.3615
   34MOL   H39716963   0.191   4.064   4.827 -0.8188 -0.0466  0.2583
   34MOL   H39816964   0.260   4.209   4.870 -2.5792  0.1572  1.1260
   34MOL   H39916965   0.479   4.083   4.968 -0.9223  0.5715  0.0697
   34MOL   H40016966   0.391   3.933   4.914  2.6802 -0.9615 -1.6311
   34MOL   H40116967   0.456   4.056   4.801  0.3724  4.3269  1.0722
   34MOL   C40216968   0.595   4.122   5.545 -0.2274  0.0349 -0.4707
   34MOL   C40316969   0.683   4.151   5.421 -0.7942 -0.5474 -0.3545
   34MOL   O40416970   0.714   4.020   5.354 -0.1661 -0.5034  0.6016
   34MOL   C40516971   0.620   3.990   5.249  0.1109 -0.1487 -0.0757
   34MOL   C40616972   0.654   3.842   5.218  0.0344  0.4113 -0.3286
   34MOL   C40716973   0.599   3.782   5.093 -0.5193  0.3594 -0.4592
   34MOL   C40816974   0.636   3.640   5.073  0.5189 -0.4153  0.0135
   34MOL   C40916975   0.562   3.574   4.959 -0.4938 -0.1872  0.1930
   34MOL   C41016976   0.572   3.420   4.965  0.3011 -0.1398 -0.6525
   34MOL   H41116977   0.586   4.016   5.567  1.5064  0.1525  0.8687
   34MOL   H41216978   0.660   4.158   5.625 -1.8004 -1.3788  1.5049
   34MOL   H41316979   0.622   4.205   5.347  0.0511 -0.7885 -1.2385
   34MOL   H41416980   0.618   4.055   5.162  0.4752 -0.3112 -0.2053
   34MOL   H41516981   0.519   3.982   5.291  0.2637 -1.2943  0.1002
   34MOL   H41616982   0.617   3.780   5.300 -0.7123  0.1469 -0.8632
   34MOL   H41716983   0.762   3.829   5.222 -0.1952 -1.5927 -0.4002
   34MOL   H41816984   0.491   3.800   5.087 -0.7295 -1.4823 -2.7143
   34MOL   H41916985   0.650   3.825   5.007  0.0293 -1.8129 -1.2351
   34MOL   H42016986   0.745   3.630   5.072  0.4753 -0.9649  0.9543
   34MOL   H42116987   0.605   3.589   5.164  0.1888  0.0913  0.1844
   34MOL   H42216988   0.458   3.604   4.968  0.2219  2.2719  0.5201
   34MOL   H42316989   0.601   3.600   4.861  0.7675  0.1410  0.7758
   34MOL   H42416990   0.527   3.383   5.057  2.0234 -2.0550 -0.5709
   34MOL   H42516991   0.510   3.377   4.886 -0.9895  1.0663 -0.3324
   34MOL   H42616992   0.673   3.380   4.967  1.2023  2.0781 -0.3740
   34MOL   C42716993   0.823   4.216   5.457 -0.2472  0.2066 -0.0761
   34MOL   C42816994   0.824   4.350   5.540 -0.1346 -0.0152  0.0558
   34MOL   O42916995   0.961   4.384   5.558  0.4031  0.7627 -0.1362
   34MOL   C43016996   1.014   4.408   5.691 -0.4469  0.4461 -0.0809
   34MOL   C43116997   1.160   4.444   5.679  0.5515  0.2842 -0.4020
   34MOL   C43216998   1.226   4.510   5.805 -0.8866 -0.7034  0.1367
   34MOL   C43316999   1.377   4.526   5.797 -0.3899  0.3722  0.0373
   34MOL   C43417000   1.453   4.585   5.923 -0.7179  0.0336 -0.1891
   34MOL   C43517001   1.600   4.591   5.898 -0.1883  0.3650 -0.5201
   34MOL   H43617002   0.877   4.138   5.511 -0.0593  0.6181  0.3335
   34MOL   H43717003   0.885   4.218   5.368 -1.0650 -0.6975 -0.6795
   34MOL   H43817004   0.767   4.338   5.632 -2.2932 -0.3095 -1.2821
   34MOL   H43917005   1.007   4.321   5.756 -0.0833 -0.3853 -1.1482
   34MOL   H44017006   0.971   4.492   5.746  0.1284  0.7363 -0.0754
   34MOL   H44117007   1.180   4.510   5.594  1.6737 -1.1393 -1.2664
   34MOL   H44217008   1.217   4.355   5.653  0.0467 -0.5459  1.2577
   34MOL   H44317009   1.192   4.613   5.807  0.3899 -0.3097  1.3974
   34MOL   H44417010   1.203   4.459   5.899  1.2215 -0.6239  0.7174
   34MOL   H44517011   1.413   4.426   5.775 -0.1549  0.2122  1.0861
   34MOL   H44617012   1.394   4.587   5.708 -1.5917  0.8350  0.1173
   34MOL   H44717013   1.414   4.681   5.957 -0.3945  0.2322 -0.3787
   34MOL   H44817014   1.431   4.522   6.010 -0.1218  3.6184  2.6591
   34MOL   H44917015   1.637   4.651   5.981 -0.6804  0.1710 -0.1527
   34MOL   H45017016   1.639   4.489   5.890  1.4900  0.8883  0.8365
   34MOL   H45117017   1.620   4.645   5.806 -3.6556  1.1743 -0.8634
   34MOL   C45217018   0.751   4.456   5.454 -0.0013  0.2709  0.1721
   34MOL   C45317019   0.734   4.594   5.531 -0.1600 -0.2922  0.1948
   34MOL   O45417020   0.610   4.654   5.503  0.0378  0.4901 -0.4811
   34MOL   C45517021   0.523   4.676   5.614 -0.6835  0.0778  0.0309
   34MOL   C45617022   0.383   4.713   5.562  0.4549  0.0952  0.2676
   34MOL   C45717023   0.386   4.837   5.478  0.3304 -0.2147 -0.7536
   34MOL   C45817024   0.248   4.885   5.432  0.5135 -0.0590 -0.4930
   34MOL   C45917025   0.250   5.011   5.347  0.1491 -0.2397  0.8583
   34MOL   C46017026   0.107   5.036   5.302 -0.2456  0.8310  0.2287
   34MOL   H46117027   0.813   4.455   5.364  2.3907 -2.6285  1.7632
   34MOL   H46217028   0.656   4.411   5.425  1.3396 -3.1627  0.8784
   34MOL   H46317029   0.727   4.563   5.636  1.6705 -0.4341  0.2968
   34MOL   H46417030   0.551   4.768   5.667  1.0623 -0.3638 -0.0886
   34MOL   H46517031   0.518   4.593   5.684  1.9895 -0.6583 -0.5837
   34MOL   H46617032   0.314   4.732   5.645 -1.2641  0.3188 -1.1844
   34MOL   H46717033   0.347   4.623   5.511 -1.2680  0.5399  0.6444
   34MOL   H46817034   0.427   4.918   5.539 -0.7205 -2.0497  2.5564
   34MOL   H46917035   0.459   4.823   5.399  1.1408 -1.1831  0.1579
   34MOL   H47017036   0.193   4.801   5.392  0.8102 -0.6180  0.2726
   34MOL   H47117037   0.185   4.911   5.517 -0.2206  0.7897 -1.2894
   34MOL   H47217038   0.291   5.101   5.394 -0.3725  0.8664 -0.7614
   34MOL   H47317039   0.315   4.993   5.261 -0.1630  1.7391  0.1665
   34MOL   H47417040   0.079   4.956   5.233  1.1762  0.2702  0.2706
   34MOL   H47517041   0.035   5.030   5.383 -0.6490  2.8598  0.0459
   34MOL   H47617042   0.089   5.130   5.251  0.5355 -0.5511 -2.7301
   34MOL   C47717043   0.845   4.692   5.492 -0.3055 -0.1150 -0.4831
   34MOL   C47817044   0.851   4.819   5.575 -0.5911 -0.3821 -0.0551
   34MOL   O47917045   0.898   4.785   5.704 -0.2271  0.1077 -0.3317
   34MOL   C48017046   0.913   4.894   5.785  0.3107  0.1262 -0.7255
   34MOL   C48117047   0.946   4.860   5.935 -0.1454  0.1103  0.7599
   34MOL   C48217048   0.975   4.978   6.033  0.5177 -0.4253  0.2952
   34MOL   C48317049   1.100   5.063   6.003 -0.2015 -0.2183  0.3741
   34MOL   C48417050   1.132   5.189   6.090 -0.3299  0.2694 -0.0281
   34MOL   C48517051   1.271   5.245   6.057  0.6919  0.2330 -0.5017
   34MOL   H48617052   0.940   4.639   5.502  1.7477  3.0423 -2.3865
   34MOL   H48717053   0.834   4.708   5.385  0.2000 -3.0835 -1.0291
   34MOL   H48817054   0.921   4.890   5.532 -0.8119  0.0935  0.3682
   34MOL   H48917055   0.826   4.959   5.773  0.8745  0.8290 -1.0283
   34MOL   H49017056   0.998   4.954   5.754 -1.1013  2.6162  0.0735
   34MOL   H49117057   1.034   4.796   5.924  0.2834  0.9780 -1.0327
   34MOL   H49217058   0.867   4.806   5.986 -0.4596 -0.9014 -0.7789
   34MOL   H49317059   0.888   5.043   6.027  1.1047  0.4926  1.4422
   34MOL   H49417060   0.996   4.937   6.131 -2.0730 -2.4461  0.0689
   34MOL   H49517061   1.186   4.996   6.002 -1.0688 -1.3605 -1.3443
   34MOL   H49617062   1.103   5.091   5.897  0.9263 -0.4071  0.3506
   34MOL   H49717063   1.044   5.253   6.076 -0.3693  0.1864 -0.1619
   34MOL   H49817064   1.138   5.149   6.191  2.6862  1.3159  0.2586
   34MOL   H49917065   1.354   5.184   6.093 -0.2405 -0.5086  0.4159
   34MOL   H50017066   1.277   5.263   5.949 -2.7929  1.3245 -0.5593
   34MOL   H50117067   1.274   5.344   6.103  1.8587 -0.6653  1.4303
   34MOL   H50217068   0.757   4.874   5.569 -0.6346 -0.6493 -1.8887
   35MOL     C117069   2.611   1.201   6.181 -0.2576 -0.2949  0.2880
   35MOL     C217070   2.715   1.269   6.091  0.0083  0.2002 -0.2236
   35MOL     O317071   2.838   1.211   6.117  0.0193  0.0012 -0.5631
   35MOL     C417072   2.861   1.075   6.065  0.2864 -0.1259 -0.1869
   35MOL     C517073   3.002   1.043   6.114 -0.0414 -0.1667  0.1196
   35MOL     C617074   3.051   0.909   6.062 -0.2986 -0.2922  0.3504
   35MOL     C717075   3.155   0.846   6.158 -0.0426  0.0523 -0.1259
   35MOL     C817076   3.186   0.699   6.132 -0.0184 -0.2166 -0.3270
   35MOL     C917077   3.094   0.608   6.212  0.2249  0.3502 -0.4035
   35MOL    H1017078   2.632   1.218   6.287 -0.1525 -2.4709  0.6379
   35MOL    H1117079   2.509   1.229   6.154 -0.2396 -0.3083  0.2037
   35MOL    H1217080   2.698   1.257   5.984 -0.1622  0.5559 -0.2370
   35MOL    H1317081   2.853   1.081   5.957  1.1215  0.8560 -0.1960
   35MOL    H1417082   2.788   1.002   6.100 -0.3053 -0.2256 -1.5867
   35MOL    H1517083   3.003   1.045   6.223 -1.0275  1.5802  0.1163
   35MOL    H1617084   3.076   1.121   6.094  1.1152 -1.2187  0.2594
   35MOL    H1717085   2.970   0.835   6.064 -0.1927 -0.5319 -2.0817
   35MOL    H1817086   3.092   0.907   5.961  0.8050 -0.9235  0.8042
   35MOL    H1917087   3.251   0.897   6.167  0.9567 -1.4777 -1.7813
   35MOL    H2017088   3.113   0.845   6.258  1.2784 -0.6902  0.4300
   35MOL    H2117089   3.291   0.679   6.154  0.4352  2.5029  0.2142
   35MOL    H2217090   3.164   0.684   6.027  0.5494 -0.5837 -0.3942
   35MOL    H2317091   3.124   0.608   6.317  0.5025 -1.2031 -0.4624
   35MOL    H2417092   2.992   0.645   6.212 -0.1540 -0.6598 -1.6646
   35MOL    H2517093   3.087   0.505   6.177 -1.7367  0.1077  0.6553
   35MOL    H2617094   2.608   1.092   6.174  0.0122 -0.2553 -0.4700
   35MOL    C2717095   2.709   1.422   6.112  0.4690  0.0540 -0.0805
   35MOL    C2817096   2.597   1.509   6.042  0.4918  0.3303  0.4239
   35MOL    O2917097   2.657   1.636   6.048 -0.0595 -0.0119 -0.9852
   35MOL    C3017098   2.608   1.724   6.158 -0.3466 -0.2115 -0.2039
   35MOL    C3117099   2.696   1.846   6.135 -0.1597  0.4675 -0.0452
   35MOL    C3217100   2.837   1.842   6.194  0.8246 -0.2231  0.7151
   35MOL    C3317101   2.923   1.962   6.166  0.3933  0.2316  0.2163
   35MOL    C3417102   3.073   1.933   6.169 -0.2044 -0.7443  0.1984
   35MOL    C3517103   3.140   1.887   6.299  0.2649  0.2210  0.1204
   35MOL    H3617104   2.720   1.432   6.220 -0.6342  0.3653  0.0080
   35MOL    H3717105   2.803   1.459   6.072  0.4840 -0.3426 -0.4196
   35MOL    H3817106   2.502   1.510   6.096  0.1112  1.5708 -0.2433
   35MOL    H3917107   2.630   1.685   6.258  0.0258 -2.8512 -1.2527
   35MOL    H4017108   2.502   1.734   6.134 -0.6493  0.1160  1.2380
   35MOL    H4117109   2.657   1.935   6.185 -1.1779  0.3941 -0.6795
   35MOL    H4217110   2.688   1.873   6.030 -2.1926  0.1040 -0.0152
   35MOL    H4317111   2.845   1.816   6.300  2.5707  2.5957  1.3230
   35MOL    H4417112   2.883   1.753   6.150 -2.7685 -1.5478 -0.5283
   35MOL    H4517113   2.898   1.995   6.066 -0.8544 -0.3691  0.3117
   35MOL    H4617114   2.887   2.047   6.224  0.5208 -0.4015  1.2419
   35MOL    H4717115   3.097   1.861   6.090 -0.0203  0.5693 -0.9735
   35MOL    H4817116   3.123   2.026   6.140 -0.6209 -0.2804  0.9715
   35MOL    H4917117   3.248   1.880   6.289  0.6260  1.7974  2.5986
   35MOL    H5017118   3.129   1.963   6.376 -3.1053  0.3144 -0.3530
   35MOL    H5117119   3.088   1.796   6.331 -0.2484 -0.4926 -2.5606
   35MOL    C5217120   2.583   1.480   5.893  0.0934 -0.0498  0.0298
   35MOL    C5317121   2.478   1.574   5.821  0.1497  0.1301 -0.7063
   35MOL    O5417122   2.488   1.551   5.684  0.1338  0.1132 -0.0290
   35MOL    C5517123   2.593   1.626   5.622  0.6565  0.3304 -0.4421
   35MOL    C5617124   2.625   1.562   5.495  0.3382  0.3383  0.1648
   35MOL    C5717125   2.760   1.585   5.438 -0.1826  0.1311 -0.6537
   35MOL    C5817126   2.763   1.717   5.357  0.3019  0.4238 -0.0023
   35MOL    C5917127   2.898   1.773   5.316  0.1895  0.3944  0.1337
   35MOL    C6017128   2.959   1.681   5.209  0.7725 -0.2818 -0.7091
   35MOL    H6117129   2.552   1.376   5.885 -3.7199  0.9563  0.6828
   35MOL    H6217130   2.686   1.478   5.858  0.9386 -1.4463  2.5322
   35MOL    H6317131   2.506   1.676   5.849 -1.0098 -0.2965  2.2402
   35MOL    H6417132   2.679   1.641   5.687  0.7817 -1.3133 -0.2006
   35MOL    H6517133   2.560   1.726   5.592  1.1842  0.4345 -0.6760
   35MOL    H6617134   2.562   1.600   5.414  1.6170 -0.2635 -1.1394
   35MOL    H6717135   2.606   1.455   5.496  2.0137  0.0361  2.1872
   35MOL    H6817136   2.838   1.568   5.513 -1.6821  0.1892  0.9618
   35MOL    H6917137   2.773   1.503   5.368 -0.0885  0.6110 -1.2055
   35MOL    H7017138   2.691   1.714   5.276 -0.2370 -0.2002  0.4947
   35MOL    H7117139   2.716   1.793   5.419  0.6839 -0.5152  1.4639
   35MOL    H7217140   2.890   1.866   5.260  1.3697  0.6018  0.2900
   35MOL    H7317141   2.968   1.781   5.400 -1.3759 -2.2858  1.7692
   35MOL    H7417142   3.058   1.718   5.184  0.8978 -1.6857 -2.3948
   35MOL    H7517143   2.957   1.578   5.242 -1.2435  1.0200  3.5718
   35MOL    H7617144   2.891   1.680   5.124  2.0701 -0.1089 -1.7619
   35MOL    C7717145   2.329   1.553   5.860  0.3012 -0.2615  0.2112
   35MOL    C7817146   2.253   1.693   5.865  0.1511 -0.5498 -0.4915
   35MOL    O7917147   2.139   1.694   5.953  0.3859 -0.0322 -0.3793
   35MOL    C8017148   2.148   1.769   6.067 -0.3315  0.3709 -0.1871
   35MOL    C8117149   2.006   1.784   6.139  0.3590  0.1517  0.0831
   35MOL    C8217150   1.972   1.666   6.242  0.4769 -0.6451  0.6790
   35MOL    C8317151   1.836   1.692   6.312 -0.5366 -0.8338  0.6635
   35MOL    C8417152   1.773   1.587   6.404 -0.5610  1.4714 -1.0127
   35MOL    C8517153   1.860   1.564   6.529  0.5222  0.0746 -0.1180
   35MOL    H8617154   2.315   1.508   5.958  0.2659  0.3522  0.4922
   35MOL    H8717155   2.275   1.486   5.794 -0.1782 -1.0032  1.3297
   35MOL    H8817156   2.321   1.759   5.919 -0.1516  1.3491 -2.3352
   35MOL    H8917157   2.180   1.870   6.043  1.1835  0.0215  0.3394
   35MOL    H9017158   2.212   1.719   6.139 -1.4644 -2.1245 -0.8440
   35MOL    H9117159   1.928   1.791   6.063  0.9205  4.1224 -0.2114
   35MOL    H9217160   2.019   1.881   6.187  0.7281  0.2499 -0.2188
   35MOL    H9317161   1.960   1.574   6.185  0.9915  0.3780 -1.1295
   35MOL    H9417162   2.054   1.631   6.305 -0.4790  0.3053  2.4886
   35MOL    H9517163   1.848   1.786   6.367  0.5129 -0.7207  0.2535
   35MOL    H9617164   1.760   1.707   6.236 -1.9343 -0.9010  2.0185
   35MOL    H9717165   1.671   1.615   6.431 -0.2312  0.4644  1.4239
   35MOL    H9817166   1.751   1.490   6.360  1.2519  0.7592 -0.3890
   35MOL    H9917167   1.818   1.493   6.601  0.6503  1.7573  1.6595
   35MOL   H10017168   1.965   1.543   6.506  0.2090 -0.1945 -1.3330
   35MOL   H10117169   1.868   1.664   6.573  0.8228  0.0226 -0.0476
   35MOL   C10217170   2.219   1.749   5.723  0.0587 -0.1463  0.0980
   35MOL   C10317171   2.308   1.867   5.676  0.4494  0.4732  0.4854
   35MOL   O10417172   2.261   1.894   5.543  0.3346  0.0508  0.9447
   35MOL   C10517173   2.328   1.811   5.440 -0.1136  0.1766  0.1894
   35MOL   C10617174   2.278   1.851   5.300 -0.0880  0.3139  0.3105
   35MOL   C10717175   2.354   1.969   5.240  0.2699 -0.8653 -0.2864
   35MOL   C10817176   2.299   2.013   5.102  0.6404 -0.1289 -0.0980
   35MOL   C10917177   2.390   2.114   5.031  0.3217 -0.3978 -0.0362
   35MOL   C11017178   2.354   2.126   4.885  0.4060  0.0982  0.2684
   35MOL   H11117179   2.226   1.663   5.656  0.2627  0.5368 -0.7801
   35MOL   H11217180   2.114   1.774   5.714 -0.4809 -2.3633 -0.0417
   35MOL   H11317181   2.411   1.834   5.683  0.5056  0.1131 -1.5014
   35MOL   H11417182   2.297   1.707   5.448 -0.2804  0.3280  1.6103
   35MOL   H11517183   2.436   1.824   5.435 -0.0043 -1.2641 -2.0745
   35MOL   H11617184   2.173   1.876   5.307 -0.8170 -2.5936  0.5326
   35MOL   H11717185   2.272   1.769   5.229 -0.7496 -0.8042  1.6290
   35MOL   H11817186   2.357   2.054   5.309  0.8229 -1.7491  0.7974
   35MOL   H11917187   2.459   1.940   5.239 -0.4282 -3.5953 -3.6672
   35MOL   H12017188   2.299   1.928   5.035  1.6845 -0.9935  0.9906
   35MOL   H12117189   2.200   2.053   5.124  0.4801 -0.1667 -0.7512
   35MOL   H12217190   2.383   2.209   5.086  1.5521 -0.2706 -0.0905
   35MOL   H12317191   2.492   2.076   5.028  0.3896 -0.1752 -0.5475
   35MOL   H12417192   2.418   2.194   4.829  2.6412 -1.0916  1.3440
   35MOL   H12517193   2.370   2.029   4.838  0.9831  1.1894 -1.8585
   35MOL   H12617194   2.249   2.157   4.881  0.8548  1.5883 -0.4656
   35MOL   C12717195   2.283   1.991   5.753 -0.4105  0.1172 -0.3796
   35MOL   C12817196   2.392   2.090   5.716 -0.4313  0.1208 -0.3223
   35MOL   O12917197   2.511   2.042   5.784  0.2332  0.4825 -0.2440
   35MOL   C13017198   2.630   2.072   5.708 -0.0599  0.0175  1.0628
   35MOL   C13117199   2.753   1.995   5.754  0.3341  0.4894  0.2074
   35MOL   C13217200   2.871   2.027   5.671 -0.2324  0.3158  0.1758
   35MOL   C13317201   2.989   1.936   5.712  0.0128  0.2540 -0.3813
   35MOL   C13417202   3.122   1.982   5.653 -0.8238 -0.3365 -0.0228
   35MOL   C13517203   3.239   1.880   5.665 -0.2619  0.0842  0.3766
   35MOL   H13617204   2.184   2.033   5.738 -0.2970  0.9058  0.9286
   35MOL   H13717205   2.282   1.971   5.860 -0.5453 -1.1615 -0.6121
   35MOL   H13817206   2.404   2.076   5.609 -0.0981 -1.2175 -0.1088
   35MOL   H13917207   2.643   2.180   5.718  1.0019 -0.0325  0.2631
   35MOL   H14017208   2.623   2.047   5.602 -0.8218  1.4482  0.7602
   35MOL   H14117209   2.733   1.888   5.750 -0.1814  0.5920 -0.0016
   35MOL   H14217210   2.771   2.016   5.860  1.7717 -2.6661  0.6684
   35MOL   H14317211   2.856   2.004   5.565  2.7342 -0.3307 -0.1738
   35MOL   H14417212   2.893   2.134   5.673 -1.4797  0.5939 -0.6627
   35MOL   H14517213   3.006   1.944   5.819 -1.1585 -0.2779 -0.1518
   35MOL   H14617214   2.967   1.835   5.677 -1.3399  0.5974 -0.5548
   35MOL   H14717215   3.096   1.998   5.548 -1.5751  2.5622  0.5354
   35MOL   H14817216   3.160   2.073   5.700  1.0791 -0.6564 -0.9031
   35MOL   H14917217   3.216   1.784   5.617  1.0782 -0.5274  0.9202
   35MOL   H15017218   3.333   1.910   5.619 -1.1694 -0.6018 -2.0146
   35MOL   H15117219   3.266   1.857   5.768 -0.8610 -2.3834  0.0170
   35MOL   C15217220   2.371   2.239   5.772 -0.4921  0.1479  0.6474
   35MOL   C15317221   2.294   2.332   5.681  0.2504  0.7828 -0.7075
   35MOL   O15417222   2.241   2.438   5.759  0.0435 -0.3419 -0.1002
   35MOL   C15517223   2.128   2.396   5.832 -0.1758  0.0346  0.2325
   35MOL   C15617224   2.059   2.527   5.866 -0.1958 -0.5520  0.3854
   35MOL   C15717225   2.016   2.608   5.742 -0.1805 -0.7589  0.2047
   35MOL   C15817226   2.003   2.754   5.782 -0.2827  0.3256 -0.0796
   35MOL   C15917227   1.912   2.832   5.688  0.4361  0.1476  0.1446
   35MOL   C16017228   1.867   2.971   5.737 -0.5385 -0.1548 -0.0750
   35MOL   H16117229   2.340   2.246   5.876  0.7917  1.2694  0.9868
   35MOL   H16217230   2.472   2.281   5.772 -0.5410  0.2861 -0.7020
   35MOL   H16317231   2.217   2.270   5.633  0.1861  0.7895 -0.6118
   35MOL   H16417232   2.163   2.350   5.924  1.9678  0.6816 -0.2380
   35MOL   H16517233   2.057   2.333   5.778 -0.2545  1.7046 -1.6548
   35MOL   H16617234   2.126   2.591   5.924 -0.3575  0.4241 -0.4975
   35MOL   H16717235   1.973   2.507   5.931 -1.5481  1.6235 -0.6754
   35MOL   H16817236   2.091   2.603   5.663 -1.1901 -0.0811 -0.8151
   35MOL   H16917237   1.922   2.574   5.698 -0.7677 -0.8549  1.5085
   35MOL   H17017238   1.960   2.774   5.880 -0.0286  1.2966 -0.1621
   35MOL   H17117239   2.102   2.797   5.795 -0.0883 -0.0252 -0.3941
   35MOL   H17217240   1.961   2.849   5.592 -1.5445  2.0659 -0.5789
   35MOL   H17317241   1.826   2.772   5.659  0.0526  0.9264 -0.3568
   35MOL   H17417242   1.953   3.037   5.752  0.7874 -1.7792 -0.3684
   35MOL   H17517243   1.803   3.023   5.667  0.4138 -1.1678 -1.7184
   35MOL   H17617244   1.812   2.957   5.830  0.7667 -1.4077  0.5296
   35MOL   C17717245   2.372   2.390   5.561 -1.1259 -0.0784  0.6029
   35MOL   C17817246   2.279   2.447   5.455 -0.5363  0.2144  0.2138
   35MOL   O17917247   2.369   2.511   5.362  0.3443 -0.2646 -0.0062
   35MOL   C18017248   2.429   2.637   5.408  0.2081  0.7909  0.4923
   35MOL   C18117249   2.399   2.740   5.297  0.7475 -0.3906  0.4195
   35MOL   C18217250   2.432   2.884   5.339 -0.2497 -0.1950 -0.1935
   35MOL   C18317251   2.348   2.997   5.273  0.1322 -0.0200 -0.5095
   35MOL   C18417252   2.391   3.140   5.326  0.2382  0.1790 -0.0394
   35MOL   C18517253   2.344   3.255   5.247 -0.0646 -0.6959 -0.5200
   35MOL   H18617254   2.442   2.466   5.595 -0.7098 -0.0168 -0.3555
   35MOL   H18717255   2.446   2.313   5.539 -0.0787  0.8251  0.9455
   35MOL   H18817256   2.213   2.519   5.503  1.0045  1.1369  0.9665
   35MOL   H18917257   2.526   2.620   5.455 -0.0549 -1.5367  0.2389
   35MOL   H19017258   2.373   2.673   5.494 -0.3644 -0.3669  0.6125
   35MOL   H19117259   2.292   2.733   5.277  1.0293 -1.2362 -0.8394
   35MOL   H19217260   2.454   2.723   5.205 -0.8712  0.3373 -0.6996
   35MOL   H19317261   2.424   2.903   5.446  0.6238 -1.1097  0.0306
   35MOL   H19417262   2.537   2.902   5.317 -0.2958 -0.2413 -0.4580
   35MOL   H19517263   2.365   3.002   5.165  2.0314  1.0101 -0.1667
   35MOL   H19617264   2.243   2.975   5.291  0.3670  0.3497  1.3182
   35MOL   H19717265   2.368   3.146   5.433  1.2891 -1.9291  0.3073
   35MOL   H19817266   2.499   3.154   5.332 -0.0560  3.0582 -0.3706
   35MOL   H19917267   2.356   3.243   5.139  1.7112 -5.1176  0.0352
   35MOL   H20017268   2.236   3.266   5.252 -0.0255 -0.9716  1.1042
   35MOL   H20117269   2.396   3.344   5.281  1.0622 -0.8686 -1.7227
   35MOL   C20217270   2.201   2.341   5.375 -0.0307  0.1414 -0.1063
   35MOL   C20317271   2.113   2.400   5.264  0.3359  0.0156  0.6339
   35MOL   O20417272   2.016   2.484   5.321 -0.1998  0.3785  0.1550
   35MOL   C20517273   2.003   2.606   5.256  0.0277  0.6044  0.0575
   35MOL   C20617274   1.898   2.687   5.324 -0.0155  0.2347 -0.3334
   35MOL   C20717275   1.762   2.660   5.265 -0.4199  0.2342  0.4754
   35MOL   C20817276   1.658   2.754   5.323  0.0852 -0.1750 -0.5898
   35MOL   C20917277   1.526   2.749   5.242  0.0988  0.5652  0.3892
   35MOL   C21017278   1.535   2.781   5.093 -0.0705 -0.2381 -0.3688
   35MOL   H21117279   2.272   2.281   5.318 -0.2522  0.1270 -0.3651
   35MOL   H21217280   2.145   2.283   5.448  0.4583  0.4107  0.4916
   35MOL   H21317281   2.169   2.446   5.183 -1.4502  0.7204 -0.2320
   35MOL   H21417282   1.977   2.581   5.154 -1.6825 -1.2431  0.9047
   35MOL   H21517283   2.099   2.657   5.264 -0.4806  1.5025  0.5596
   35MOL   H21617284   1.910   2.793   5.303  0.9395  0.1197 -0.4063
   35MOL   H21717285   1.893   2.661   5.430  0.6917 -3.4060 -1.1317
   35MOL   H21817286   1.766   2.676   5.157  0.5619 -1.0377  0.3137
   35MOL   H21917287   1.736   2.556   5.283 -0.4797  0.1537 -0.0648
   35MOL   H22017288   1.644   2.746   5.431  0.8383  0.7505 -0.4151
   35MOL   H22117289   1.681   2.860   5.318  3.3852 -0.8349 -0.7639
   35MOL   H22217290   1.482   2.649   5.241  0.5246  0.3782 -0.4665
   35MOL   H22317291   1.449   2.815   5.284 -1.5199 -1.0674  0.0485
   35MOL   H22417292   1.438   2.809   5.053  0.2812  0.2360 -0.8976
   35MOL   H22517293   1.603   2.862   5.067  0.8010 -0.3030  1.6098
   35MOL   H22617294   1.559   2.694   5.031  1.1205  0.5574 -1.0450
   35MOL   C22717295   2.029   2.297   5.192 -0.8294 -0.1868  0.6412
   35MOL   C22817296   1.922   2.220   5.274  0.5665  0.3835 -0.4018
   35MOL   O22917297   1.818   2.183   5.183  0.3021 -1.0231 -0.1552
   35MOL   C23017298   1.708   2.275   5.184  0.4839  0.7088 -0.5420
   35MOL   C23117299   1.589   2.202   5.113  0.0101 -0.8834 -0.7970
   35MOL   C23217300   1.468   2.296   5.111  0.0379  0.2343 -0.4468
   35MOL   C23317301   1.396   2.303   5.239 -0.7423 -0.5991 -0.4394
   35MOL   C23417302   1.246   2.349   5.238 -0.5970  0.4245  0.1121
   35MOL   C23517303   1.201   2.417   5.368 -0.0875  0.2313 -0.2787
   35MOL   H23617304   1.976   2.352   5.115  1.5366  2.4919  0.8212
   35MOL   H23717305   2.090   2.236   5.125 -1.0900  0.4351 -0.1685
   35MOL   H23817306   1.882   2.283   5.354 -0.0964 -2.5229  1.6446
   35MOL   H23917307   1.729   2.364   5.125 -1.3070 -0.1260 -2.5273
   35MOL   H24017308   1.686   2.301   5.287  0.3790  0.6273 -0.5434
   35MOL   H24117309   1.562   2.114   5.171  0.8699  0.8095  2.2774
   35MOL   H24217310   1.614   2.169   5.012 -2.0914 -4.2301 -0.3070
   35MOL   H24317311   1.487   2.395   5.070  0.0433 -0.4646 -2.2186
   35MOL   H24417312   1.407   2.247   5.034 -0.6867 -0.0141  0.2803
   35MOL   H24517313   1.396   2.199   5.273 -0.8722 -1.3248 -2.5756
   35MOL   H24617314   1.455   2.361   5.310  0.8830 -1.3577 -1.1519
   35MOL   H24717315   1.245   2.420   5.155  0.6564  3.0076  2.2406
   35MOL   H24817316   1.169   2.274   5.218 -0.8811  1.1019 -1.3878
   35MOL   H24917317   1.123   2.491   5.346 -0.4790 -0.2504 -0.5105
   35MOL   H25017318   1.162   2.337   5.430  0.4814 -0.5625 -0.9458
   35MOL   H25117319   1.281   2.463   5.426 -0.8590  3.1316 -1.4257
   35MOL   C25217320   1.973   2.095   5.346 -0.2926  0.3292  0.7985
   35MOL   C25317321   1.862   2.024   5.420  0.8998  0.1303  0.0546
   35MOL   O25417322   1.819   2.120   5.520 -0.4333 -0.4667 -0.1501
   35MOL   C25517323   1.677   2.142   5.526  0.0499  0.2559  0.0456
   35MOL   C25617324   1.654   2.282   5.580  0.1202 -0.3507 -0.0871
   35MOL   C25717325   1.502   2.296   5.620  0.4578 -0.0376  0.0565
   35MOL   C25817326   1.459   2.440   5.664  0.3510  0.3456  0.5690
   35MOL   C25917327   1.323   2.435   5.731 -0.2996  0.6660  0.5018
   35MOL   C26017328   1.268   2.571   5.771  0.3787 -0.0470 -0.9847
   35MOL   H26117329   2.007   2.023   5.271 -0.9350  0.8792 -0.0268
   35MOL   H26217330   2.050   2.107   5.421  0.2931 -1.2692  0.4848
   35MOL   H26317331   1.791   1.997   5.342 -0.9030 -3.7913  2.9092
   35MOL   H26417332   1.620   2.064   5.576  1.6942 -1.3808 -0.5682
   35MOL   H26517333   1.632   2.131   5.427 -1.5403  0.3624  0.7477
   35MOL   H26617334   1.687   2.363   5.516  1.7398  0.3758  1.6515
   35MOL   H26717335   1.718   2.280   5.668 -0.8446  1.3272  0.6673
   35MOL   H26817336   1.444   2.257   5.536  0.6385  0.2453 -0.1958
   35MOL   H26917337   1.478   2.221   5.696 -0.6488  2.5056  2.3016
   35MOL   H27017338   1.526   2.482   5.738  0.7945 -1.5269  1.2412
   35MOL   H27117339   1.465   2.513   5.583  0.8740  2.1875  2.2302
   35MOL   H27217340   1.259   2.411   5.646 -0.0625 -0.8124  0.7204
   35MOL   H27317341   1.317   2.365   5.814 -2.0079  0.9919  0.6728
   35MOL   H27417342   1.170   2.560   5.817  1.8683  0.1067  2.3984
   35MOL   H27517343   1.327   2.618   5.850  0.3639  1.2319 -1.7294
   35MOL   H27617344   1.263   2.645   5.692  1.6838  0.0937 -0.9597
   35MOL   C27717345   1.906   1.894   5.484  0.1008  0.1907  0.3976
   35MOL   C27817346   1.790   1.815   5.550  0.0395 -0.1869  0.1772
   35MOL   O27917347   1.685   1.779   5.462 -1.0098 -0.7080 -0.3595
   35MOL   C28017348   1.566   1.771   5.540 -0.6345 -0.3450  0.1551
   35MOL   C28117349   1.454   1.751   5.438  0.6140  0.2048  0.0665
   35MOL   C28217350   1.418   1.879   5.361  0.4689  0.3048 -0.6896
   35MOL   C28317351   1.309   1.852   5.252  0.3424  0.0259 -0.0125
   35MOL   C28417352   1.321   1.942   5.127 -0.2210 -0.0732 -0.3221
   35MOL   C28517353   1.217   1.903   5.014 -0.7720 -0.7616 -0.2863
   35MOL   H28617354   1.964   1.837   5.410  0.2017  0.2549  0.4274
   35MOL   H28717355   1.979   1.927   5.558  0.8455  2.6217 -1.3364
   35MOL   H28817356   1.748   1.888   5.620 -0.4562  0.8789 -1.2051
   35MOL   H28917357   1.542   1.856   5.604 -0.2590 -1.6679  2.1136
   35MOL   H29017358   1.559   1.677   5.596  1.5319 -2.0919 -2.3799
   35MOL   H29117359   1.364   1.709   5.483  0.1323  1.9981  0.8312
   35MOL   H29217360   1.475   1.671   5.368  1.9963 -1.9263  2.8375
   35MOL   H29317361   1.370   1.955   5.422 -1.2064 -0.5913 -0.8548
   35MOL   H29417362   1.509   1.912   5.311  1.9630 -0.6816  1.2721
   35MOL   H29517363   1.306   1.755   5.202 -1.8414 -0.5604  1.2046
   35MOL   H29617364   1.209   1.862   5.293 -0.4481 -2.5170 -1.1957
   35MOL   H29717365   1.318   2.050   5.143 -2.0501 -0.2672  0.8277
   35MOL   H29817366   1.421   1.927   5.088 -0.3273 -1.3316 -0.1456
   35MOL   H29917367   1.224   1.982   4.939  0.5575 -2.0994 -1.5944
   35MOL   H30017368   1.254   1.807   4.980 -0.6082 -0.6637 -0.3875
   35MOL   H30117369   1.116   1.881   5.049 -1.2106  3.3279  1.2568
   35MOL   C30217370   1.829   1.693   5.636 -0.5439 -0.0887 -0.0081
   35MOL   C30317371   1.861   1.551   5.563  0.6510  0.3247  0.0905
   35MOL   O30417372   1.918   1.460   5.668  0.3774  0.2554  0.3811
   35MOL   C30517373   1.817   1.392   5.749 -0.3920  0.4212 -0.3598
   35MOL   C30617374   1.879   1.287   5.851 -0.0762  0.1650  2.1677
   35MOL   C30717375   1.779   1.189   5.906  0.6576  0.0980 -0.4265
   35MOL   C30817376   1.835   1.095   6.013 -0.1458  0.5458  0.3759
   35MOL   C30917377   1.730   0.996   6.056  0.2725 -0.2826  0.5955
   35MOL   C31017378   1.631   1.032   6.173 -0.1039 -0.0654  0.6749
   35MOL   H31117379   1.913   1.715   5.701 -0.1266  0.9174 -0.8632
   35MOL   H31217380   1.755   1.674   5.713 -1.3896  0.0789 -0.7681
   35MOL   H31317381   1.770   1.510   5.519  0.7221 -0.5397  0.7360
   35MOL   H31417382   1.739   1.348   5.687 -1.8505  1.4112  0.7382
   35MOL   H31517383   1.761   1.467   5.805  0.7457  1.4209 -0.5374
   35MOL   H31617384   1.932   1.332   5.935 -0.5852  2.8748  1.0622
   35MOL   H31717385   1.948   1.236   5.783 -2.3354 -0.4091  0.2309
   35MOL   H31817386   1.704   1.255   5.949  2.0148  1.3106  0.1356
   35MOL   H31917387   1.737   1.135   5.822 -1.6254  0.0504  0.7290
   35MOL   H32017388   1.925   1.047   5.974 -0.1210  0.4539  0.5488
   35MOL   H32117389   1.871   1.143   6.104  0.4455  0.2452  0.3020
   35MOL   H32217390   1.674   0.964   5.969  0.0855 -1.1541  1.0272
   35MOL   H32317391   1.782   0.901   6.070  0.7369 -0.4629 -2.0910
   35MOL   H32417392   1.576   1.126   6.164 -1.1774 -0.6709  0.7254
   35MOL   H32517393   1.546   0.963   6.178 -0.4651  0.2244 -1.0107
   35MOL   H32617394   1.674   1.027   6.273  1.3286  1.6964  0.1774
   35MOL   C32717395   1.979   1.568   5.455  0.2230 -0.7055 -0.0107
   35MOL   C32817396   2.019   1.437   5.382  0.1727 -1.0718  0.6118
   35MOL   O32917397   2.070   1.466   5.255 -0.3084 -0.0914 -0.2935
   35MOL   C33017398   1.959   1.476   5.164  0.0363 -0.0229 -0.5500
   35MOL   C33117399   2.032   1.485   5.030  0.0906 -0.2064 -0.0651
   35MOL   C33217400   2.134   1.385   4.985  0.1137  0.5441 -0.3910
   35MOL   C33317401   2.176   1.404   4.838  0.8980  0.0865  0.2728
   35MOL   C33417402   2.065   1.395   4.733  0.1982 -0.0781  0.7967
   35MOL   C33517403   2.127   1.359   4.597  0.2122  0.3251  0.4808
   35MOL   H33617404   2.061   1.624   5.500 -0.6208 -0.5060  1.3074
   35MOL   H33717405   1.937   1.640   5.384 -0.5078 -0.9257  0.1968
   35MOL   H33817406   1.929   1.376   5.388 -1.3897  0.7916 -2.1429
   35MOL   H33917407   1.907   1.570   5.185  1.7066  0.5093  1.5191
   35MOL   H34017408   1.893   1.390   5.171  0.8825 -0.6493 -0.0830
   35MOL   H34117409   2.083   1.581   5.026  0.9944 -0.6255  1.0955
   35MOL   H34217410   1.953   1.480   4.955 -0.5805 -0.3319  0.6416
   35MOL   H34317411   2.222   1.366   5.047 -0.1519  1.1870  0.1874
   35MOL   H34417412   2.082   1.291   5.002 -0.3189  0.9945  0.8512
   35MOL   H34517413   2.246   1.487   4.830  0.7549  0.1155 -0.7432
   35MOL   H34617414   2.232   1.311   4.823 -2.3513 -2.0110  0.6739
   35MOL   H34717415   2.008   1.307   4.762 -0.7137  0.0818 -0.4524
   35MOL   H34817416   2.001   1.483   4.733  0.7773  0.4109 -2.5200
   35MOL   H34917417   2.055   1.364   4.515  0.6489 -0.0781  0.0656
   35MOL   H35017418   2.195   1.442   4.573  1.2467 -0.3052  1.2160
   35MOL   H35117419   2.180   1.264   4.599 -0.3587 -0.0311 -0.8218
   35MOL   C35217420   2.121   1.351   5.451  0.4918 -0.4397  0.5030
   35MOL   C35317421   2.144   1.215   5.380 -0.3048  0.0079 -0.3631
   35MOL   O35417422   2.024   1.139   5.409  0.4209  0.3830  0.4694
   35MOL   C35517423   1.998   1.025   5.332 -0.5407  0.6511  0.6308
   35MOL   C35617424   1.860   0.981   5.380  1.0517 -0.0329 -0.7159
   35MOL   C35717425   1.837   0.933   5.523 -0.1041 -0.2002  0.1735
   35MOL   C35817426   1.717   0.846   5.549 -0.2741 -0.5659 -0.5335
   35MOL   C35917427   1.584   0.912   5.503  0.6090 -0.2357 -0.2288
   35MOL   C36017428   1.463   0.845   5.566  1.2278  0.1765  0.5773
   35MOL   H36117429   2.215   1.406   5.457  0.1222  0.2474  0.0112
   35MOL   H36217430   2.100   1.317   5.553 -0.4350  0.0306  0.4792
   35MOL   H36317431   2.142   1.229   5.272  1.8668  1.2658 -0.2722
   35MOL   H36417432   2.078   0.953   5.345 -0.4363 -0.4565 -4.9509
   35MOL   H36517433   1.992   1.045   5.225  0.2675  0.7649  0.6074
   35MOL   H36617434   1.825   0.898   5.319  1.0937 -1.0190  0.5653
   35MOL   H36717435   1.788   1.063   5.368  1.5197  0.5478  0.3837
   35MOL   H36817436   1.923   0.884   5.569  0.3021  0.8539  0.5572
   35MOL   H36917437   1.834   1.018   5.591 -0.7047 -1.2188  1.4455
   35MOL   H37017438   1.726   0.746   5.504 -0.1962  0.0990 -2.0286
   35MOL   H37117439   1.684   0.831   5.652 -0.8203  0.6437 -0.5261
   35MOL   H37217440   1.578   1.016   5.537  1.1234 -0.0233 -0.7761
   35MOL   H37317441   1.577   0.914   5.395  3.1915  0.3812 -0.4124
   35MOL   H37417442   1.373   0.897   5.534  0.2876 -0.8150  1.5534
   35MOL   H37517443   1.446   0.742   5.537 -0.5701  1.0200 -1.5334
   35MOL   H37617444   1.458   0.848   5.675 -2.0446 -2.9101  0.5978
   35MOL   C37717445   2.281   1.146   5.427 -0.5119  0.0024  0.2797
   35MOL   C37817446   2.302   1.127   5.581  0.1796  0.6037 -0.7432
   35MOL   O37917447   2.432   1.075   5.614  0.5654  0.5109 -0.4172
   35MOL   C38017448   2.530   1.174   5.624  0.3638  0.6262 -0.1742
   35MOL   C38117449   2.655   1.099   5.683 -0.3699 -0.2295  0.3170
   35MOL   C38217450   2.726   1.003   5.586 -0.3673 -0.8892  0.2850
   35MOL   C38317451   2.834   0.920   5.654  0.5072 -0.1228  0.0557
   35MOL   C38417452   2.861   0.803   5.562 -0.3359  0.1226  0.0331
   35MOL   C38517453   2.962   0.702   5.617  0.0530  0.1955  0.0183
   35MOL   H38617454   2.309   1.059   5.368 -0.4840 -0.5017  1.0270
   35MOL   H38717455   2.357   1.216   5.393 -0.3123 -0.9951 -1.3786
   35MOL   H38817456   2.289   1.219   5.638 -0.4640 -1.3737  2.4075
   35MOL   H38917457   2.506   1.249   5.700  1.6653 -0.2829  1.1634
   35MOL   H39017458   2.541   1.223   5.526  0.1452  0.4256 -0.2973
   35MOL   H39117459   2.622   1.037   5.767 -0.9134 -0.7362 -0.2627
   35MOL   H39217460   2.721   1.175   5.725 -0.8443  0.3089  0.0772
   35MOL   H39317461   2.650   0.944   5.537 -1.1289  1.2219 -1.1455
   35MOL   H39417462   2.769   1.064   5.506 -2.5775  0.9376  0.4258
   35MOL   H39517463   2.928   0.975   5.650  0.7135 -0.3479  1.7333
   35MOL   H39617464   2.814   0.893   5.757  0.4493  0.2436  0.1421
   35MOL   H39717465   2.768   0.751   5.535 -0.0384 -0.2632 -0.2599
   35MOL   H39817466   2.889   0.827   5.459  0.5468 -1.6826 -0.1634
   35MOL   H39917467   2.938   0.677   5.720 -2.1062 -1.8502 -0.9425
   35MOL   H40017468   2.960   0.612   5.556  0.9090  0.3971 -0.3117
   35MOL   H40117469   3.065   0.738   5.621  0.0546  0.0523  1.6396
   35MOL   C40217470   2.202   1.023   5.641  0.3899 -1.3224  0.2121
   35MOL   C40317471   2.226   0.992   5.794  0.6921  0.1271 -0.1508
   35MOL   O40417472   2.113   0.913   5.845 -0.3746  0.0572 -0.3762
   35MOL   C40517473   2.121   0.776   5.815 -0.4186 -0.2131  0.0774
   35MOL   C40617474   1.997   0.699   5.852  0.4021 -1.0904 -0.0698
   35MOL   C40717475   1.977   0.674   5.993  0.5808  0.3249 -0.7105
   35MOL   C40817476   1.846   0.598   6.035 -0.8008  0.1263  0.6376
   35MOL   C40917477   1.816   0.599   6.183  0.0857  0.1521  0.1989
   35MOL   C41017478   1.668   0.579   6.226  0.1434 -0.1379  0.6401
   35MOL   H41117479   2.218   0.936   5.577  0.4938 -1.5521  0.5512
   35MOL   H41217480   2.099   1.052   5.618 -0.1844 -2.1795  1.6084
   35MOL   H41317481   2.312   0.927   5.805  1.1283  0.6004 -0.6858
   35MOL   H41417482   2.212   0.732   5.855 -0.6562 -2.9742 -2.2525
   35MOL   H41517483   2.127   0.772   5.706 -0.2019 -1.9602  0.1329
   35MOL   H41617484   2.009   0.601   5.806  0.2258 -0.6253 -1.1230
   35MOL   H41717485   1.911   0.747   5.805 -0.1350 -0.0235  1.9816
   35MOL   H41817486   2.063   0.616   6.027  0.2703 -0.0170 -0.4969
   35MOL   H41917487   1.984   0.773   6.036  1.1821  0.3264 -0.8040
   35MOL   H42017488   1.762   0.643   5.981 -0.8716 -0.2165  0.4644
   35MOL   H42117489   1.846   0.494   6.004 -1.3247  1.0694 -2.7439
   35MOL   H42217490   1.875   0.529   6.243 -1.9922  0.4316  2.6402
   35MOL   H42317491   1.848   0.688   6.236 -2.0698  0.2620  1.3816
   35MOL   H42417492   1.602   0.661   6.199 -0.1869 -0.9435 -1.0097
   35MOL   H42517493   1.628   0.493   6.171  0.4671  0.1013  0.0298
   35MOL   H42617494   1.669   0.568   6.335 -1.5264 -0.7547  0.6038
   35MOL   C42717495   2.240   1.119   5.883 -0.0172 -0.4687 -0.1373
   35MOL   C42817496   2.258   1.095   6.033  0.3018 -0.1505 -0.2491
   35MOL   O42917497   2.383   1.032   6.050  0.8811  0.2623 -0.6339
   35MOL   C43017498   2.359   0.908   6.114 -0.2230  0.5685  0.3828
   35MOL   C43117499   2.486   0.828   6.112 -0.1828  0.3372 -0.6053
   35MOL   C43217500   2.530   0.763   5.976 -0.7734  0.1526 -0.1783
   35MOL   C43317501   2.636   0.652   6.002 -0.1806  0.6488  0.0029
   35MOL   C43417502   2.664   0.571   5.874  0.7697 -0.2125 -0.5074
   35MOL   C43517503   2.736   0.435   5.902  0.2406 -0.9734  0.5549
   35MOL   H43617504   2.335   1.164   5.856  0.3321 -1.2238 -0.1817
   35MOL   H43717505   2.150   1.178   5.864  1.2578  1.5546  0.0261
   35MOL   H43817506   2.165   1.042   6.047 -0.6001  1.3371 -0.4758
   35MOL   H43917507   2.283   0.836   6.081  0.9850 -0.1754 -0.8508
   35MOL   H44017508   2.324   0.922   6.216  1.5608 -0.9605  1.2318
   35MOL   H44117509   2.465   0.752   6.187  0.1657 -1.8010 -2.6154
   35MOL   H44217510   2.555   0.897   6.161 -1.9475  0.9623  1.0738
   35MOL   H44317511   2.441   0.715   5.934  0.3526 -1.0390 -1.2148
   35MOL   H44417512   2.565   0.829   5.897  1.4199 -1.1304 -0.3127
   35MOL   H44517513   2.728   0.685   6.050 -0.2651  0.1994  0.4764
   35MOL   H44617514   2.594   0.580   6.073 -0.3529  1.4155  0.6802
   35MOL   H44717515   2.565   0.556   5.831  0.6938  0.7845 -0.6892
   35MOL   H44817516   2.718   0.631   5.801  0.9721 -1.7757 -1.6552
   35MOL   H44917517   2.666   0.373   5.959 -0.1870  0.1437  1.2659
   35MOL   H45017518   2.757   0.387   5.807 -0.4250 -1.4610  0.6452
   35MOL   H45117519   2.829   0.458   5.955  0.1251  0.6055  0.0951
   35MOL   C45217520   2.241   1.231   6.108  0.4674 -0.3023 -0.5894
   35MOL   C45317521   2.237   1.230   6.260 -0.0442  0.4290  0.3188
   35MOL   O45417522   2.106   1.186   6.287  0.3336 -0.4765 -0.2702
   35MOL   C45517523   2.102   1.088   6.389  0.1343  0.3450  0.1819
   35MOL   C45617524   1.959   1.039   6.414  0.2545 -0.4228 -0.0773
   35MOL   C45717525   1.947   0.917   6.505 -0.2436  0.3232 -0.5729
   35MOL   C45817526   1.800   0.891   6.541 -0.4465  0.4111 -0.2449
   35MOL   C45917527   1.761   0.758   6.612  0.2309  0.4158  0.0277
   35MOL   C46017528   1.608   0.750   6.634  0.3079 -0.0286 -0.3414
   35MOL   H46117529   2.327   1.295   6.085 -1.8742  2.5084 -1.8039
   35MOL   H46217530   2.160   1.295   6.073  2.1250  3.2733  1.7567
   35MOL   H46317531   2.308   1.165   6.312  0.2744 -0.3593 -1.0642
   35MOL   H46417532   2.145   1.137   6.477 -0.9022  2.4679 -0.4459
   35MOL   H46517533   2.161   1.000   6.363  1.2177  1.1712 -0.2222
   35MOL   H46617534   1.905   1.006   6.325 -0.6505  0.2887  0.2054
   35MOL   H46717535   1.894   1.122   6.440  4.0736  2.6545  0.0948
   35MOL   H46817536   1.994   0.831   6.457 -1.0337  0.1322 -1.0205
   35MOL   H46917537   1.991   0.929   6.604  0.5030  2.0562 -1.1069
   35MOL   H47017538   1.776   0.978   6.602 -0.8128 -0.4762  0.8768
   35MOL   H47117539   1.752   0.902   6.444  1.9631 -0.4381 -1.5829
   35MOL   H47217540   1.803   0.668   6.568 -0.8686 -0.7929  1.3840
   35MOL   H47317541   1.814   0.761   6.708  0.7255 -1.4142 -0.1791
   35MOL   H47417542   1.550   0.758   6.542 -0.5819  0.7246  0.2778
   35MOL   H47517543   1.575   0.660   6.685  2.6955  0.0573  1.4676
   35MOL   H47617544   1.571   0.845   6.672  3.0012  0.3247  1.5218
   35MOL   C47717545   2.263   1.373   6.321  0.5530 -0.5429 -0.3522
   35MOL   C47817546   2.403   1.416   6.364 -0.1133 -0.1287  0.2819
   35MOL   O47917547   2.404   1.555   6.405  0.1724  0.2842 -0.3692
   35MOL   C48017548   2.335   1.598   6.516 -0.1570 -0.0612  0.2928
   35MOL   C48117549   2.361   1.742   6.535  0.2869  0.5400  0.1834
   35MOL   C48217550   2.333   1.828   6.414  0.1841  0.6846 -0.4440
   35MOL   C48317551   2.387   1.980   6.428 -0.1896 -0.2395 -0.2347
   35MOL   C48417552   2.376   2.068   6.305 -0.1933  0.2626  0.5827
   35MOL   C48517553   2.424   2.210   6.341 -0.2831  0.0427  0.7595
   35MOL   H48617554   2.225   1.447   6.251 -2.9673 -0.7670  1.2034
   35MOL   H48717555   2.192   1.369   6.404 -0.0088  0.4941 -0.7763
   35MOL   H48817556   2.447   1.361   6.447 -0.8306 -0.9189  0.1429
   35MOL   H48917557   2.349   1.540   6.607  1.0514 -0.2097  0.0069
   35MOL   H49017558   2.228   1.583   6.498 -0.3261 -1.5628  2.3431
   35MOL   H49117559   2.467   1.742   6.561  0.1438 -0.5616  0.8105
   35MOL   H49217560   2.307   1.789   6.617  1.2105 -1.5598  2.0487
   35MOL   H49317561   2.376   1.776   6.328  2.3595  0.2143  0.8887
   35MOL   H49417562   2.225   1.832   6.404  0.1973 -0.0507 -0.9027
   35MOL   H49517563   2.355   2.037   6.516 -0.0165  0.1123 -0.3951
   35MOL   H49617564   2.493   1.967   6.449  0.3002  0.5208 -2.1331
   35MOL   H49717565   2.433   2.040   6.217 -2.9004  1.6299 -1.6743
   35MOL   H49817566   2.273   2.063   6.268  0.2076 -1.3489 -0.3498
   35MOL   H49917567   2.386   2.239   6.439 -0.7203 -1.0545  0.9207
   35MOL   H50017568   2.529   2.195   6.364 -0.4793  0.0737  1.6756
   35MOL   H50117569   2.409   2.281   6.260 -2.1114  0.4271  1.4097
   35MOL   H50217570   2.476   1.394   6.287 -0.6105  1.0850 -0.5539
   36MOL     C117571   7.763   3.057   2.747 -0.7475 -0.4797  0.3672
   36MOL     C217572   7.680   3.085   2.627 -0.3338  0.4546 -0.3758
   36MOL     O317573   7.623   2.960   2.587 -0.1982 -0.5434 -0.1218
   36MOL     C417574   7.482   2.962   2.596  1.0650  0.1814 -0.0634
   36MOL     C517575   7.408   2.828   2.572 -0.1040 -0.3250  0.0078
   36MOL     C617576   7.256   2.836   2.572  0.6562 -0.0572  0.0851
   36MOL     C717577   7.169   2.721   2.517 -0.2052 -0.1317  0.3127
   36MOL     C817578   7.175   2.603   2.607  0.5552  0.4122  0.8419
   36MOL     C917579   7.075   2.614   2.726 -0.2779 -0.4566 -0.0059
   36MOL    H1017580   7.706   3.030   2.836 -2.1817 -2.4751 -1.0983
   36MOL    H1117581   0.053   2.977   2.719 -1.6987 -0.8691 -0.9043
   36MOL    H1217582   7.601   3.154   2.656 -0.0955  0.3312  0.5773
   36MOL    H1317583   7.436   3.035   2.529  2.1428  0.5372 -0.4128
   36MOL    H1417584   7.454   2.992   2.697  0.2377 -0.4560 -0.0940
   36MOL    H1517585   7.437   2.745   2.636 -0.7959 -0.5785  0.0002
   36MOL    H1617586   7.422   2.786   2.472 -0.3622 -1.7027  0.5379
   36MOL    H1717587   7.211   2.854   2.670 -1.3891 -2.7986 -0.2957
   36MOL    H1817588   7.217   2.908   2.500 -2.0690  0.6907  2.2403
   36MOL    H1917589   7.063   2.742   2.499  0.1415  0.0784 -1.6634
   36MOL    H2017590   7.214   2.687   2.424  0.1469 -1.2759  0.8943
   36MOL    H2117591   7.276   2.592   2.648  0.1892 -3.0315  0.9025
   36MOL    H2217592   7.152   2.517   2.545  0.4317  1.1209 -0.1127
   36MOL    H2317593   7.097   2.700   2.789 -1.1981 -2.3801  3.0746
   36MOL    H2417594   6.971   2.622   2.694 -0.4623 -0.0394  0.6821
   36MOL    H2517595   7.093   2.528   2.792 -1.9154 -3.1138 -2.8923
   36MOL    H2617596   0.036   3.150   2.770 -0.1944 -0.2537 -1.6768
   36MOL    C2717597   7.754   3.159   2.511 -0.5016 -0.4779 -0.1134
   36MOL    C2817598   7.675   3.202   2.387  0.7832  0.4602 -0.0281
   36MOL    O2917599   7.740   3.316   2.331  0.2180 -0.2632 -0.0115
   36MOL    C3017600   7.647   3.422   2.316 -0.4062 -0.0193  0.2734
   36MOL    C3117601   7.711   3.519   2.211  0.4991  0.7962 -0.0993
   36MOL    C3217602   7.621   3.641   2.173 -0.7520 -0.6089 -0.4695
   36MOL    C3317603   7.708   3.751   2.113 -0.0548 -0.2165  0.7393
   36MOL    C3417604   7.650   3.891   2.126 -0.5047 -0.0217  0.0990
   36MOL    C3517605   7.725   4.007   2.052 -0.3659  0.2560  0.3198
   36MOL    H3617606   0.021   3.245   2.560  1.7795  0.0091 -2.9141
   36MOL    H3717607   0.063   3.097   2.490  0.9459  0.3474  3.1286
   36MOL    H3817608   7.578   3.222   2.432  0.5665 -2.4149  0.8747
   36MOL    H3917609   7.635   3.474   2.411  1.6983  3.4895 -1.3044
   36MOL    H4017610   7.550   3.393   2.274 -0.3173 -0.4660  0.3691
   36MOL    H4117611   7.739   3.457   2.126 -0.4380  0.5438 -0.2329
   36MOL    H4217612   0.027   3.557   2.248  0.2665  0.1627  1.1629
   36MOL    H4317613   7.545   3.605   2.105 -2.9931  1.0506  1.0481
   36MOL    H4417614   7.556   3.677   2.253  0.8498  0.9179  0.1719
   36MOL    H4517615   0.024   3.748   2.167  0.2770 -0.3069  0.1631
   36MOL    H4617616   7.733   3.725   2.010 -3.2273 -0.3935 -0.0218
   36MOL    H4717617   7.545   3.879   2.100 -0.5961  2.7480 -1.0347
   36MOL    H4817618   7.654   3.910   2.233  1.1909 -1.1911  0.2609
   36MOL    H4917619   7.673   4.101   2.069 -0.1726  0.3295  0.4938
   36MOL    H5017620   0.048   4.023   2.088  1.1626 -1.9053 -2.8059
   36MOL    H5117621   7.733   3.975   1.948  0.5604 -0.2271  0.5280
   36MOL    C5217622   7.665   3.091   2.283 -0.2176  0.0160 -0.4194
   36MOL    C5317623   0.020   3.040   2.222 -0.0690 -0.2869  0.0728
   36MOL    O5417624   0.002   2.896   2.197 -0.4991 -0.2384 -0.3417
   36MOL    C5517625   0.027   2.801   2.305 -0.0549  0.0697  0.1614
   36MOL    C5617626   7.678   2.724   2.347  0.4143 -0.0259 -1.0400
   36MOL    C5717627   7.675   2.579   2.296  0.7407  0.1107 -0.1064
   36MOL    C5817628   7.552   2.500   2.351 -0.5133  0.3212 -0.3044
   36MOL    C5917629   7.571   2.355   2.312  0.2805  0.1573 -0.2022
   36MOL    C6017630   7.476   2.269   2.383 -0.2174 -0.3989 -0.2245
   36MOL    H6117631   7.584   3.123   2.218 -0.8552 -0.5734  0.0804
   36MOL    H6217632   7.608   3.009   2.326  0.2251 -1.7745 -3.0620
   36MOL    H6317633   0.106   3.056   2.286  0.4773  0.0284 -0.7348
   36MOL    H6417634   0.068   2.856   2.389  2.2140  0.2745 -1.0599
   36MOL    H6517635   0.106   2.726   2.300  0.0122  0.0966  0.8332
   36MOL    H6617636   7.594   2.774   2.299 -1.0857 -1.8160 -0.3261
   36MOL    H6717637   7.645   2.739   2.450  1.1035 -1.7052 -0.5454
   36MOL    H6817638   7.680   2.571   2.187 -2.7468  2.4483 -0.5294
   36MOL    H6917639   7.764   2.527   2.332 -0.4266 -0.3056  2.2435
   36MOL    H7017640   7.551   2.507   2.459  0.2384  1.4333 -0.3646
   36MOL    H7117641   7.462   2.538   2.302 -0.4303 -1.1616 -1.6601
   36MOL    H7217642   7.557   2.350   2.204  1.3731  0.8034 -0.3851
   36MOL    H7317643   7.672   2.321   2.333  0.2074  1.4384  2.4983
   36MOL    H7417644   7.517   2.246   2.482 -1.6981 -0.6151  0.3555
   36MOL    H7517645   7.380   2.319   2.394 -0.3240 -0.6944  0.1810
   36MOL    H7617646   7.441   2.183   2.327  0.2859 -1.4551  1.0630
   36MOL    C7717647   0.045   3.099   2.080 -0.7092 -0.0200  0.6100
   36MOL    C7817648   0.184   3.049   2.020  0.2870 -0.0909  0.6812
   36MOL    O7917649   0.244   3.161   1.965 -0.2702  0.0269 -0.4357
   36MOL    C8017650   0.324   3.242   2.050  0.2571  0.0579  0.6022
   36MOL    C8117651   0.372   3.356   1.964 -0.0255  0.0227  0.0566
   36MOL    C8217652   0.264   3.451   1.903 -1.3745 -0.0606  0.5935
   36MOL    C8317653   0.310   3.585   1.836  0.0595  0.0033 -0.7206
   36MOL    C8417654   0.190   3.668   1.791  0.4029 -1.0088  0.4645
   36MOL    C8517655   0.214   3.768   1.683  0.5724  0.1309  0.3085
   36MOL    H8617656   0.048   3.205   2.105  0.9266  0.5682 -1.8679
   36MOL    H8717657   7.741   3.067   2.016  1.6346 -0.8063 -2.1002
   36MOL    H8817658   0.246   3.014   2.103  2.6797  2.8350  0.2244
   36MOL    H8917659   0.405   3.177   2.083  0.0090  0.1240  1.3529
   36MOL    H9017660   0.271   3.279   2.137  0.3059 -0.3233  0.7933
   36MOL    H9117661   0.424   3.302   1.885 -0.0601  2.9287 -2.0608
   36MOL    H9217662   0.447   3.411   2.020  1.0070 -1.2962 -0.0125
   36MOL    H9317663   0.226   3.383   1.827 -0.7043  0.9263 -0.6375
   36MOL    H9417664   0.190   3.478   1.978 -0.8752 -0.0716  1.0941
   36MOL    H9517665   0.377   3.643   1.899 -1.5503  1.9751 -0.7881
   36MOL    H9617666   0.368   3.555   1.749 -0.0499 -0.5526 -0.6042
   36MOL    H9717667   0.100   3.616   1.758  0.4989 -1.6442  1.1888
   36MOL    H9817668   0.146   3.718   1.878 -0.3530  0.1518 -0.5711
   36MOL    H9917669   0.136   3.840   1.660 -0.6854 -0.8879  1.3093
   36MOL   H10017670   0.308   3.823   1.694 -0.1055  1.4472 -0.4526
   36MOL   H10117671   0.222   3.716   1.588  1.1404  0.3413  0.2349
   36MOL   C10217672   0.170   2.944   1.908  0.2588  0.1222  0.7780
   36MOL   C10317673   0.288   2.856   1.858 -0.3608 -0.2897 -0.1265
   36MOL   O10417674   0.397   2.930   1.825  0.2709  0.1703 -0.4465
   36MOL   C10517675   0.396   3.011   1.705 -0.1192 -0.3021  0.9532
   36MOL   C10617676   0.548   3.056   1.677  0.5312 -0.3923  0.1139
   36MOL   C10717677   0.564   3.148   1.558  0.0388 -0.2899  0.5578
   36MOL   C10817678   0.527   3.291   1.577 -0.3007 -0.3033  0.3408
   36MOL   C10917679   0.604   3.386   1.477 -0.4690  0.3369 -0.4418
   36MOL   C11017680   0.554   3.523   1.480 -0.3114 -0.1002  0.4750
   36MOL   H11117681   0.086   2.878   1.931  1.4666 -1.8178 -0.2398
   36MOL   H11217682   0.144   3.000   1.818  1.0637 -2.9485 -1.4492
   36MOL   H11317683   0.243   2.803   1.773  0.6076 -0.4977 -0.5151
   36MOL   H11417684   0.328   3.096   1.713 -1.0706 -1.0257  0.6469
   36MOL   H11517685   0.355   2.952   1.624 -0.0665  0.5178  0.3263
   36MOL   H11617686   0.601   2.964   1.655  0.0343 -0.8661  0.8759
   36MOL   H11717687   0.594   3.106   1.762  0.0766  0.8758 -0.3706
   36MOL   H11817688   0.670   3.146   1.534 -0.2015  0.3412 -0.5289
   36MOL   H11917689   0.511   3.108   1.472 -3.4131  1.6959  1.6755
   36MOL   H12017690   0.419   3.298   1.565 -0.3216 -2.0664 -0.6523
   36MOL   H12117691   0.553   3.330   1.676 -0.1232 -2.3410  1.1139
   36MOL   H12217692   0.705   3.372   1.516 -0.4858  1.8031  0.1622
   36MOL   H12317693   0.605   3.336   1.381  0.1249 -1.9398  0.7067
   36MOL   H12417694   0.613   3.583   1.410  1.1061 -2.6695 -0.5867
   36MOL   H12517695   0.454   3.542   1.440  0.5567  2.0066 -0.8155
   36MOL   H12617696   0.559   3.575   1.576 -1.0293  1.5648 -0.3495
   36MOL   C12717697   0.340   2.747   1.951 -0.1578 -0.4899 -0.2423
   36MOL   C12817698   0.276   2.605   1.917 -0.4305  0.0676  0.4214
   36MOL   O12917699   0.140   2.617   1.882  0.6466  0.0484 -0.0628
   36MOL   C13017700   0.074   2.508   1.821  0.1321  0.5873 -0.2678
   36MOL   C13117701   7.726   2.467   1.901 -0.1571  0.4582  0.4429
   36MOL   C13217702   7.653   2.343   1.850 -0.3864  0.2516 -0.5447
   36MOL   C13317703   7.504   2.334   1.885  0.5333 -0.5728 -0.1730
   36MOL   C13417704   7.414   2.234   1.818 -0.2386 -0.8187 -0.2578
   36MOL   C13517705   7.275   2.238   1.880  0.1242  0.4357  0.1535
   36MOL   H13617706   0.448   2.739   1.950 -0.1039  0.3326 -1.7020
   36MOL   H13717707   0.319   2.767   2.057 -0.8813 -0.2701 -0.4247
   36MOL   H13817708   0.323   2.558   1.830 -3.3472  0.5134 -1.4537
   36MOL   H13917709   0.139   2.422   1.807  1.8417  1.8677 -0.3754
   36MOL   H14017710   0.055   2.519   1.714  2.6633 -0.2921 -0.8456
   36MOL   H14117711   7.656   2.550   1.904 -0.2549  0.3791  0.3095
   36MOL   H14217712   7.742   2.455   2.009  1.3954 -0.8983  0.0939
   36MOL   H14317713   7.656   2.357   1.742  2.5229  0.0619 -0.5204
   36MOL   H14417714   7.703   2.248   1.869 -1.9041 -0.2844  0.8944
   36MOL   H14517715   7.496   2.332   1.994 -2.3020  0.3116 -0.3207
   36MOL   H14617716   7.459   2.424   1.844  2.3706  0.1064 -0.7164
   36MOL   H14717717   7.410   2.265   1.714 -0.8515 -0.0580 -0.0080
   36MOL   H14817718   7.454   2.132   1.815  0.5364 -0.4837 -1.8035
   36MOL   H14917719   7.278   2.211   1.985  0.1058  0.4832  0.1667
   36MOL   H15017720   7.226   2.336   1.877  0.5792  0.6366 -1.6789
   36MOL   H15117721   7.208   2.166   1.833  0.1213  0.2720  0.4118
   36MOL   C15217722   0.274   2.512   2.035  0.4891  0.7607 -0.0047
   36MOL   C15317723   0.420   2.470   2.071  0.0330  0.3815  0.3257
   36MOL   O15417724   0.459   2.546   2.184  0.1876 -0.1278 -0.1728
   36MOL   C15517725   0.595   2.572   2.181  0.2296  0.2080  0.1819
   36MOL   C15617726   0.609   2.691   2.272 -0.3738  0.2949  0.1842
   36MOL   C15717727   0.756   2.726   2.269 -0.0200  0.3271  0.7562
   36MOL   C15817728   0.796   2.820   2.370 -0.2287 -0.2755  0.0570
   36MOL   C15917729   0.939   2.883   2.361 -0.3220  0.6970  0.2267
   36MOL   C16017730   0.995   2.945   2.488 -0.5023 -0.4737  0.6532
   36MOL   H16117731   0.239   2.565   2.124  0.9244 -1.5942  1.6210
   36MOL   H16217732   0.204   2.431   2.019  0.5099  0.4378  1.3941
   36MOL   H16317733   0.481   2.479   1.981 -1.5156 -2.9272 -1.1370
   36MOL   H16417734   0.632   2.601   2.083 -0.5252 -0.5606 -0.3371
   36MOL   H16517735   0.658   2.487   2.204  0.9023 -0.2221 -3.0774
   36MOL   H16617736   0.589   2.665   2.376  0.0747 -1.5248 -0.1707
   36MOL   H16717737   0.553   2.777   2.234  0.0400  0.4542 -0.0685
   36MOL   H16817738   0.832   2.649   2.282  1.0409  1.4023  1.0964
   36MOL   H16917739   0.779   2.778   2.176  0.8556 -1.7938 -0.2296
   36MOL   H17017740   0.721   2.897   2.388  1.2793  1.1667  0.2973
   36MOL   H17117741   0.796   2.766   2.465  1.0011  0.4642  0.4998
   36MOL   H17217742   1.012   2.809   2.329 -0.4924  1.4271 -1.9731
   36MOL   H17317743   0.944   2.965   2.289 -0.1570  2.4074  2.1388
   36MOL   H17417744   1.094   2.981   2.460 -1.1362  1.2475  0.5684
   36MOL   H17517745   0.935   3.034   2.510  0.9021  0.2633  1.6254
   36MOL   H17617746   1.005   2.875   2.571 -1.9528 -0.4046  0.9132
   36MOL   C17717747   0.425   2.315   2.100  0.3551  0.1521  0.1544
   36MOL   C17817748   0.396   2.220   1.988  0.0068  0.0096  0.0476
   36MOL   O17917749   0.532   2.200   1.933 -0.2977  0.0941  0.9510
   36MOL   C18017750   0.531   2.173   1.795 -0.1335 -0.3575 -0.1629
   36MOL   C18117751   0.672   2.171   1.735 -0.4783 -0.7757  0.6939
   36MOL   C18217752   0.672   2.198   1.583  0.1370  0.3889 -0.2635
   36MOL   C18317753   0.576   2.102   1.505 -0.5916 -0.6268  1.6356
   36MOL   C18417754   0.574   2.156   1.359 -0.0482  0.1651  0.0243
   36MOL   C18517755   0.486   2.083   1.253 -0.4384  0.8706 -0.9962
   36MOL   H18617756   0.523   2.291   2.142 -0.1745 -1.4322  0.4977
   36MOL   H18717757   0.347   2.286   2.169 -1.2665  0.4946 -1.4947
   36MOL   H18817758   0.336   2.273   1.914 -0.5350 -0.1744  0.3473
   36MOL   H18917759   0.465   2.250   1.755  0.5718  1.2836  1.7701
   36MOL   H19017760   0.485   2.076   1.774 -0.9264 -0.1544  0.6145
   36MOL   H19117761   0.729   2.085   1.767  0.8338 -0.0966  0.2353
   36MOL   H19217762   0.730   2.258   1.765 -0.7050 -1.2486  2.5272
   36MOL   H19317763   0.649   2.304   1.573 -2.0871 -0.0410  0.1576
   36MOL   H19417764   0.770   2.189   1.536 -1.3926  0.0697 -3.4946
   36MOL   H19517765   0.626   2.005   1.495  0.0226 -0.0069 -2.0304
   36MOL   H19617766   0.474   2.100   1.544 -3.5484 -1.2902 -5.3626
   36MOL   H19717767   0.534   2.258   1.364 -0.7041 -0.1186  0.5989
   36MOL   H19817768   0.672   2.169   1.313 -0.2473  1.4266 -0.0730
   36MOL   H19917769   0.509   1.976   1.250 -1.5197  0.5187  1.4313
   36MOL   H20017770   0.385   2.109   1.284 -0.1030  0.4323  0.5429
   36MOL   H20117771   0.509   2.122   1.154 -0.9967  1.4960 -0.8839
   36MOL   C20217772   0.344   2.085   2.024 -0.9154  0.3994 -0.0700
   36MOL   C20317773   0.204   2.080   2.080 -0.0127  0.5900  0.3590
   36MOL   O20417774   0.200   2.068   2.222 -0.1348 -0.0003  0.0490
   36MOL   C20517775   0.104   2.156   2.279  0.4853  0.2985  0.3635
   36MOL   C20617776   0.102   2.142   2.432  0.0261  0.0092  0.1346
   36MOL   C20717777   0.038   2.015   2.492  0.1110 -1.0354 -0.2452
   36MOL   C20817778   0.028   2.019   2.643 -0.0970  0.0047  0.3791
   36MOL   C20917779   7.696   2.100   2.708 -0.2462 -0.0378  0.7745
   36MOL   C21017780   7.707   2.255   2.735  0.2169 -0.6051  1.0353
   36MOL   H21117781   0.342   2.030   1.929  0.2217 -1.0621  0.7340
   36MOL   H21217782   0.407   2.030   2.094  0.0624  1.0575 -0.4401
   36MOL   H21317783   0.148   2.163   2.036 -0.6419  0.1901  0.4026
   36MOL   H21417784   0.006   2.118   2.251  0.7801 -0.3863  0.2643
   36MOL   H21517785   0.131   2.257   2.249  2.7044 -0.4776 -0.3508
   36MOL   H21617786   0.047   2.230   2.466 -0.5962  0.8275 -2.8295
   36MOL   H21717787   0.199   2.153   2.479  0.4128  0.9498 -0.8777
   36MOL   H21817788   7.725   1.985   2.441  1.4351 -2.4872 -1.8363
   36MOL   H21917789   0.115   1.943   2.463  0.2742 -0.7568 -0.5176
   36MOL   H22017790   0.013   1.913   2.664  0.1398 -0.1500 -0.2296
   36MOL   H22117791   0.127   2.041   2.684  1.0946 -1.1134 -1.7796
   36MOL   H22217792   7.599   2.090   2.660 -0.2631  3.0898  0.0452
   36MOL   H22317793   7.676   2.052   2.804  0.8421 -0.4490  0.8110
   36MOL   H22417794   7.636   2.285   2.812 -0.7404 -0.3532  0.0604
   36MOL   H22517795   0.034   2.262   2.763  0.8376 -1.7223 -0.9197
   36MOL   H22617796   7.695   2.323   2.650  0.0118 -0.5179  1.1346
   36MOL   C22717797   0.133   1.946   2.042  0.8242 -0.1132  0.5181
   36MOL   C22817798   0.027   1.962   1.940  0.0174  0.1626 -0.1956
   36MOL   O22917799   0.102   2.003   1.825 -0.3187 -0.0493  0.1039
   36MOL   C23017800   0.015   2.019   1.709 -0.0314  0.2287  0.2033
   36MOL   C23117801   0.073   2.133   1.621  0.2047 -0.0491  0.0177
   36MOL   C23217802   7.756   2.148   1.504  0.3905 -0.3643  0.0680
   36MOL   C23317803   7.772   2.281   1.415  0.5437  0.0064  0.0214
   36MOL   C23417804   0.091   2.251   1.296  0.7927 -0.4863  0.8035
   36MOL   C23517805   0.114   2.366   1.204 -0.0211 -0.0541  0.0028
   36MOL   H23617806   0.210   1.878   2.006 -0.7558 -0.4575 -2.4158
   36MOL   H23717807   0.095   1.887   2.126  0.0376  1.5024  1.3118
   36MOL   H23817808   7.751   2.047   1.980 -3.1255 -1.7538 -0.2090
   36MOL   H23917809   7.694   2.052   1.739  0.7569  0.3246  2.8629
   36MOL   H24017810   0.011   1.924   1.656 -0.3077  0.3532  0.0034
   36MOL   H24117811   0.169   2.112   1.575  0.5938  2.2348 -0.2694
   36MOL   H24217812   0.075   2.225   1.680 -1.0673  0.1063 -0.1659
   36MOL   H24317813   7.751   2.057   1.445 -0.2157 -0.2186 -0.1185
   36MOL   H24417814   7.657   2.157   1.549  0.8893 -1.1671  1.3413
   36MOL   H24517815   7.678   2.314   1.369  0.5547  0.1806  0.1289
   36MOL   H24617816   0.014   2.354   1.492 -3.1180  0.8390  0.2971
   36MOL   H24717817   0.182   2.206   1.333  1.0779  0.4818  1.3081
   36MOL   H24817818   0.037   2.179   1.234  0.9854  2.1977 -2.6383
   36MOL   H24917819   0.160   2.452   1.253  1.1307 -1.8315  2.1958
   36MOL   H25017820   0.168   2.344   1.112  0.9569 -0.2859  0.6254
   36MOL   H25117821   0.020   2.399   1.160 -1.2407 -0.6492  2.0758
   36MOL   C25217822   7.716   1.837   1.909  0.1207 -0.1106  0.6450
   36MOL   C25317823   7.676   1.745   2.028  0.8449 -0.4234  0.1189
   36MOL   O25417824   7.596   1.637   1.973  0.2926 -0.4499 -0.5728
   36MOL   C25517825   7.674   1.523   1.931  0.3596 -0.4295 -0.0024
   36MOL   C25617826   7.566   1.410   1.904  0.3794 -0.5605  1.1943
   36MOL   C25717827   7.464   1.397   2.014  0.2423 -0.2845  0.2991
   36MOL   C25817828   7.390   1.265   2.015  0.5175  0.1462  0.2163
   36MOL   C25917829   7.310   1.253   2.145  0.0540  0.0760  0.2079
   36MOL   C26017830   7.224   1.123   2.143 -0.3114 -0.0302 -0.5737
   36MOL   H26117831   7.622   1.862   1.861  1.0877 -1.0164 -1.7738
   36MOL   H26217832   7.762   1.775   1.832 -1.7287 -0.2138 -0.3864
   36MOL   H26317833   7.764   1.701   2.074 -1.8725 -4.5104  1.7385
   36MOL   H26417834   7.730   1.484   2.016 -0.2904  0.4560  0.8349
   36MOL   H26517835   7.737   1.546   1.845  1.4931  1.8118  1.3849
   36MOL   H26617836   7.623   1.317   1.898  0.9604 -0.1920  1.0077
   36MOL   H26717837   7.524   1.424   1.804 -0.4805 -1.6602  1.3947
   36MOL   H26817838   7.515   1.404   2.110 -0.3097  0.6344  0.5370
   36MOL   H26917839   7.394   1.480   2.011 -0.7061 -1.1083 -1.1485
   36MOL   H27017840   7.334   1.258   1.921  0.8150 -1.0514  0.1233
   36MOL   H27117841   7.458   1.179   2.014  0.9105  0.4067  2.4990
   36MOL   H27217842   7.380   1.245   2.228 -0.3941  2.5242  0.8705
   36MOL   H27317843   7.244   1.340   2.150  1.9030  1.5488 -0.4350
   36MOL   H27417844   7.292   1.038   2.131 -1.7516 -1.5533  1.7002
   36MOL   H27517845   7.163   1.096   2.230  1.4105  0.9866  0.9635
   36MOL   H27617846   7.157   1.129   2.057 -1.4157 -0.3485  0.2572
   36MOL   C27717847   7.587   1.820   2.129 -0.0618  0.1291  0.0492
   36MOL   C27817848   7.592   1.739   2.256 -0.2927 -0.1865  0.4157
   36MOL   O27917849   7.723   1.721   2.311  0.1450  0.3821 -0.9292
   36MOL   C28017850   7.744   1.599   2.385 -0.5127 -0.2975 -0.5062
   36MOL   C28117851   0.012   1.485   2.294 -0.0432  0.5538  0.3026
   36MOL   C28217852   0.044   1.360   2.369 -0.1127 -0.0062 -0.3873
   36MOL   C28317853   0.090   1.235   2.276 -0.1848  0.4982 -0.2133
   36MOL   C28417854   0.064   1.101   2.350 -0.4630  0.4016  0.3338
   36MOL   C28517855   0.067   0.967   2.272 -0.1358  0.0121  0.4254
   36MOL   H28617856   7.633   1.917   2.152  0.1359  0.5931 -2.1920
   36MOL   H28717857   7.486   1.824   2.090 -0.0830  0.3436  0.1244
   36MOL   H28817858   7.556   1.639   2.229  0.7463 -0.2091 -0.9668
   36MOL   H28917859   7.665   1.566   2.452  1.3544 -2.1602  0.7948
   36MOL   H29017860   0.058   1.622   2.438 -0.1508 -1.0610 -0.8134
   36MOL   H29117861   0.085   1.526   2.223 -1.6718  0.6611 -1.3721
   36MOL   H29217862   7.714   1.454   2.222 -2.2624  0.7919  2.4979
   36MOL   H29317863   0.112   1.372   2.453  0.0015  0.0462 -0.4866
   36MOL   H29417864   7.724   1.342   2.411 -0.3778  2.2068  0.0177
   36MOL   H29517865   0.038   1.235   2.181 -0.1195  0.7011 -0.2493
   36MOL   H29617866   0.191   1.239   2.237 -0.7622 -0.3995 -1.8448
   36MOL   H29717867   0.125   1.105   2.441  0.3572  1.1102 -0.2375
   36MOL   H29817868   7.739   1.107   2.384 -1.5179 -1.9634 -2.3378
   36MOL   H29917869   0.150   0.969   2.201 -0.0317  3.6782  0.5908
   36MOL   H30017870   0.064   0.877   2.334 -1.6007 -0.0838  0.2425
   36MOL   H30117871   7.760   0.964   2.204  1.3045  1.6729 -1.4839
   36MOL   C30217872   7.512   1.810   2.372 -0.1766  0.7035 -0.1763
   36MOL   C30317873   7.410   1.718   2.448  0.8360  0.6667 -0.3649
   36MOL   O30417874   7.292   1.694   2.361  0.0993  0.8603 -0.4916
   36MOL   C30517875   7.241   1.557   2.387  0.1060 -0.1865 -0.3505
   36MOL   C30617876   7.100   1.545   2.332 -0.7061 -0.1235  0.9048
   36MOL   C30717877   6.999   1.625   2.406 -0.7888 -0.3362  0.6113
   36MOL   C30817878   6.863   1.608   2.334  0.4561  0.4727 -0.1515
   36MOL   C30917879   6.759   1.714   2.380 -0.2254 -0.0205 -0.3430
   36MOL   C31017880   6.793   1.845   2.316 -0.1029 -0.3058  0.2449
   36MOL   H31117881   7.584   1.827   2.452  0.2957  1.6786 -0.8019
   36MOL   H31217882   7.469   1.907   2.349 -2.7379  0.5781  3.5469
   36MOL   H31317883   7.467   1.626   2.464 -0.4324  0.3655  2.6120
   36MOL   H31417884   7.239   1.537   2.494  1.8918  1.1360 -0.0453
   36MOL   H31517885   7.305   1.478   2.346 -1.7627  0.1917 -4.2601
   36MOL   H31617886   7.072   1.439   2.327 -0.2198 -0.2444  0.7628
   36MOL   H31717887   7.113   1.571   2.227 -1.9523 -3.2556 -0.1032
   36MOL   H31817888   6.986   1.590   2.508  0.2370 -1.6238  0.3131
   36MOL   H31917889   7.036   1.727   2.395  0.8800 -1.1090 -1.2134
   36MOL   H32017890   6.881   1.612   2.226 -1.6442  0.2157 -0.5361
   36MOL   H32117891   6.825   1.510   2.362 -1.5470  1.6245  1.2922
   36MOL   H32217892   6.668   1.673   2.336  0.3766  0.9854 -2.6008
   36MOL   H32317893   6.746   1.717   2.488  1.1435  1.9506 -0.1968
   36MOL   H32417894   6.715   1.920   2.329  0.3560  0.0101  1.1900
   36MOL   H32517895   6.890   1.878   2.353 -0.0659  0.2986 -0.3887
   36MOL   H32617896   6.809   1.821   2.211  0.5317  2.8948 -0.4414
   36MOL   C32717897   7.370   1.764   2.594  0.0621  0.1139 -0.2906
   36MOL   C32817898   7.430   1.693   2.719  0.3989 -0.4686  0.0494
   36MOL   O32917899   7.389   1.556   2.724  0.2711 -0.2066 -0.3271
   36MOL   C33017900   7.356   1.502   2.848 -0.3312 -0.1288 -0.0698
   36MOL   C33117901   7.335   1.360   2.805  0.3398 -0.0414  0.0847
   36MOL   C33217902   7.314   1.271   2.928  0.4791  0.6424 -0.3481
   36MOL   C33317903   7.277   1.127   2.889 -0.3191  0.2833  0.6296
   36MOL   C33417904   7.276   1.036   3.013 -0.5474 -0.6204 -1.1498
   36MOL   C33517905   7.201   0.908   2.994 -0.7322  0.2097  0.8740
   36MOL   H33617906   7.261   1.761   2.601  0.0557  2.6538  1.5177
   36MOL   H33717907   7.402   1.868   2.606  0.5216 -0.0138 -0.4360
   36MOL   H33817908   7.401   1.763   2.797  4.0722  0.4744  0.6729
   36MOL   H33917909   7.267   1.538   2.899  0.1680  0.5398  0.3290
   36MOL   H34017910   7.440   1.511   2.917 -0.0052  0.5038 -0.5379
   36MOL   H34117911   7.424   1.336   2.747 -0.4224  0.0034 -1.0994
   36MOL   H34217912   7.248   1.356   2.740  0.6968  1.0668 -0.4763
   36MOL   H34317913   7.402   1.265   2.992 -1.2044 -2.9916  1.8008
   36MOL   H34417914   7.227   1.297   2.989  0.3011  0.3844 -0.4878
   36MOL   H34517915   7.179   1.121   2.842 -1.1146  2.4544  1.9227
   36MOL   H34617916   7.348   1.091   2.816 -0.0040 -0.8875  1.4971
   36MOL   H34717917   7.380   1.014   3.036 -0.2271 -0.0089 -2.0081
   36MOL   H34817918   7.234   1.091   3.098  1.0593  0.9485 -1.3348
   36MOL   H34917919   7.095   0.931   2.982  0.1177  3.6502 -0.7298
   36MOL   H35017920   7.251   0.862   2.908  0.7607  1.2391  1.1776
   36MOL   H35117921   7.206   0.843   3.081  0.2642  0.6499  1.1498
   36MOL   C35217922   7.585   1.693   2.718 -0.2275  0.3258  0.2101
   36MOL   C35317923   7.656   1.693   2.851  0.2639  0.3493  0.6170
   36MOL   O35417924   7.615   1.818   2.912  0.0271  0.9796 -0.1570
   36MOL   C35517925   7.628   1.824   3.052  0.2027 -0.0114  0.3031
   36MOL   C35617926   7.586   1.963   3.096 -0.5297  0.1597  0.1935
   36MOL   C35717927   7.592   1.990   3.248  0.3909 -0.2371  0.2085
   36MOL   C35817928   7.577   2.139   3.287 -0.1439 -0.5560  0.0056
   36MOL   C35917929   7.670   2.185   3.403  0.1945  0.0264  0.3011
   36MOL   C36017930   7.634   2.329   3.438 -0.2267 -0.3528 -0.6219
   36MOL   H36117931   7.608   1.598   2.669  2.4989  0.0535  1.8955
   36MOL   H36217932   7.622   1.780   2.663  0.6637  0.7600  1.4810
   36MOL   H36317933   7.616   1.610   2.909 -1.4396  1.3751  0.9270
   36MOL   H36417934   7.735   1.818   3.076  0.7472 -0.4033 -2.1093
   36MOL   H36517935   7.566   1.745   3.095  1.0374 -0.9472 -0.1950
   36MOL   H36617936   7.486   1.982   3.057 -1.8434 -2.8205  1.9243
   36MOL   H36717937   7.644   2.033   3.036  0.1820 -0.3406  0.3047
   36MOL   H36817938   7.520   1.919   3.288  0.2857  0.4609  1.2775
   36MOL   H36917939   7.688   1.957   3.288  0.4548 -0.5861 -0.2306
   36MOL   H37017940   7.591   2.203   3.201 -0.1326  0.1993  0.5620
   36MOL   H37117941   7.478   2.168   3.323  0.1483  0.3202  0.1217
   36MOL   H37217942   7.640   2.140   3.498 -4.0225  3.2325  0.6579
   36MOL   H37317943   7.776   2.162   3.403  0.1446 -0.5107 -3.1188
   36MOL   H37417944   7.530   2.335   3.468 -0.5791  0.9845 -2.0044
   36MOL   H37517945   7.690   2.355   3.527 -0.0014  1.8367 -1.3665
   36MOL   H37617946   7.663   2.401   3.361  1.6490 -0.8121 -0.3578
   36MOL   C37717947   0.030   1.674   2.851 -0.1080 -0.1451  0.4620
   36MOL   C37817948   0.077   1.545   2.797  0.5722 -0.1425 -0.0203
   36MOL   O37917949   0.011   1.439   2.851 -0.4866 -0.1162  0.2625
   36MOL   C38017950   7.755   1.339   2.757  0.2152  0.7549 -0.0057
   36MOL   C38117951   7.715   1.214   2.835 -0.3162  0.2542  0.1173
   36MOL   C38217952   7.703   1.095   2.738 -0.1226 -0.3730 -0.4251
   36MOL   C38317953   7.672   0.959   2.813  0.8575 -1.1367  0.4391
   36MOL   C38417954   7.776   0.905   2.922  1.1711 -0.2812 -0.2500
   36MOL   C38517955   7.725   0.775   2.997  0.1805  0.1350  0.3931
   36MOL   H38617956   0.065   1.759   2.792  0.9311 -1.3767 -0.7463
   36MOL   H38717957   0.075   1.683   2.950  2.8685  1.7425 -0.9738
   36MOL   H38817958   0.066   1.539   2.689 -0.2058  1.3625 -0.0442
   36MOL   H38917959   0.061   1.318   2.692 -0.0448 -0.2191 -0.0437
   36MOL   H39017960   7.675   1.376   2.693  1.1809 -0.7895 -2.1787
   36MOL   H39117961   7.615   1.234   2.875 -1.0690  2.2696 -2.6226
   36MOL   H39217962   0.013   1.199   2.911  0.2730 -2.5641 -0.9585
   36MOL   H39317963   7.620   1.119   2.671 -1.1498  0.2780  1.0586
   36MOL   H39417964   0.008   1.073   2.671  0.6704  2.7175 -0.5200
   36MOL   H39517965   7.569   0.962   2.850  0.2439 -0.1798 -1.2780
   36MOL   H39617966   7.668   0.891   2.728  2.7149  1.1659 -1.5499
   36MOL   H39717967   0.098   0.883   2.884  1.1297  1.2846 -1.3106
   36MOL   H39817968   0.016   0.975   3.003 -2.6890 -0.0196  0.4770
   36MOL   H39917969   0.025   0.739   3.064 -0.8517 -0.8002  1.0991
   36MOL   H40017970   7.639   0.790   3.062 -0.2632 -1.3334  0.1508
   36MOL   H40117971   7.696   0.693   2.932  2.8902  0.1210 -0.8777
   36MOL   C40217972   0.229   1.526   2.828 -0.3582 -0.2294  0.0423
   36MOL   C40317973   0.334   1.627   2.772 -0.2695  0.1344  0.9686
   36MOL   O40417974   0.336   1.619   2.627 -0.2168 -0.2437 -0.8448
   36MOL   C40517975   0.311   1.740   2.559  0.5015 -0.4715 -1.2220
   36MOL   C40617976   0.339   1.721   2.414 -0.8378  0.0151  0.3835
   36MOL   C40717977   0.480   1.764   2.366 -0.5252  0.1376 -1.0477
   36MOL   C40817978   0.497   1.757   2.214  0.7268  0.1946  0.3037
   36MOL   C40917979   0.619   1.834   2.159  0.8621 -0.1861 -0.2058
   36MOL   C41017980   0.650   1.820   2.012 -0.1135  1.0727 -0.6742
   36MOL   H41117981   0.265   1.426   2.804 -0.0858 -0.3531  0.9280
   36MOL   H41217982   0.248   1.521   2.936  1.4772  0.9525 -0.1953
   36MOL   H41317983   0.312   1.730   2.799  1.9764  0.6448  0.9656
   36MOL   H41417984   0.357   1.829   2.602  2.3595 -1.2103 -1.6436
   36MOL   H41517985   0.205   1.759   2.577  0.8489 -1.0350  1.6518
   36MOL   H41617986   0.268   1.775   2.351 -0.5141 -0.9736 -0.8272
   36MOL   H41717987   0.332   1.616   2.387  0.8701  0.6914 -2.9207
   36MOL   H41817988   0.509   1.861   2.405  2.7180 -1.3198  0.3080
   36MOL   H41917989   0.554   1.695   2.405  0.6310  2.4901  1.0564
   36MOL   H42017990   0.506   1.652   2.184  0.0060 -0.5274  2.4904
   36MOL   H42117991   0.409   1.788   2.158  0.1364  0.2127  1.2201
   36MOL   H42217992   0.625   1.936   2.195  0.0562 -0.0348 -0.4965
   36MOL   H42317993   0.705   1.789   2.207  0.1063 -0.2743  1.0910
   36MOL   H42417994   0.650   1.715   1.982 -2.1690  1.1255 -0.9651
   36MOL   H42517995   0.575   1.867   1.947 -2.3436 -2.0645 -0.4725
   36MOL   H42617996   0.746   1.871   2.001  0.0533  0.5837 -1.5413
   36MOL   C42717997   0.475   1.595   2.817 -0.4249 -0.7574 -0.2264
   36MOL   C42817998   0.579   1.700   2.772 -0.2229  1.0331 -0.3338
   36MOL   O42917999   0.543   1.807   2.857 -0.6664  0.4177 -0.1812
   36MOL   C43018000   0.594   1.931   2.817  0.1462  0.0199  0.3553
   36MOL   C43118001   0.514   2.046   2.888 -0.1272  0.2152  0.1772
   36MOL   C43218002   0.540   2.192   2.847  0.2051 -0.6394  1.3622
   36MOL   C43318003   0.687   2.230   2.865  0.0189 -0.2396 -0.3712
   36MOL   C43418004   0.733   2.215   3.010 -0.1262 -0.0806 -0.5602
   36MOL   C43518005   0.887   2.245   3.026  0.0631 -0.2671 -0.8871
   36MOL   H43618006   0.487   1.577   2.924  2.3263  0.4408 -0.2942
   36MOL   H43718007   0.492   1.501   2.766  2.0795 -1.2707  1.4889
   36MOL   H43818008   0.551   1.740   2.674 -0.5246 -0.3267 -0.8133
   36MOL   H43918009   0.598   1.933   2.708 -0.6513  0.0846  0.3270
   36MOL   H44018010   0.694   1.946   2.857  0.5512 -3.2776  0.7697
   36MOL   H44118011   0.517   2.027   2.995 -1.3502 -0.6411  0.0623
   36MOL   H44218012   0.409   2.021   2.873 -0.1404  0.7268 -0.6767
   36MOL   H44318013   0.515   2.219   2.744  1.0421 -0.2240  1.2552
   36MOL   H44418014   0.488   2.263   2.911 -0.6291 -0.1837  0.1980
   36MOL   H44518015   0.743   2.160   2.803  2.8010  1.9723 -0.4837
   36MOL   H44618016   0.719   2.327   2.827  0.8534  0.2132  1.4242
   36MOL   H44718017   0.672   2.277   3.075 -0.7910 -1.1701 -0.1379
   36MOL   H44818018   0.710   2.119   3.056  0.8075  0.4350  0.9885
   36MOL   H44918019   0.916   2.242   3.131 -0.7915  2.8877 -0.5164
   36MOL   H45018020   0.945   2.173   2.969  1.0930  0.5905 -0.9566
   36MOL   H45118021   0.904   2.347   2.991  2.5612  0.2195  1.5546
   36MOL   C45218022   0.730   1.660   2.784  0.5932 -1.4248 -0.1734
   36MOL   C45318023   0.775   1.531   2.712 -0.1140  0.3228  0.1518
   36MOL   O45418024   0.922   1.516   2.712 -0.5152  0.1497 -0.0311
   36MOL   C45518025   0.966   1.384   2.717  0.3182 -0.0445  0.2704
   36MOL   C45618026   1.043   1.369   2.848 -0.0082 -0.0918 -0.0408
   36MOL   C45718027   1.086   1.225   2.872 -0.1665 -0.0689 -0.7715
   36MOL   C45818028   1.209   1.176   2.782  0.2389 -0.1063  0.2118
   36MOL   C45918029   1.272   1.046   2.812 -0.0726 -0.2817  0.0931
   36MOL   C46018030   1.374   1.007   2.705 -0.2018  0.2312 -0.0430
   36MOL   H46118031   0.782   1.747   2.742 -4.0267  2.5370  1.7789
   36MOL   H46218032   0.750   1.655   2.891  0.3004 -0.6277 -0.0731
   36MOL   H46318033   0.726   1.452   2.769  2.0169 -0.1187  1.4136
   36MOL   H46418034   1.021   1.375   2.624 -0.4792 -0.4872 -0.1628
   36MOL   H46518035   0.896   1.300   2.711  0.7179 -0.3028 -0.9503
   36MOL   H46618036   0.976   1.390   2.931 -1.6095  1.0181 -1.5981
   36MOL   H46718037   1.119   1.445   2.865 -0.5685  0.5651 -0.4502
   36MOL   H46818038   1.120   1.210   2.974 -0.3139  1.3018 -0.5180
   36MOL   H46918039   1.002   1.160   2.848 -0.3995 -0.3803  0.8382
   36MOL   H47018040   1.163   1.166   2.684  1.2976  0.7543 -0.3770
   36MOL   H47118041   1.279   1.259   2.784  0.4116 -0.2665  1.1277
   36MOL   H47218042   1.319   1.059   2.910 -1.4365  2.6105  0.3997
   36MOL   H47318043   1.199   0.966   2.822 -1.2639  0.4920 -2.1076
   36MOL   H47418044   1.447   0.934   2.740 -0.1967  0.9760  1.5334
   36MOL   H47518045   1.341   0.964   2.610  0.2135 -0.3438  0.0671
   36MOL   H47618046   1.436   1.095   2.683 -0.9737  0.3412 -1.8871
   36MOL   C47718047   0.720   1.553   2.566 -0.0990  0.0548 -0.3573
   36MOL   C47818048   0.762   1.439   2.468 -0.2612  0.1631  0.5291
   36MOL   O47918049   0.708   1.489   2.343  0.0380 -0.4524 -0.1426
   36MOL   C48018050   0.754   1.406   2.236  0.2543 -0.2442  0.3385
   36MOL   C48118051   0.712   1.455   2.100  0.6198 -0.3222  0.3332
   36MOL   C48218052   0.745   1.347   1.992 -0.4327  0.5191  0.7545
   36MOL   C48318053   0.716   1.393   1.850 -0.7061 -0.0565  0.5910
   36MOL   C48418054   0.757   1.291   1.737 -0.6289  0.0095  0.0474
   36MOL   C48518055   0.720   1.336   1.595 -0.2595  0.2041 -0.3981
   36MOL   H48618056   0.612   1.556   2.574  0.1403  1.0721  3.4233
   36MOL   H48718057   0.748   1.650   2.524  0.1106 -0.4500 -1.3944
   36MOL   H48818058   0.868   1.415   2.480 -0.3245 -1.1228 -1.2786
   36MOL   H48918059   0.720   1.304   2.251 -1.4725  0.2082 -0.4402
   36MOL   H49018060   0.862   1.388   2.232  0.5757  1.7016 -0.5415
   36MOL   H49118061   0.767   1.546   2.073  0.8800 -0.6304 -0.2094
   36MOL   H49218062   0.607   1.479   2.090  0.7854  0.6015  0.7459
   36MOL   H49318063   0.851   1.322   2.002 -0.4211  0.7293  1.1799
   36MOL   H49418064   0.698   1.257   2.030  2.1626 -0.0393  2.7364
   36MOL   H49518065   0.610   1.413   1.837 -1.0024  0.4584  3.3406
   36MOL   H49618066   0.765   1.490   1.841 -0.7372 -0.0174  0.8227
   36MOL   H49718067   0.864   1.273   1.743 -0.2758  2.0278  0.2169
   36MOL   H49818068   0.705   1.196   1.751 -0.9799  0.2384  0.3345
   36MOL   H49918069   0.703   1.252   1.527 -1.6699 -0.6197  0.9297
   36MOL   H50018070   0.623   1.386   1.586 -0.5104 -0.6235 -2.4659
   36MOL   H50118071   0.797   1.402   1.556 -0.2408  0.4998  0.1360
   36MOL   H50218072   0.706   1.347   2.486 -2.7933  1.6427  0.4483
   37MOL     C118073   3.772   6.013   1.474  0.3946 -0.4762  0.8648
   37MOL     C218074   3.754   5.881   1.555  0.5287 -0.9816  0.6175
   37MOL     O318075   3.879   5.851   1.627 -0.0051 -0.4913 -0.4726
   37MOL     C418076   3.880   5.917   1.753 -0.5085  0.2435  0.5731
   37MOL     C518077   4.013   5.882   1.825 -0.5947 -0.4697 -0.4415
   37MOL     C618078   4.140   5.917   1.748 -0.3147  0.1422  0.0938
   37MOL     C718079   4.257   5.842   1.812 -0.6752  0.5161  0.0080
   37MOL     C818080   4.398   5.893   1.775 -0.1581  0.6705  0.1848
   37MOL     C918081   4.458   6.001   1.869 -0.2400  0.7249 -0.3923
   37MOL    H1018082   3.696   6.027   1.397 -0.0797  0.5100  1.5067
   37MOL    H1118083   3.778   6.103   1.534  0.0704 -0.0431  0.2577
   37MOL    H1218084   3.672   5.891   1.626  0.1639 -1.6619  0.2947
   37MOL    H1318085   3.794   5.891   1.815 -0.7974 -2.3034 -0.8206
   37MOL    H1418086   3.869   6.025   1.742 -0.5964  0.2330  0.5592
   37MOL    H1518087   4.018   5.775   1.845 -2.4256 -1.1691 -3.4046
   37MOL    H1618088   4.019   5.932   1.922 -0.0188  1.4135 -1.4332
   37MOL    H1718089   4.135   5.883   1.645 -1.5051  2.5497 -0.6767
   37MOL    H1818090   4.157   6.024   1.757 -3.4922  0.7929 -1.1775
   37MOL    H1918091   4.235   5.834   1.919 -0.3238  0.6059  0.0877
   37MOL    H2018092   4.258   5.743   1.766  0.5336 -0.4312  1.9907
   37MOL    H2118093   4.402   5.926   1.671  0.3631  0.6589  0.2023
   37MOL    H2218094   4.464   5.807   1.784 -0.2018  0.8054  1.9469
   37MOL    H2318095   4.387   6.072   1.912 -0.1261  0.0713  0.8973
   37MOL    H2418096   4.496   5.950   1.957  1.0505  2.3997  0.0713
   37MOL    H2518097   4.547   6.042   1.821  0.4650  0.1937  0.4377
   37MOL    H2618098   3.862   6.004   1.413  0.2879 -1.7453  0.8724
   37MOL    C2718099   3.723   5.765   1.466  0.5603  0.0148  0.7231
   37MOL    C2818100   3.705   5.628   1.531 -0.4849  0.8975  0.1958
   37MOL    O2918101   3.614   5.634   1.642 -0.5255 -0.0107  0.4153
   37MOL    C3018102   3.650   5.561   1.752 -0.2260  0.0966  0.4227
   37MOL    C3118103   3.527   5.554   1.850 -0.3426  0.1367  0.1450
   37MOL    C3218104   3.500   5.665   1.948  0.1270  0.6752 -0.4210
   37MOL    C3318105   3.367   5.635   2.020 -0.4718  0.4125 -0.8985
   37MOL    C3418106   3.308   5.758   2.094  0.0862 -0.1263  0.2894
   37MOL    C3518107   3.188   5.718   2.181 -0.0193 -0.6583 -0.6905
   37MOL    H3618108   3.635   5.782   1.404  0.3494 -1.0693  0.7265
   37MOL    H3718109   3.802   5.758   1.392  0.8115 -1.0824  1.0859
   37MOL    H3818110   3.804   5.600   1.567 -1.1409 -1.5225  0.2026
   37MOL    H3918111   3.728   5.613   1.807 -2.1313  2.1623  1.2659
   37MOL    H4018112   3.685   5.462   1.724  1.0313  0.4383  0.7611
   37MOL    H4118113   3.542   5.459   1.902 -0.6826 -0.4107 -0.7278
   37MOL    H4218114   3.443   5.530   1.785 -0.6685  1.8687 -0.0841
   37MOL    H4318115   3.581   5.668   2.021 -2.2818  2.3941  2.3163
   37MOL    H4418116   3.490   5.762   1.899 -1.1884  1.8744  2.1127
   37MOL    H4518117   3.298   5.592   1.947 -0.0555 -0.4278 -0.8016
   37MOL    H4618118   3.380   5.546   2.081  0.4649 -0.3314 -2.1678
   37MOL    H4718119   3.388   5.803   2.152 -1.1388  0.4347  1.5555
   37MOL    H4818120   3.281   5.835   2.021  1.5148  0.4734  0.3876
   37MOL    H4918121   3.146   5.793   2.248 -1.7413  0.2622 -2.7588
   37MOL    H5018122   3.102   5.686   2.122  0.4929 -0.2475 -1.6658
   37MOL    H5118123   3.213   5.637   2.250 -1.4764 -0.8061 -0.3091
   37MOL    C5218124   3.642   5.524   1.439 -0.6052  0.1674 -0.2628
   37MOL    C5318125   3.747   5.478   1.333 -0.8655 -0.0147 -0.3960
   37MOL    O5418126   3.763   5.338   1.333 -0.2542  0.3218  0.2267
   37MOL    C5518127   3.816   5.274   1.448 -0.3192  0.2182  0.1892
   37MOL    C5618128   3.865   5.140   1.394 -0.4304 -0.5338 -0.5497
   37MOL    C5718129   3.756   5.043   1.348  0.1629  0.5453  0.3158
   37MOL    C5818130   3.809   4.909   1.310 -0.4876  0.2641 -0.0264
   37MOL    C5918131   3.703   4.816   1.252 -0.1624  0.7213 -0.4118
   37MOL    C6018132   3.761   4.671   1.205 -0.0195  0.1241  0.3755
   37MOL    H6118133   3.556   5.572   1.392 -0.5693 -0.7157 -1.2369
   37MOL    H6218134   3.607   5.439   1.498 -0.6956 -0.0836 -0.6801
   37MOL    H6318135   3.847   5.511   1.362 -0.9113 -0.2605  0.0352
   37MOL    H6418136   3.737   5.255   1.521  0.3700 -0.8113  0.6812
   37MOL    H6518137   3.900   5.322   1.499  1.1573  0.0670 -2.0135
   37MOL    H6618138   3.917   5.102   1.482  0.4887 -0.4816 -1.0709
   37MOL    H6718139   3.938   5.159   1.315 -0.0978 -0.9867 -0.3546
   37MOL    H6818140   3.683   5.027   1.427  0.3837 -2.7020 -0.0580
   37MOL    H6918141   3.696   5.100   1.277  0.1132 -1.6228 -1.4348
   37MOL    H7018142   3.880   4.928   1.230 -0.2961 -1.5532 -0.2914
   37MOL    H7118143   3.862   4.861   1.392  2.8426  1.5937 -1.3184
   37MOL    H7218144   3.628   4.793   1.328  0.5735 -0.1617  0.0557
   37MOL    H7318145   3.639   4.859   1.176  0.6744  0.6508 -1.1672
   37MOL    H7418146   3.677   4.606   1.181  0.2341  0.0326 -0.2927
   37MOL    H7518147   3.816   4.688   1.112 -2.2079  1.9876 -0.6425
   37MOL    H7618148   3.835   4.629   1.273  0.7122 -1.5455 -1.4127
   37MOL    C7718149   3.713   5.527   1.196  0.5203 -0.2957 -0.5062
   37MOL    C7818150   3.829   5.549   1.094  0.2564 -0.1389  0.4969
   37MOL    O7918151   3.921   5.654   1.137 -0.5320  0.5020  0.2669
   37MOL    C8018152   4.048   5.602   1.181  0.0232 -0.2962 -0.2803
   37MOL    C8118153   4.138   5.726   1.206  0.9642 -0.4584 -0.3628
   37MOL    C8218154   4.093   5.810   1.324  0.9435 -0.2340  0.0883
   37MOL    C8318155   4.184   5.932   1.343  0.5388 -0.7249 -0.8723
   37MOL    C8418156   4.174   6.032   1.228  0.1452 -0.2023 -0.8170
   37MOL    C8518157   4.284   6.025   1.120 -0.3946 -0.0193  0.1761
   37MOL    H8618158   3.672   5.627   1.210  1.8150 -0.1441  2.4605
   37MOL    H8718159   3.640   5.459   1.152  0.0220  0.5017 -0.9035
   37MOL    H8818160   3.878   5.453   1.079  1.1095  0.1743  1.2395
   37MOL    H8918161   4.086   5.539   1.100  1.0989 -2.4348  1.8293
   37MOL    H9018162   4.039   5.537   1.268  1.0918  0.3638  0.3249
   37MOL    H9118163   4.141   5.780   1.112  0.7045 -1.2070 -0.8040
   37MOL    H9218164   4.241   5.693   1.226  1.7606  3.2021  2.1411
   37MOL    H9318165   3.990   5.843   1.311  0.8076  0.2006  2.1135
   37MOL    H9418166   4.099   5.755   1.417 -0.4723 -0.8693 -0.1880
   37MOL    H9518167   4.164   5.981   1.439  2.3582 -0.6440 -0.5072
   37MOL    H9618168   4.287   5.898   1.353  0.9099  0.3731 -0.9209
   37MOL    H9718169   4.080   6.034   1.173  0.1893  0.5943 -0.8693
   37MOL    H9818170   4.187   6.131   1.272 -0.3005 -0.2500 -0.5647
   37MOL    H9918171   4.304   6.125   1.081  1.1534  0.9706  3.3053
   37MOL   H10018172   4.373   5.991   1.172  0.6098  0.1865 -1.3881
   37MOL   H10118173   4.276   5.957   1.035  0.8091 -0.2288  0.2211
   37MOL   C10218174   3.790   5.580   0.949  0.2002 -0.5110  0.0665
   37MOL   C10318175   3.901   5.550   0.847 -0.5763  0.8280 -0.3719
   37MOL   O10418176   3.837   5.538   0.725  0.3506 -0.4413 -0.2157
   37MOL   C10518177   3.900   5.450   0.622 -0.5850 -0.3281 -0.2880
   37MOL   C10618178   3.834   5.464   0.489  0.0370 -0.5511  0.0945
   37MOL   C10718179   3.877   5.348   0.398 -0.1531 -0.7460 -0.4282
   37MOL   C10818180   3.793   5.350   0.270  0.0850  0.1519 -0.0815
   37MOL   C10918181   3.830   5.246   0.161  0.1189 -0.8052 -0.4630
   37MOL   C11018182   3.729   5.260   0.040  0.0569  0.1462 -0.0181
   37MOL   H11118183   3.706   5.516   0.923 -0.6354  0.6496 -0.1115
   37MOL   H11218184   3.754   5.683   0.948 -0.8562 -0.8816 -0.6644
   37MOL   H11318185   3.945   5.451   0.858  0.7469  1.2668 -1.6363
   37MOL   H11418186   3.885   5.345   0.646 -0.9128  0.0387  1.1485
   37MOL   H11518187   4.008   5.465   0.610 -0.5738  1.3478  1.6447
   37MOL   H11618188   3.853   5.564   0.452  3.2432 -0.3113  2.1746
   37MOL   H11718189   3.727   5.446   0.492  0.0024 -0.2487  0.8681
   37MOL   H11818190   3.982   5.367   0.378  0.0621 -0.4914  0.8929
   37MOL   H11918191   3.853   5.257   0.452  1.0746 -0.4052  0.7119
   37MOL   H12018192   3.693   5.314   0.295 -0.1470  0.6198 -0.3391
   37MOL   H12118193   3.787   5.455   0.241  2.0515  0.8099  1.7539
   37MOL   H12218194   3.933   5.250   0.125 -0.1971 -0.7821 -1.3839
   37MOL   H12318195   3.830   5.149   0.211  1.9914  0.7495  2.6835
   37MOL   H12418196   3.722   5.356   7.768 -1.8235 -0.1594 -0.4113
   37MOL   H12518197   3.753   5.177   7.752  0.2842 -0.0858  0.3493
   37MOL   H12618198   3.628   5.236   0.073  0.4478 -2.6273 -0.6932
   37MOL   C12718199   4.020   5.651   0.846  0.1197 -0.6905  0.3410
   37MOL   C12818200   4.027   5.740   0.724 -1.0702 -0.1684  0.0046
   37MOL   O12918201   4.147   5.816   0.734  0.0428  0.0459  0.2391
   37MOL   C13018202   4.256   5.763   0.657  0.9992 -0.6394  0.3602
   37MOL   C13118203   4.388   5.825   0.700 -0.4841 -0.6476 -0.5423
   37MOL   C13218204   4.402   5.976   0.661 -0.1799 -0.2997 -0.2546
   37MOL   C13318205   4.532   6.045   0.708  0.2770  0.0652 -0.3749
   37MOL   C13418206   4.545   6.045   0.861  0.8240  0.2498  0.8206
   37MOL   C13518207   4.674   6.109   0.922 -0.4338 -0.4561 -0.0656
   37MOL   H13618208   4.021   5.715   0.934 -0.9208 -0.7443  0.3887
   37MOL   H13718209   4.109   5.588   0.837  2.0775  1.8942  0.9202
   37MOL   H13818210   4.020   5.691   0.627  2.4365  0.7749 -0.8135
   37MOL   H13918211   4.237   5.774   0.550  0.2628 -1.5074  0.3961
   37MOL   H14018212   4.250   5.655   0.671 -0.6360 -0.6194 -0.1120
   37MOL   H14118213   4.465   5.770   0.646  1.3056  0.4702  0.8179
   37MOL   H14218214   4.400   5.807   0.806  4.2070  1.9555 -0.4849
   37MOL   H14318215   4.390   5.981   0.553 -1.0410 -2.6183 -0.2992
   37MOL   H14418216   4.323   6.039   0.702 -1.2496 -0.9168 -1.3449
   37MOL   H14518217   4.612   5.982   0.669  0.0436  0.1043 -0.9270
   37MOL   H14618218   4.542   6.147   0.671  0.3593  0.3577  0.4326
   37MOL   H14718219   4.463   6.108   0.896  0.3011 -0.6432  1.2057
   37MOL   H14818220   4.526   5.956   0.921 -0.7646 -0.5817 -0.8941
   37MOL   H14918221   4.645   6.145   1.021  0.3454  1.7566 -0.6057
   37MOL   H15018222   4.758   6.041   0.930 -1.1208 -1.2084  0.8668
   37MOL   H15118223   4.720   6.186   0.860  1.1840 -0.6038  0.9171
   37MOL   C15218224   3.915   5.846   0.733  0.7794 -0.7261 -0.3180
   37MOL   C15318225   3.881   5.902   0.598  0.5628 -0.8051 -0.0789
   37MOL   O15418226   3.739   5.939   0.611  0.0767  0.9744 -0.6116
   37MOL   C15518227   3.651   5.832   0.561 -0.0461  0.1553 -0.3627
   37MOL   C15618228   3.505   5.881   0.566 -0.0173 -0.5092  0.2378
   37MOL   C15718229   3.489   6.025   0.512 -0.3114  0.4884  0.4317
   37MOL   C15818230   3.349   6.080   0.532  0.1649  0.0516  0.2962
   37MOL   C15918231   3.327   6.224   0.500 -0.0971  0.0898  0.5296
   37MOL   C16018232   3.391   6.322   0.598  0.0404  0.4980  0.5755
   37MOL   H16118233   3.830   5.791   0.773  1.9275 -0.3839  2.7159
   37MOL   H16218234   3.936   5.929   0.801  1.3684 -1.9069  0.9692
   37MOL   H16318235   3.895   5.829   0.519  2.0937  0.0159 -0.5954
   37MOL   H16418236   3.678   5.739   0.611  0.2339  1.3716  1.8147
   37MOL   H16518237   3.667   5.816   0.454  0.3546  0.0291 -0.2858
   37MOL   H16618238   3.474   5.864   0.668 -1.2106 -0.4222 -0.1096
   37MOL   H16718239   3.442   5.818   0.504 -1.4163  1.5083 -0.4432
   37MOL   H16818240   3.558   6.092   0.564  3.1814 -1.4613 -1.5439
   37MOL   H16918241   3.507   6.033   0.405  0.1068 -1.5569  0.3420
   37MOL   H17018242   3.291   6.020   0.462  1.6554 -0.9166 -0.1171
   37MOL   H17118243   3.331   6.056   0.637 -0.1417 -0.3694  0.1473
   37MOL   H17218244   3.353   6.267   0.403 -3.5305 -0.2241 -0.5749
   37MOL   H17318245   3.221   6.244   0.509 -0.2992  0.2334 -1.9753
   37MOL   H17418246   3.392   6.284   0.700 -0.2420  1.7617  1.0566
   37MOL   H17518247   3.495   6.339   0.569 -0.4701  0.2390 -1.4700
   37MOL   H17618248   3.330   6.412   0.609  0.0051  0.5465 -0.0187
   37MOL   C17718249   3.952   6.040   0.562  1.3675  0.5239  0.1724
   37MOL   C17818250   3.917   6.097   0.421  0.6750  0.1588 -0.1017
   37MOL   O17918251   3.959   6.231   0.394 -0.3561 -0.2446 -0.4023
   37MOL   C18018252   3.891   6.336   0.461  0.6201  0.2441 -0.4971
   37MOL   C18118253   3.749   6.366   0.410 -0.2949  0.4152  0.4537
   37MOL   C18218254   3.735   6.430   0.277 -0.0552  0.6524 -0.1132
   37MOL   C18318255   3.599   6.461   0.223  0.1785 -0.2384 -0.4137
   37MOL   C18418256   3.601   6.554   0.105 -0.4147 -0.1427  0.0302
   37MOL   C18518257   3.462   6.573   0.067  0.2098 -0.8722 -0.2617
   37MOL   H18618258   3.933   6.118   0.635  0.9893  2.4836 -1.9699
   37MOL   H18718259   4.059   6.024   0.574  0.8346 -1.0481  3.3347
   37MOL   H18818260   3.808   6.104   0.417  0.6929 -0.2993 -1.8620
   37MOL   H18918261   3.950   6.428   0.463  0.7747  0.1595 -1.0847
   37MOL   H19018262   3.879   6.302   0.564 -0.5036  4.0397  0.7108
   37MOL   H19118263   3.698   6.425   0.486  1.0983  2.5425 -0.2017
   37MOL   H19218264   3.700   6.271   0.393 -0.8825  1.1005 -1.9280
   37MOL   H19318265   3.783   6.527   0.285 -1.0905  1.1705 -0.1491
   37MOL   H19418266   3.789   6.368   0.206  0.4953  1.5591 -0.4961
   37MOL   H19518267   3.553   6.364   0.201  1.6637 -0.6386 -1.8546
   37MOL   H19618268   3.534   6.511   0.295  0.4056  1.5500 -1.4130
   37MOL   H19718269   3.659   6.645   0.118  1.0484 -0.7445 -2.0046
   37MOL   H19818270   3.657   6.499   0.029 -3.0357 -0.0328 -2.0516
   37MOL   H19918271   3.424   6.475   0.042  1.3309 -1.0888 -1.1645
   37MOL   H20018272   3.398   6.611   0.147  1.7774  2.7779 -0.6089
   37MOL   H20118273   3.451   6.629   7.752 -1.2757 -0.4163  0.1744
   37MOL   C20218274   3.975   6.012   0.311 -0.1257 -0.7410 -0.7209
   37MOL   C20318275   3.912   6.020   0.167  0.0867 -0.2734 -0.4249
   37MOL   O20418276   3.784   5.954   0.179  0.1808  0.0241 -0.0478
   37MOL   C20518277   3.683   5.991   0.084 -0.0542  0.2449  0.0749
   37MOL   C20618278   3.565   5.899   0.125  0.2478  0.4113  0.2092
   37MOL   C20718279   3.574   5.755   0.076 -0.6375  0.3054  0.1812
   37MOL   C20818280   3.473   5.660   0.137 -0.4498  0.4613 -0.4782
   37MOL   C20918281   3.491   5.509   0.110  0.1100 -0.1227  0.0677
   37MOL   C21018282   3.408   5.417   0.198  0.3466  1.1508 -0.5848
   37MOL   H21118283   4.078   6.047   0.302  0.6786 -1.8676  3.2153
   37MOL   H21218284   3.965   5.905   0.331 -3.2477 -0.3788 -0.0612
   37MOL   H21318285   3.896   6.123   0.138  0.3269 -0.1979 -0.2872
   37MOL   H21418286   3.716   5.966   7.762 -0.5277  0.2345 -0.0807
   37MOL   H21518287   3.657   6.096   0.090 -1.8136 -0.0490 -1.7125
   37MOL   H21618288   3.471   5.939   0.087  0.5244 -0.3451 -1.3027
   37MOL   H21718289   3.554   5.899   0.233 -2.2566 -0.5764 -0.0158
   37MOL   H21818290   3.572   5.737   7.747  0.4237 -0.8838  0.3409
   37MOL   H21918291   3.673   5.718   0.105  0.7101  4.9315  1.9846
   37MOL   H22018292   3.454   5.675   0.244  1.5159  0.7012 -0.1329
   37MOL   H22118293   3.375   5.673   0.092 -0.7853  0.1433  0.1504
   37MOL   H22218294   3.475   5.502   0.002  2.5047  0.8495 -0.3760
   37MOL   H22318295   3.595   5.482   0.126 -0.7460 -1.8422  3.0464
   37MOL   H22418296   3.301   5.425   0.175 -0.5570 -4.2597  0.9849
   37MOL   H22518297   3.439   5.313   0.185 -0.2604  0.6918  1.4641
   37MOL   H22618298   3.427   5.431   0.305  1.3069 -1.1530 -0.4080
   37MOL   C22718299   3.992   5.940   0.063 -0.2343 -0.0842 -0.1751
   37MOL   C22818300   4.132   5.998   0.030  0.1702  0.7678  0.1230
   37MOL   O22918301   4.200   5.905   7.728 -0.3725 -0.4229 -0.7485
   37MOL   C23018302   4.337   5.929   7.724 -0.9129  0.4401 -0.1751
   37MOL   C23118303   4.406   5.832   0.040 -0.2772 -0.2272  0.1494
   37MOL   C23218304   4.547   5.874   0.070 -0.2276 -0.4450  0.1984
   37MOL   C23318305   4.643   5.752   0.099  0.5244  0.6136  0.4843
   37MOL   C23418306   4.760   5.789   0.188 -0.2971  0.1849 -0.7381
   37MOL   C23518307   4.720   5.832   0.333  0.4316 -0.1597 -0.0902
   37MOL   H23618308   4.014   5.840   0.102  0.3815 -0.1090 -0.5795
   37MOL   H23718309   3.938   5.940   7.746  1.0446  0.4611 -0.9041
   37MOL   H23818310   4.185   6.000   0.126 -0.6454  1.7067  0.5492
   37MOL   H23918311   4.360   6.033   7.747 -0.3178  0.2200  0.2496
   37MOL   H24018312   4.363   5.912   7.620  1.5412  3.5832 -0.1555
   37MOL   H24118313   4.419   5.734   7.772 -2.4733 -0.0726 -0.8934
   37MOL   H24218314   4.338   5.822   0.125 -1.9826 -0.9792 -1.2580
   37MOL   H24318315   4.587   5.936   7.768 -0.4180  0.2240  0.6187
   37MOL   H24418316   4.533   5.940   0.155  1.1180  0.4398 -0.2507
   37MOL   H24518317   4.588   5.672   0.150  0.9592 -0.2689 -0.4105
   37MOL   H24618318   4.664   5.710   0.001  0.5342  3.2175 -0.6525
   37MOL   H24718319   4.827   5.703   0.194 -0.0939  0.4719  1.5631
   37MOL   H24818320   4.827   5.868   0.155  0.9979 -0.2069  0.8893
   37MOL   H24918321   4.801   5.802   0.400 -0.2106  0.3270  0.9207
   37MOL   H25018322   4.701   5.935   0.362  1.0171  0.4513 -1.8365
   37MOL   H25118323   4.623   5.787   0.358 -1.3548  3.2595 -0.5898
   37MOL   C25218324   4.123   6.140   7.740  0.0362 -0.1053 -0.0520
   37MOL   C25318325   4.040   6.151   7.609 -0.1643  0.7506  0.0877
   37MOL   O25418326   4.117   6.088   7.504 -0.5708 -0.7338 -0.5106
   37MOL   C25518327   4.062   5.965   7.462 -0.5277  0.6141 -0.3340
   37MOL   C25618328   4.117   5.917   7.321 -0.1417  1.0148 -0.8014
   37MOL   C25718329   4.068   6.003   7.208 -0.1620  0.6207 -0.0652
   37MOL   C25818330   4.132   5.968   7.076 -0.0902  0.6636  0.2375
   37MOL   C25918331   4.099   6.069   6.968 -1.0451  0.5244 -0.0658
   37MOL   C26018332   3.956   6.054   6.921  0.0719  0.6793  0.3264
   37MOL   H26118333   4.077   6.206   0.035 -1.5646 -0.4362 -0.7352
   37MOL   H26218334   4.218   6.194   7.732  0.0451 -0.3604 -1.7410
   37MOL   H26318335   3.943   6.105   7.626  0.9863 -1.9939 -0.4421
   37MOL   H26418336   3.954   5.976   7.450 -0.1570  0.6154 -4.3417
   37MOL   H26518337   4.081   5.893   7.542  3.7290  0.2244 -1.6122
   37MOL   H26618338   4.080   5.815   7.310  1.2237  0.3957  0.2723
   37MOL   H26718339   4.226   5.919   7.328 -0.2573  1.0057  1.1777
   37MOL   H26818340   3.961   5.986   7.196  0.2175 -0.7365 -1.8345
   37MOL   H26918341   4.088   6.108   7.226  0.9514  0.5717 -0.9092
   37MOL   H27018342   4.240   5.962   7.092 -0.0801 -1.3583 -0.4370
   37MOL   H27118343   4.105   5.867   7.044  1.2557  1.1740 -2.6255
   37MOL   H27218344   4.123   6.168   7.007  1.9477  0.5893 -1.9790
   37MOL   H27318345   4.168   6.067   6.884 -0.0427  4.6160  0.5457
   37MOL   H27418346   3.892   6.132   6.964 -0.7358  0.3004 -0.1665
   37MOL   H27518347   3.953   6.060   6.812  1.8656  0.6735  0.2697
   37MOL   H27618348   3.924   5.952   6.943  1.6754 -0.0123 -0.5014
   37MOL   C27718349   4.023   6.298   7.561 -0.2127  0.3333  0.3600
   37MOL   C27818350   3.913   6.317   7.450 -0.4181 -0.1944  0.2600
   37MOL   O27918351   3.781   6.297   7.505 -0.3601 -0.1603  0.2032
   37MOL   C28018352   3.693   6.228   7.419 -0.3682  0.0993  0.1329
   37MOL   C28118353   3.573   6.173   7.492 -0.2765  0.3614  0.0687
   37MOL   C28218354   3.482   6.288   7.534  0.0786 -0.0031 -0.9121
   37MOL   C28318355   3.356   6.238   7.612  0.2378  0.8803  0.2907
   37MOL   C28418356   3.399   6.199   7.755  0.1633  0.3646  0.4929
   37MOL   C28518357   3.278   6.219   0.076  0.5587  0.2205  0.4578
   37MOL   H28618358   4.008   6.360   7.649 -0.5893 -0.7530  1.0691
   37MOL   H28718359   4.120   6.330   7.521 -1.8098  0.9853 -3.1312
   37MOL   H28818360   3.934   6.235   7.383 -0.0636  0.7466 -0.7930
   37MOL   H28918361   3.738   6.139   7.376  2.3754  2.1023 -1.3568
   37MOL   H29018362   3.660   6.293   7.338  0.2679  0.5977  0.2725
   37MOL   H29118363   3.609   6.118   7.579  0.3887  0.6077 -0.0441
   37MOL   H29218364   3.516   6.101   7.433 -0.7832 -0.6316  1.7397
   37MOL   H29318365   3.527   6.359   7.604  1.1510 -1.9805  0.4554
   37MOL   H29418366   3.447   6.348   7.451 -2.6583 -0.3820 -0.0719
   37MOL   H29518367   3.280   6.315   7.619 -1.1254 -0.5348  1.2423
   37MOL   H29618368   3.309   6.153   7.563  0.6627  0.1076  1.1977
   37MOL   H29718369   3.442   6.099   7.755 -2.0731 -0.6247 -0.5304
   37MOL   H29818370   3.479   6.262   0.017 -1.3217  2.0863  0.8273
   37MOL   H29918371   3.221   6.312   0.070  0.5297  0.3278  2.3038
   37MOL   H30018372   3.209   6.134   0.079 -2.4164  2.5838  1.5601
   37MOL   H30118373   3.316   6.215   0.178 -0.2506 -1.1424  0.7222
   37MOL   C30218374   3.911   6.454   7.374 -0.1613 -0.5247 -0.9672
   37MOL   C30318375   3.873   6.580   7.449 -0.1273 -0.1379 -0.3471
   37MOL   O30418376   3.943   6.596   7.575  0.3272  0.3389  0.0391
   37MOL   C30518377   4.083   6.638   7.561 -0.3604 -0.4777 -0.7523
   37MOL   C30618378   4.126   6.619   7.709  0.3066 -0.1972 -0.0416
   37MOL   C30718379   4.050   6.705   0.031 -0.5115  0.3789 -0.4101
   37MOL   C30818380   4.064   6.661   0.182 -0.2920 -0.5875 -1.1239
   37MOL   C30918381   3.976   6.744   0.281 -0.2122 -1.0657 -0.2862
   37MOL   C31018382   4.010   6.727   0.427  0.0350 -0.5572  0.5340
   37MOL   H31118383   4.006   6.467   7.322  0.9062 -1.9879  0.5947
   37MOL   H31218384   3.853   6.444   7.282  0.2198 -0.9048 -1.1675
   37MOL   H31318385   3.898   6.669   7.390 -0.3421 -1.6290 -2.7344
   37MOL   H31418386   4.096   6.740   7.525  1.0979  0.7322  2.9008
   37MOL   H31518387   4.136   6.569   7.496  1.1732  1.1613 -1.2786
   37MOL   H31618388   4.233   6.634   7.712  0.3211 -0.3718  0.4998
   37MOL   H31718389   4.117   6.513   7.734 -2.1607  0.0836  0.4368
   37MOL   H31818390   4.079   6.808   0.013 -0.1102  0.9487  3.1356
   37MOL   H31918391   3.944   6.697   0.007 -0.5703  0.0943 -0.0640
   37MOL   H32018392   4.055   6.553   0.196  1.6196 -0.8138 -1.6051
   37MOL   H32118393   4.169   6.684   0.197 -1.0047  1.8569  0.4320
   37MOL   H32218394   3.994   6.846   0.249  0.2717 -0.4815  1.8041
   37MOL   H32318395   3.869   6.722   0.279 -0.2922 -0.7621  0.4685
   37MOL   H32418396   3.969   6.802   0.494 -0.7435 -1.3555  0.9589
   37MOL   H32518397   3.974   6.631   0.465  0.5451 -1.1448 -0.4430
   37MOL   H32618398   4.116   6.718   0.453 -0.3954 -3.3562  1.5480
   37MOL   C32718399   3.716   6.587   7.478 -0.3979 -0.1012  0.4204
   37MOL   C32818400   3.648   6.726   7.499  0.1192  0.5435  0.3262
   37MOL   O32918401   3.515   6.699   7.538  0.0330  0.1267 -0.0631
   37MOL   C33018402   3.415   6.700   7.429 -0.3739  0.0837  0.4205
   37MOL   C33118403   3.285   6.635   7.470  0.0461 -0.4241  0.5734
   37MOL   C33218404   3.176   6.634   7.360 -0.6593 -0.0226  0.0151
   37MOL   C33318405   3.038   6.596   7.415 -0.6315 -0.1785 -0.2544
   37MOL   C33418406   2.935   6.572   7.306  0.0737  0.7434 -0.2719
   37MOL   C33518407   2.869   6.707   7.272  0.4106  0.4461 -0.2200
   37MOL   H33618408   3.692   6.527   7.566 -1.1898  0.2455  0.4443
   37MOL   H33718409   3.661   6.541   7.397 -1.4983 -0.1310  1.1823
   37MOL   H33818410   3.646   6.781   7.405 -0.1515  0.7297  0.4389
   37MOL   H33918411   3.452   6.656   7.336 -1.9472 -1.5893  0.5669
   37MOL   H34018412   3.396   6.805   7.404 -0.0345  0.1145  0.2907
   37MOL   H34118413   3.251   6.695   7.554 -0.1958 -0.4333  0.4789
   37MOL   H34218414   3.300   6.532   7.505  1.4368 -0.4755 -0.1090
   37MOL   H34318415   3.165   6.732   7.315 -1.3296 -0.3215 -0.4946
   37MOL   H34418416   3.207   6.569   7.277 -0.6710  0.3565 -0.2851
   37MOL   H34518417   3.044   6.510   7.482  0.2181  0.6443  0.7408
   37MOL   H34618418   3.022   6.661   7.501  1.1478 -0.3050  0.1900
   37MOL   H34718419   2.977   6.520   7.219  2.8739  1.7620  0.4272
   37MOL   H34818420   2.866   6.493   7.337 -0.1851  1.8016  1.8848
   37MOL   H34918421   2.815   6.693   7.179  0.3144 -1.5564  0.1229
   37MOL   H35018422   2.795   6.730   7.349  0.5620 -1.0554  0.3861
   37MOL   H35118423   2.936   6.792   7.258 -0.0146  0.7107 -0.6272
   37MOL   C35218424   3.704   6.806   7.616 -0.5108  0.8249 -0.5719
   37MOL   C35318425   3.633   6.941   7.641  0.5127 -0.3037  0.7082
   37MOL   O35418426   3.696   7.015   7.537 -0.5331 -0.7582 -0.0123
   37MOL   C35518427   3.631   7.136   7.502  0.4218  0.1996  0.1115
   37MOL   C35618428   3.657   7.140   7.348 -0.3009  0.6725  0.6732
   37MOL   C35718429   3.578   7.251   7.278 -0.4111  0.0900 -0.6158
   37MOL   C35818430   3.638   7.290   7.144 -0.8076  0.6032  0.2047
   37MOL   C35918431   3.560   7.402   7.072  0.2132  0.1604 -0.3052
   37MOL   C36018432   3.623   7.454   6.946  0.1146  0.3076  0.5434
   37MOL   H36118433   3.694   6.743   7.704  0.6938 -2.0557 -2.4418
   37MOL   H36218434   3.811   6.820   7.600 -0.7054  1.5810 -1.2596
   37MOL   H36318435   3.526   6.927   7.630  0.2788  1.8678  0.0662
   37MOL   H36418436   3.685   7.217   7.551 -3.0608  0.7938  3.1175
   37MOL   H36518437   3.527   7.137   7.532 -0.6001  1.5725 -3.3287
   37MOL   H36618438   3.625   7.050   7.297  0.1783  0.2498  1.1131
   37MOL   H36718439   3.762   7.162   7.327 -0.0721 -1.0090  0.0426
   37MOL   H36818440   3.475   7.214   7.283 -0.3299 -0.1989 -1.0507
   37MOL   H36918441   3.575   7.339   7.341 -1.8291  0.3347 -0.9969
   37MOL   H37018442   3.744   7.311   7.157 -1.0031  1.1398  0.9990
   37MOL   H37118443   3.645   7.196   7.090  1.3693  1.5547 -1.2403
   37MOL   H37218444   3.464   7.357   7.050  0.6682 -0.7650 -0.4552
   37MOL   H37318445   3.537   7.484   7.140 -1.0928 -2.5594  2.7081
   37MOL   H37418446   3.567   7.542   6.913  1.8108  1.3690  0.4634
   37MOL   H37518447   3.727   7.480   6.965  0.2315 -0.0568  0.4091
   37MOL   H37618448   3.614   7.384   6.862 -1.5081  2.0729 -0.8166
   37MOL   C37718449   3.656   7.008   7.776 -0.0857  0.0592 -0.4173
   37MOL   C37818450   3.543   6.963   0.095 -0.2957 -0.2939  0.4544
   37MOL   O37918451   3.420   7.025   0.039  0.3644  0.4024  0.0459
   37MOL   C38018452   3.321   6.930   0.022  0.2317 -0.2558 -0.7740
   37MOL   C38118453   3.193   7.010   7.767  0.0660 -0.2713 -0.0504
   37MOL   C38218454   3.161   7.121   0.083 -0.0096  0.0036 -0.7922
   37MOL   C38318455   3.101   7.066   0.216  0.5171  0.3434  0.4335
   37MOL   C38418456   3.036   7.175   0.306 -0.3249  0.3232 -0.0931
   37MOL   C38518457   2.967   7.112   0.425  0.9578 -0.2777 -0.6131
   37MOL   H38618458   3.751   6.974   0.037  0.8593  1.0658 -1.7966
   37MOL   H38718459   3.661   7.117   7.775 -0.9606  0.1068 -2.0266
   37MOL   H38818460   3.543   6.854   0.093  1.8911 -0.2993 -2.9747
   37MOL   H38918461   3.304   6.862   0.105 -1.1550  1.3834  0.3246
   37MOL   H39018462   3.336   6.860   7.718 -0.5182 -2.6223  1.0586
   37MOL   H39118463   3.104   6.948   7.757 -3.1008  3.6672  2.2840
   37MOL   H39218464   3.216   7.053   7.670  1.3494  1.0729  0.8441
   37MOL   H39318465   3.245   7.187   0.107 -0.5555  0.6344 -0.6002
   37MOL   H39418466   3.085   7.185   0.038  1.1754  0.6563 -1.9141
   37MOL   H39518467   3.028   6.986   0.207 -1.4162  2.2640 -1.8642
   37MOL   H39618468   3.180   7.019   0.274  0.4173 -0.3403  0.0281
   37MOL   H39718469   3.116   7.241   0.338  0.4743 -1.6559  2.0994
   37MOL   H39818470   2.960   7.236   0.257 -1.4465 -1.5438 -0.7479
   37MOL   H39918471   2.869   7.072   0.400  0.3456  1.2906 -0.8256
   37MOL   H40018472   3.037   7.042   0.470  0.0522 -0.3496  0.6869
   37MOL   H40118473   2.955   7.190   0.501  1.0847 -0.1429 -0.7299
   37MOL   C40218474   3.571   7.018   0.235 -0.0475 -0.0434 -0.5972
   37MOL   C40318475   3.485   6.960   0.353 -0.1378 -0.8064 -0.3081
   37MOL   O40418476   3.516   7.055   0.455  0.2703 -1.0616 -0.2396
   37MOL   C40518477   3.400   7.137   0.487  0.0399  0.2717 -0.4444
   37MOL   C40618478   3.452   7.244   0.586  0.0973  0.2110  0.8593
   37MOL   C40718479   3.334   7.338   0.620  0.5439  1.3828 -0.2243
   37MOL   C40818480   3.387   7.462   0.697 -0.0286  0.1781  0.0970
   37MOL   C40918481   3.285   7.538   0.773 -0.6998  0.8380  0.2031
   37MOL   C41018482   3.321   7.674   0.834  0.4857 -0.1357 -0.0327
   37MOL   H41118483   3.560   7.127   0.235 -2.4702 -0.2323  2.3950
   37MOL   H41218484   3.673   6.991   0.261 -0.1371 -0.3970 -0.6041
   37MOL   H41318485   3.381   6.959   0.320 -0.0328 -0.0306 -0.6910
   37MOL   H41418486   3.326   7.081   0.544  1.2983  0.9787  1.9132
   37MOL   H41518487   3.353   7.176   0.397  1.1494 -1.6426 -1.9057
   37MOL   H41618488   3.526   7.305   0.534 -1.0750 -0.1966 -1.3415
   37MOL   H41718489   3.502   7.198   0.672 -0.2839 -0.7950  0.5462
   37MOL   H41818490   3.275   7.366   0.533  1.1042 -0.5006 -1.2459
   37MOL   H41918491   3.270   7.281   0.688  1.1438 -0.0307 -0.8262
   37MOL   H42018492   3.458   7.427   0.771 -0.2387 -0.6517 -0.0908
   37MOL   H42118493   3.445   7.523   0.628  1.1105 -1.9811 -0.8807
   37MOL   H42218494   3.197   7.546   0.710 -0.3994  4.4438  0.1339
   37MOL   H42318495   3.250   7.469   0.850  0.5394 -2.4589 -2.0848
   37MOL   H42418496   3.408   7.668   0.898  0.2611  1.4501  0.4487
   37MOL   H42518497   3.343   7.746   0.755  0.2648 -0.6947 -0.6124
   37MOL   H42618498   3.228   7.710   0.879 -0.1567  0.7289 -1.9700
   37MOL   C42718499   3.536   6.823   0.396 -0.0989 -0.1119 -0.0853
   37MOL   C42818500   3.447   6.767   0.512  0.1974 -0.2616  1.2849
   37MOL   O42918501   3.357   6.668   0.471  0.9044 -0.3825 -0.2354
   37MOL   C43018502   3.253   6.718   0.387 -0.7802 -0.3316 -0.4884
   37MOL   C43118503   3.148   6.612   0.341  0.2939 -0.1357 -0.9368
   37MOL   C43218504   3.035   6.658   0.246  0.2202  0.1456  0.2940
   37MOL   C43318505   2.941   6.548   0.197 -0.4031 -0.7265  0.8983
   37MOL   C43418506   2.824   6.604   0.118 -0.0099 -0.2998 -0.4719
   37MOL   C43518507   2.866   6.687   7.773  0.1378 -0.0699  0.4655
   37MOL   H43618508   3.511   6.757   0.313  0.7842  0.9222 -1.1955
   37MOL   H43718509   3.643   6.835   0.410 -0.1296 -0.7760  0.7734
   37MOL   H43818510   3.385   6.833   0.572 -0.8424 -0.6422  0.6374
   37MOL   H43918511   3.299   6.774   0.306  0.1896 -1.5662 -0.8088
   37MOL   H44018512   3.196   6.794   0.440 -0.2789  0.3157 -0.8702
   37MOL   H44118513   3.097   6.560   0.422  0.6793  0.4840 -0.2888
   37MOL   H44218514   3.205   6.530   0.297 -0.0015 -0.0059 -1.5597
   37MOL   H44318515   2.973   6.725   0.306 -0.2127 -0.9890  1.1483
   37MOL   H44418516   3.082   6.709   0.162 -0.7009  2.1053  0.9368
   37MOL   H44518517   2.988   6.466   0.142  1.6765  1.1326 -0.1889
   37MOL   H44618518   2.910   6.493   0.285 -1.8147 -1.8626 -0.2991
   37MOL   H44718519   2.769   6.520   0.074 -0.8109 -0.7658  1.3883
   37MOL   H44818520   2.759   6.662   0.182 -0.8709 -1.7342 -0.0193
   37MOL   H44918521   2.953   6.643   7.724  0.5980  0.6845  0.6114
   37MOL   H45018522   2.789   6.696   7.696  1.0398 -0.4300 -0.4893
   37MOL   H45118523   2.893   6.790   0.018 -0.9028  0.3746 -0.2421
   37MOL   C45218524   3.528   6.715   0.633 -0.5114  0.5200  1.0005
   37MOL   C45318525   3.600   6.815   0.718 -0.1945  0.2634  0.1921
   37MOL   O45418526   3.683   6.753   0.813 -0.8815 -0.0274  0.1481
   37MOL   C45518527   3.817   6.747   0.760  0.4960 -0.6902  0.2585
   37MOL   C45618528   3.902   6.642   0.828 -0.2925  0.0355 -0.4817
   37MOL   C45718529   4.054   6.648   0.788 -0.8723  0.2431  0.1709
   37MOL   C45818530   4.142   6.533   0.837  0.2061  0.2253 -0.4561
   37MOL   C45918531   4.136   6.412   0.756 -0.2002 -0.1743  0.4611
   37MOL   C46018532   4.201   6.291   0.824 -0.1026  0.2736  0.1275
   37MOL   H46118533   3.461   6.661   0.700 -1.3145  2.6457  1.9529
   37MOL   H46218534   3.596   6.636   0.598 -2.2957  0.2696 -2.0247
   37MOL   H46318535   3.661   6.878   0.653 -0.0661 -1.4819 -1.4270
   37MOL   H46418536   3.873   6.839   0.775 -0.0145 -0.7464  2.7709
   37MOL   H46518537   3.813   6.734   0.652  0.5914  1.3618 -0.0040
   37MOL   H46618538   3.863   6.543   0.804 -0.9999  0.2100 -0.0714
   37MOL   H46718539   3.884   6.657   0.934 -2.0289 -0.5524 -0.6881
   37MOL   H46818540   4.068   6.652   0.680  1.8594  0.8773  0.5164
   37MOL   H46918541   4.081   6.750   0.814 -2.1253  0.4330  0.7957
   37MOL   H47018542   4.249   6.553   0.840  0.4482 -1.1424  0.6821
   37MOL   H47118543   4.124   6.517   0.944  0.3714  2.9540  0.0076
   37MOL   H47218544   4.029   6.393   0.752 -0.0123 -1.0260 -0.8431
   37MOL   H47318545   4.173   6.425   0.655 -0.5027  1.7782  0.5796
   37MOL   H47418546   4.309   6.296   0.837  0.3614 -3.5295 -1.4165
   37MOL   H47518547   4.169   6.264   0.924  1.0844 -0.7801  0.2306
   37MOL   H47618548   4.185   6.194   0.776 -0.5718 -0.9076  2.6338
   37MOL   C47718549   3.510   6.910   0.796  0.0732 -0.1231 -0.3636
   37MOL   C47818550   3.582   7.013   0.883 -0.2400 -0.2144 -0.2908
   37MOL   O47918551   3.499   7.112   0.940  0.4670 -0.1998 -0.0637
   37MOL   C48018552   3.424   7.063   1.051  0.5205  0.2647  0.3720
   37MOL   C48118553   3.372   7.184   1.121 -0.5038 -0.3256 -0.2366
   37MOL   C48218554   3.357   7.165   1.270 -0.7023 -0.8993  0.5405
   37MOL   C48318555   3.304   7.290   1.346  0.5309 -0.1394  0.1958
   37MOL   C48418556   3.317   7.272   1.500  0.9441  0.1196 -0.5389
   37MOL   C48518557   3.259   7.394   1.570  0.0609  0.0628  0.0165
   37MOL   H48618558   3.433   6.959   0.736  1.1814  1.6227 -0.3959
   37MOL   H48718559   3.453   6.850   0.867  0.1157  0.9563  0.5889
   37MOL   H48818560   3.646   6.960   0.954 -1.1689 -0.9838 -0.0188
   37MOL   H48918561   3.482   7.000   1.118 -0.5664  0.3466  1.4013
   37MOL   H49018562   3.341   7.006   1.008  0.7120 -1.9543  2.8159
   37MOL   H49118563   3.279   7.199   1.067  0.0560 -1.8081 -1.6495
   37MOL   H49218564   3.441   7.268   1.108  0.3757 -0.4066  3.2180
   37MOL   H49318565   3.297   7.077   1.295  1.5641 -2.0529  2.1541
   37MOL   H49418566   3.458   7.145   1.306 -0.3963 -0.6981 -0.2176
   37MOL   H49518567   3.366   7.376   1.323 -1.5699  1.0100 -1.4425
   37MOL   H49618568   3.201   7.313   1.317  1.2188  1.6517 -0.8886
   37MOL   H49718569   3.271   7.181   1.539  0.1435  1.5512  1.9367
   37MOL   H49818570   3.419   7.271   1.540  0.0811 -3.5303  1.8565
   37MOL   H49918571   3.260   7.386   1.679 -0.1260  1.3324  0.1194
   37MOL   H50018572   3.314   7.482   1.539  2.3261 -1.7703 -1.3344
   37MOL   H50118573   3.156   7.421   1.547  0.4610 -0.2005 -2.1678
   37MOL   H50218574   3.655   7.062   0.819  0.7878 -1.0798  0.1994
   38MOL     C118575   2.210   7.428   2.440  0.0752  0.1648 -0.0990
   38MOL     C218576   2.152   7.359   2.568 -0.0048  0.3328 -0.1441
   38MOL     O318577   2.017   7.337   2.556 -0.7286 -0.3937 -0.1427
   38MOL     C418578   1.982   7.228   2.470  0.3866  0.0809 -0.2589
   38MOL     C518579   1.835   7.194   2.485  0.3088 -0.1862 -0.3084
   38MOL     C618580   1.798   7.147   2.624  0.7235  0.2755  0.2874
   38MOL     C718581   1.849   7.004   2.649 -0.1618  0.1130 -0.3564
   38MOL     C818582   1.811   6.943   2.784 -1.1957 -0.1800  0.1375
   38MOL     C918583   1.869   6.802   2.802 -0.2172 -0.2193 -0.1737
   38MOL    H1018584   2.316   7.452   2.442  0.5017 -1.5894 -0.8032
   38MOL    H1118585   2.194   7.379   2.343 -0.6981 -1.0277  0.6133
   38MOL    H1218586   2.204   7.266   2.587  0.7409  0.7256 -0.2450
   38MOL    H1318587   2.045   7.140   2.472 -2.0299 -1.7678 -1.7561
   38MOL    H1418588   2.002   7.276   2.374 -3.4133  1.1611 -0.6066
   38MOL    H1518589   1.823   7.111   2.414  0.7323  0.9193 -1.6945
   38MOL    H1618590   1.772   7.277   2.453  0.9545  0.8511  1.0621
   38MOL    H1718591   1.831   7.207   2.708  0.5096  0.6628  0.0958
   38MOL    H1818592   1.690   7.139   2.632  0.5881  2.1032  0.3664
   38MOL    H1918593   1.802   6.940   2.574 -0.8648 -1.6690  1.5845
   38MOL    H2018594   1.954   6.982   2.627  0.9743  0.5920  4.1152
   38MOL    H2118595   1.703   6.950   2.787 -1.3649 -1.5389 -2.0718
   38MOL    H2218596   1.843   7.006   2.867  1.0715 -1.1904  0.0629
   38MOL    H2318597   1.978   6.802   2.790 -0.0999  1.0136  0.7562
   38MOL    H2418598   1.849   6.761   2.902  0.4100  0.8278  0.3921
   38MOL    H2518599   1.831   6.737   2.724 -1.4698  0.0713  0.1899
   38MOL    H2618600   2.158   7.522   2.423 -0.9114  0.0006  1.8738
   38MOL    C2718601   2.175   7.452   2.693  0.3916 -0.7238  0.2955
   38MOL    C2818602   2.136   7.375   2.822  1.0118  0.2901  0.4055
   38MOL    O2918603   2.224   7.270   2.863  0.3821 -0.1332 -0.0177
   38MOL    C3018604   2.168   7.157   2.922 -0.1196  0.1405 -0.8534
   38MOL    C3118605   2.270   7.046   2.933 -0.1892  0.3532  0.0444
   38MOL    C3218606   2.334   7.009   2.804 -0.3114 -0.1062 -0.0086
   38MOL    C3318607   2.467   6.934   2.822 -0.3136  0.4894 -0.0536
   38MOL    C3418608   2.526   6.866   2.691  0.1886 -0.4204  0.4296
   38MOL    C3518609   2.646   6.771   2.724 -0.2935 -0.1563  0.7152
   38MOL    H3618610   2.281   7.472   2.706  0.0042  1.5880  0.1766
   38MOL    H3718611   2.119   7.546   2.696  1.7800  0.0692  2.4408
   38MOL    H3818612   2.034   7.343   2.800  0.9780  0.8297 -0.2240
   38MOL    H3918613   2.082   7.115   2.869 -0.9315  1.2082 -0.3946
   38MOL    H4018614   2.135   7.178   3.024  1.3930  1.4730 -0.6261
   38MOL    H4118615   2.230   6.954   2.978  0.5635 -0.1946 -0.4003
   38MOL    H4218616   2.351   7.068   3.002 -1.3552  1.9025  0.9396
   38MOL    H4318617   2.266   6.953   2.739 -1.5556  0.1289  1.0839
   38MOL    H4418618   2.353   7.086   2.729 -0.0845 -0.5660 -0.4289
   38MOL    H4518619   2.535   6.996   2.879 -0.6486 -2.2207  3.4599
   38MOL    H4618620   2.441   6.849   2.885  1.1805 -0.0747 -0.1791
   38MOL    H4718621   2.451   6.809   2.637  0.2130  1.3028 -1.4979
   38MOL    H4818622   2.555   6.946   2.623 -1.7967  0.6247  0.7713
   38MOL    H4918623   2.679   6.710   2.641  2.3995 -1.0327  2.3590
   38MOL    H5018624   2.737   6.824   2.753  0.8503 -0.8533 -1.5400
   38MOL    H5118625   2.615   6.712   2.810  2.0116 -1.2847  0.8049
   38MOL    C5218626   2.111   7.466   2.946 -0.5246  0.4146 -0.2573
   38MOL    C5318627   2.225   7.554   2.995  0.0742  0.3743  0.0156
   38MOL    O5418628   2.222   7.672   2.920  0.8806  0.0627 -0.4964
   38MOL    C5518629   2.332   7.759   2.942  0.0361  0.3330 -0.0241
   38MOL    C5618630   2.339   0.062   2.813  0.4652  0.5582 -0.2315
   38MOL    C5718631   2.393   7.762   2.690 -0.2640 -0.1350  0.0343
   38MOL    C5818632   2.382   0.077   2.568  0.0946  0.2561  0.0196
   38MOL    C5918633   2.441   0.011   2.434  0.1036 -0.3396 -0.2820
   38MOL    C6018634   2.429   0.110   2.317 -0.3004  0.0848 -0.3019
   38MOL    H6118635   2.093   7.398   3.030  0.7273 -0.9475 -1.0535
   38MOL    H6218636   2.021   7.526   2.936 -0.0727  1.4128  1.5207
   38MOL    H6318637   2.317   7.497   2.986  0.2941  0.7294  0.0339
   38MOL    H6418638   2.418   7.695   2.961 -0.7799 -0.7450  0.0821
   38MOL    H6518639   2.323   0.034   3.036 -2.1026  0.7061 -0.4184
   38MOL    H6618640   2.417   0.139   2.813  1.5700 -0.5257  1.9046
   38MOL    H6718641   2.243   0.112   2.797 -0.5454 -0.9681  0.9134
   38MOL    H6818642   2.495   7.731   2.709  1.0424  2.0786 -2.9631
   38MOL    H6918643   2.333   7.672   2.674 -1.9350  0.7521  1.1744
   38MOL    H7018644   2.278   0.100   2.548  1.0100  2.3945 -2.5531
   38MOL    H7118645   2.444   0.163   2.592  0.3899 -0.0579  0.3991
   38MOL    H7218646   2.547   7.774   2.451 -0.0678  1.4487  2.7279
   38MOL    H7318647   2.386   7.697   2.417 -0.1059  0.0962 -2.0515
   38MOL    H7418648   2.466   0.210   2.342 -0.3431 -0.2084  0.9636
   38MOL    H7518649   2.498   0.083   2.238 -0.5076  0.5895 -0.6636
   38MOL    H7618650   2.338   0.124   2.258 -0.8578 -2.2101 -0.0415
   38MOL    C7718651   2.200   7.591   3.145  0.2151  0.5995 -0.2038
   38MOL    C7818652   2.193   7.490   3.262 -0.4693 -0.0061 -0.3968
   38MOL    O7918653   2.144   7.556   3.378  0.4230  0.1236  0.6276
   38MOL    C8018654   2.000   7.546   3.378 -0.5273  0.3224 -0.9284
   38MOL    C8118655   1.949   7.608   3.509 -0.0620 -0.5122 -0.2033
   38MOL    C8218656   2.007   7.533   3.635 -0.1078 -0.4411  0.4160
   38MOL    C8318657   1.946   7.581   3.771  0.2059 -0.5463 -0.3155
   38MOL    C8418658   2.030   7.537   3.895  0.4808  0.2708  0.0670
   38MOL    C8518659   2.090   7.396   3.900  0.3721 -0.0415  0.0461
   38MOL    H8618660   2.108   7.649   3.141  0.0739  0.4281  0.4440
   38MOL    H8718661   2.266   7.673   3.173 -0.4274  0.7223  0.9943
   38MOL    H8818662   2.135   7.402   3.234 -0.6477 -0.3204  0.9434
   38MOL    H8918663   1.963   7.446   3.353 -0.7189  0.2533 -0.3683
   38MOL    H9018664   1.967   7.621   3.307 -0.3317  1.5403  0.2522
   38MOL    H9118665   1.842   7.611   3.490  0.2764  1.7514 -1.9628
   38MOL    H9218666   1.983   7.712   3.513 -0.4050 -0.3982 -0.1984
   38MOL    H9318667   1.988   7.426   3.625 -1.3001 -0.1515 -0.4830
   38MOL    H9418668   2.116   7.541   3.639 -0.0618  0.2848 -1.7896
   38MOL    H9518669   1.940   7.689   3.785  2.6078 -0.6638  2.1248
   38MOL    H9618670   1.840   7.556   3.775  0.4229 -1.2204  3.6280
   38MOL    H9718671   2.115   7.606   3.899  0.3910  0.3910 -0.1341
   38MOL    H9818672   1.971   7.564   3.983 -0.5736 -0.0371 -0.5373
   38MOL    H9918673   2.178   7.380   3.837 -0.9189  4.0784 -3.0675
   38MOL   H10018674   2.124   7.373   4.001  0.9331 -0.5077 -0.2470
   38MOL   H10118675   2.015   7.324   3.871 -0.3297  1.4949 -2.1159
   38MOL   C10218676   2.335   7.442   3.309  0.1620  0.0317  0.9912
   38MOL   C10318677   2.340   7.291   3.364 -0.2520  0.1732  0.3260
   38MOL   O10418678   2.468   7.248   3.416  0.3875  0.1245  0.5203
   38MOL   C10518679   2.576   7.229   3.332  0.3188  0.4941 -0.6834
   38MOL   C10618680   2.678   7.140   3.404 -0.1768  0.0965  0.0135
   38MOL   C10718681   2.729   7.201   3.536  0.1820 -0.7015 -0.3224
   38MOL   C10818682   2.646   7.150   3.650 -0.0589  0.0855 -0.4246
   38MOL   C10918683   2.694   7.207   3.791  1.0007 -0.1593  0.7536
   38MOL   C11018684   2.818   7.132   3.853  0.9980  0.0708 -0.1903
   38MOL   H11118685   2.404   7.455   3.226 -1.4384  1.2221 -0.2039
   38MOL   H11218686   2.375   7.504   3.390 -0.3449  1.4767  0.1521
   38MOL   H11318687   2.299   7.227   3.285 -0.1926  0.6000 -0.0541
   38MOL   H11418688   2.622   7.326   3.313  1.7307  0.3665  1.8177
   38MOL   H11518689   2.550   7.185   3.236 -2.1056  0.5522 -0.0842
   38MOL   H11618690   2.754   7.119   3.329 -0.6292 -1.0684 -0.1291
   38MOL   H11718691   2.634   7.044   3.431  0.3930  0.2004  1.3836
   38MOL   H11818692   2.832   7.168   3.544 -0.0012 -1.3095 -0.4176
   38MOL   H11918693   2.728   7.310   3.529  0.7051 -0.7655 -1.5193
   38MOL   H12018694   2.542   7.175   3.630  0.0687  0.5689 -0.4951
   38MOL   H12118695   2.641   7.042   3.657 -1.5437  0.0583 -1.7089
   38MOL   H12218696   2.726   7.309   3.771 -0.5009  0.0968 -0.4487
   38MOL   H12318697   2.615   7.216   3.866 -0.4376  0.7495 -0.8218
   38MOL   H12418698   2.776   7.050   3.913 -0.8013  0.2171 -1.2193
   38MOL   H12518699   2.873   7.089   3.769  0.6957 -3.2673  1.2262
   38MOL   H12618700   2.875   7.204   3.911 -0.0997  0.8873 -0.1153
   38MOL   C12718701   2.248   7.269   3.486 -0.2626 -0.6723 -1.0067
   38MOL   C12818702   2.236   7.124   3.522 -0.3305 -0.5476 -0.7738
   38MOL   O12918703   2.146   7.055   3.434 -0.1215  0.2559  0.1666
   38MOL   C13018704   2.212   6.947   3.364 -0.8421 -0.3641 -0.1441
   38MOL   C13118705   2.096   6.878   3.297  0.4871  0.4423  0.1243
   38MOL   C13218706   2.127   6.736   3.231 -0.2302  0.8353  1.0363
   38MOL   C13318707   2.004   6.655   3.189 -0.2163  0.0859  0.2326
   38MOL   C13418708   2.045   6.542   3.096 -0.2766  0.2209  0.4789
   38MOL   C13518709   1.941   6.436   3.078 -0.4497 -0.4437  0.0935
   38MOL   H13618710   2.278   7.338   3.565  2.4488  0.4667 -2.9330
   38MOL   H13718711   2.144   7.300   3.476 -0.4006 -0.9998 -0.6123
   38MOL   H13818712   2.335   7.079   3.517  0.0128  0.0668  0.2984
   38MOL   H13918713   2.255   6.873   3.431 -2.5463 -1.0508  0.2115
   38MOL   H14018714   2.288   6.990   3.298 -0.3414  0.7311  1.1284
   38MOL   H14118715   2.038   6.942   3.232  0.9435  0.6170 -0.1109
   38MOL   H14218716   2.019   6.859   3.371 -0.2280  1.0097 -0.4687
   38MOL   H14318717   2.179   6.751   3.137 -0.1015  2.5283  1.3613
   38MOL   H14418718   2.197   6.670   3.283  0.1687  0.7885  0.4406
   38MOL   H14518719   1.976   6.603   3.281  2.1111 -0.0438  0.8888
   38MOL   H14618720   1.921   6.713   3.149 -1.8865 -1.5114  1.2766
   38MOL   H14718721   2.084   6.572   2.999 -0.8808  1.6834  0.6840
   38MOL   H14818722   2.126   6.479   3.135  0.6666  1.2707  0.2369
   38MOL   H14918723   1.969   6.351   3.016 -0.4969  0.5600 -1.3252
   38MOL   H15018724   1.905   6.391   3.171  1.8122  0.1774  1.3108
   38MOL   H15118725   1.853   6.481   3.032 -0.5798  0.9927  1.6780
   38MOL   C15218726   2.183   7.110   3.665  1.0213 -0.5920 -0.3795
   38MOL   C15318727   2.192   6.969   3.725 -0.3060  0.4747  0.3812
   38MOL   O15418728   2.207   6.971   3.869 -0.0865  0.0839  0.3511
   38MOL   C15518729   2.348   6.968   3.895 -0.4103 -0.8857 -0.8725
   38MOL   C15618730   2.389   7.024   4.036 -0.5385 -0.9711  0.6336
   38MOL   C15718731   2.315   7.152   4.072  0.0735  0.1830  0.5054
   38MOL   C15818732   2.382   7.227   4.198  0.8034 -0.4082  0.5987
   38MOL   C15918733   2.512   7.304   4.170 -0.1727  0.0795 -0.6823
   38MOL   C16018734   2.535   7.402   4.280  0.0738 -0.2045  0.4354
   38MOL   H16118735   2.236   7.180   3.728 -0.0068  0.6374 -0.8676
   38MOL   H16218736   2.080   7.143   3.673  1.1022 -0.4956  0.2857
   38MOL   H16318737   2.271   6.914   3.675  1.6089  2.0166  1.6699
   38MOL   H16418738   2.410   7.012   3.817  0.4538 -0.5359  0.0041
   38MOL   H16518739   2.381   6.864   3.891  2.9056  0.2000 -3.1801
   38MOL   H16618740   2.497   7.036   4.043 -0.7545  1.7622 -0.3230
   38MOL   H16718741   2.374   6.942   4.107 -0.0967 -2.2348 -0.7188
   38MOL   H16818742   2.323   7.218   3.986 -0.2637  1.1244  1.1801
   38MOL   H16918743   2.208   7.136   4.083  0.2792 -0.4446  1.6968
   38MOL   H17018744   2.313   7.294   4.249  0.7748  0.9244 -1.1287
   38MOL   H17118745   2.401   7.147   4.270 -0.0945 -0.8318  0.3684
   38MOL   H17218746   2.591   7.229   4.168 -1.3872 -1.3297  1.7846
   38MOL   H17318747   2.494   7.361   4.079 -2.2693  0.7958  0.1409
   38MOL   H17418748   2.459   7.480   4.276 -0.2488 -0.5612 -0.4298
   38MOL   H17518749   2.551   7.352   4.375  1.1980 -1.5095 -0.4260
   38MOL   H17618750   2.625   7.460   4.260 -1.4914  1.7226 -1.2967
   38MOL   C17718751   2.069   6.880   3.690 -0.4240  0.1388  0.0769
   38MOL   C17818752   2.049   6.758   3.785  0.2388 -0.5912 -0.7201
   38MOL   O17918753   1.923   6.710   3.752  0.5732  0.4786  0.1772
   38MOL   C18018754   1.817   6.762   3.827 -0.0099 -0.2996 -0.0577
   38MOL   C18118755   1.679   6.737   3.763  0.0266  0.2615 -0.0582
   38MOL   C18218756   1.550   6.774   3.843 -0.6868 -0.0554 -0.6584
   38MOL   C18318757   1.423   6.746   3.761 -0.0910 -0.3038 -0.3260
   38MOL   C18418758   1.408   6.862   3.652  0.9998 -0.0546 -0.2078
   38MOL   C18518759   1.293   6.829   3.555 -0.3038  0.9262  0.2203
   38MOL   H18618760   1.981   6.942   3.705  0.3797  1.3936 -0.3492
   38MOL   H18718761   2.066   6.848   3.586 -1.8159  1.2001 -0.2228
   38MOL   H18818762   2.048   6.783   3.891 -0.4043  2.1209 -1.3306
   38MOL   H18918763   1.823   6.869   3.843 -0.4757 -0.4952  1.5405
   38MOL   H19018764   1.833   6.708   3.921 -1.4315  3.0757  2.1993
   38MOL   H19118765   1.666   6.634   3.732 -0.3714 -0.2540  1.7487
   38MOL   H19218766   1.682   6.783   3.664 -0.8290 -0.9670 -0.6693
   38MOL   H19318767   1.541   6.707   3.929  0.9384  3.0128  2.0241
   38MOL   H19418768   1.539   6.874   3.883 -1.4757  0.6280 -2.5614
   38MOL   H19518769   1.434   6.653   3.706  1.5167 -0.1371 -0.3043
   38MOL   H19618770   1.339   6.737   3.830 -0.2240  1.7205 -0.1913
   38MOL   H19718771   1.383   6.959   3.694 -0.3038 -0.5984  0.3130
   38MOL   H19818772   1.495   6.889   3.592  0.9483 -0.0834 -0.2959
   38MOL   H19918773   1.196   6.820   3.605 -1.2675  0.2982 -1.7395
   38MOL   H20018774   1.288   6.914   3.488 -2.6418  1.8385  1.4740
   38MOL   H20118775   1.321   6.734   3.510  0.5387  1.5623 -0.6040
   38MOL   C20218776   2.157   6.658   3.751  0.2269 -0.1829  0.1730
   38MOL   C20318777   2.151   6.519   3.803 -0.3777  0.2207 -0.4633
   38MOL   O20418778   2.220   6.520   3.928 -0.1486  0.0495  0.0135
   38MOL   C20518779   2.130   6.543   4.040 -0.1051 -0.1886  0.1913
   38MOL   C20618780   2.208   6.628   4.144 -0.0369  0.1764 -0.4029
   38MOL   C20718781   2.122   6.671   4.257  0.5686 -0.0171 -0.1951
   38MOL   C20818782   2.009   6.768   4.211  0.3881 -0.9425  0.6289
   38MOL   C20918783   1.942   6.828   4.336  0.1612  0.1631  0.8267
   38MOL   C21018784   2.032   6.909   4.431 -0.5106 -0.6437 -0.4564
   38MOL   H21118785   2.157   6.647   3.642  3.8287  2.4072 -0.1667
   38MOL   H21218786   2.254   6.702   3.772 -1.3819  2.8268  1.5340
   38MOL   H21318787   2.047   6.491   3.819  0.0608 -1.2790 -0.1525
   38MOL   H21418788   2.095   6.446   4.075 -4.2634  0.7875 -1.0765
   38MOL   H21518789   2.039   6.593   4.010  0.6259  0.8385 -0.3453
   38MOL   H21618790   2.264   6.709   4.097  0.5038 -0.9437 -1.7538
   38MOL   H21718791   2.292   6.568   4.179 -1.0385 -0.5709  0.7411
   38MOL   H21818792   2.080   6.586   4.312 -1.7364  1.8981  1.0856
   38MOL   H21918793   2.193   6.707   4.332 -0.2774 -0.5315  0.8786
   38MOL   H22018794   2.045   6.849   4.147  0.0830 -0.8551  0.5687
   38MOL   H22118795   1.934   6.724   4.145  1.9459 -1.3615 -0.8853
   38MOL   H22218796   1.855   6.888   4.312 -0.9019 -2.5374 -2.5184
   38MOL   H22318797   1.893   6.754   4.399  1.8696 -0.0698  1.9291
   38MOL   H22418798   1.975   6.957   4.511  2.1632 -0.4499  1.3913
   38MOL   H22518799   2.118   6.856   4.471 -0.5183 -1.5768 -1.6753
   38MOL   H22618800   2.078   6.986   4.369 -1.5064 -0.7381 -1.3257
   38MOL   C22718801   2.228   6.416   3.722 -0.5782 -0.5398  0.0624
   38MOL   C22818802   2.152   6.355   3.601 -0.0578 -0.6145 -0.8843
   38MOL   O22918803   2.243   6.274   3.524  0.3268  0.0169 -0.4276
   38MOL   C23018804   2.258   6.330   3.393  0.5760  0.0659 -0.2132
   38MOL   C23118805   2.355   6.239   3.317 -0.0400 -0.8346  0.2964
   38MOL   C23218806   2.359   6.286   3.167  0.0519 -0.5887  0.3278
   38MOL   C23318807   2.489   6.268   3.085  0.2760  0.0315 -0.9724
   38MOL   C23418808   2.500   6.361   2.959 -0.9248  0.3044  0.6216
   38MOL   C23518809   2.394   6.320   2.853  0.3934  0.6908  0.1379
   38MOL   H23618810   2.315   6.471   3.684 -0.8925  1.4532  2.1113
   38MOL   H23718811   2.256   6.332   3.784  1.6724  2.3405  3.1619
   38MOL   H23818812   2.103   6.436   3.548 -1.7743  0.7098  2.5889
   38MOL   H23918813   2.316   6.421   3.400 -2.1706  2.1511 -2.9760
   38MOL   H24018814   2.169   6.344   3.332  0.6079 -0.4442 -0.3818
   38MOL   H24118815   2.322   6.135   3.322 -1.3370 -0.3704  1.8039
   38MOL   H24218816   2.460   6.239   3.347  0.6789 -1.1407 -2.0643
   38MOL   H24318817   2.281   6.230   3.115 -0.9563  1.3506 -0.2567
   38MOL   H24418818   2.335   6.392   3.166 -0.1128 -0.6369 -1.0597
   38MOL   H24518819   2.576   6.296   3.144  0.6153  0.0312 -1.4689
   38MOL   H24618820   2.516   6.168   3.052 -0.7026 -0.8279  0.7462
   38MOL   H24718821   2.480   6.465   2.983 -0.4322 -0.0916  2.8788
   38MOL   H24818822   2.601   6.348   2.922 -0.9590  0.6517  0.4080
   38MOL   H24918823   2.412   6.385   2.767  0.7461  1.2553  0.6329
   38MOL   H25018824   2.402   6.216   2.823 -1.1339  0.1105  1.6700
   38MOL   H25118825   2.291   6.322   2.888  0.1098  0.4361 -0.6728
   38MOL   C25218826   2.033   6.274   3.646  0.2871  0.5069 -0.1455
   38MOL   C25318827   1.901   6.247   3.563  0.2941  0.0985  0.3531
   38MOL   O25418828   1.931   6.221   3.424  0.4177  0.6010  0.3501
   38MOL   C25518829   1.927   6.083   3.391 -0.2463 -0.1787  0.8614
   38MOL   C25618830   1.965   6.071   3.248 -0.3844 -0.0325 -0.4410
   38MOL   C25718831   1.988   5.923   3.200  0.9343 -0.1833 -0.3727
   38MOL   C25818832   2.069   5.902   3.075 -0.3907 -0.2657  0.0009
   38MOL   C25918833   2.041   6.003   2.962  0.3060 -0.1634  0.2150
   38MOL   C26018834   2.105   5.973   2.825 -0.0710  1.2575  0.0825
   38MOL   H26118835   2.069   6.176   3.676 -0.9243  0.9289  2.9255
   38MOL   H26218836   2.009   6.307   3.748  1.5169 -1.2160  0.7168
   38MOL   H26318837   1.844   6.164   3.605  0.5954  0.2220  1.0135
   38MOL   H26418838   1.828   6.042   3.410  0.0120 -1.0653  0.3196
   38MOL   H26518839   2.001   6.035   3.454  0.3621 -1.7208 -0.9967
   38MOL   H26618840   2.061   6.123   3.243  0.6096 -1.9348 -1.7768
   38MOL   H26718841   1.904   6.125   3.174 -0.4356  1.4592  0.6616
   38MOL   H26818842   2.040   5.874   3.282 -0.0925  1.2516  1.1907
   38MOL   H26918843   1.893   5.869   3.195  0.1012  1.2081  0.0122
   38MOL   H27018844   2.176   5.909   3.097 -0.5890  2.3892  0.2821
   38MOL   H27118845   2.049   5.803   3.034  1.1902 -0.0579 -1.3078
   38MOL   H27218846   1.934   5.999   2.946  0.1716  0.5241  0.9097
   38MOL   H27318847   2.077   6.096   3.005  0.6521 -0.1629 -0.0697
   38MOL   H27418848   2.082   5.879   2.774 -0.0616  0.6392  1.2070
   38MOL   H27518849   2.087   6.063   2.766 -1.4490  1.1657  0.3486
   38MOL   H27618850   2.213   5.968   2.842  0.5586 -0.2998 -3.8317
   38MOL   C27718851   1.814   6.368   3.550 -0.3353 -0.7636 -0.2218
   38MOL   C27818852   1.665   6.327   3.510  0.7394  0.8135 -0.1860
   38MOL   O27918853   1.612   6.266   3.623 -0.0437  0.1492 -0.2413
   38MOL   C28018854   1.501   6.171   3.597  0.4103  0.0721 -0.7571
   38MOL   C28118855   1.443   6.122   3.731  0.0967  0.4557 -0.4771
   38MOL   C28218856   1.313   6.033   3.709  0.0129  0.4245  0.8106
   38MOL   C28318857   1.236   5.970   3.828 -0.2770 -0.3713 -0.1186
   38MOL   C28418858   1.106   5.906   3.800 -0.4242 -0.6746 -0.2118
   38MOL   C28518859   1.061   5.827   3.918  0.0621  0.8435 -0.7156
   38MOL   H28618860   1.813   6.428   3.641  3.5626 -0.7082 -0.1096
   38MOL   H28718861   1.856   6.429   3.470 -1.7352  0.5519  0.0168
   38MOL   H28818862   1.666   6.251   3.432 -0.4192  2.0511 -1.4377
   38MOL   H28918863   1.543   6.089   3.539 -1.0519 -0.9773 -0.3786
   38MOL   H29018864   1.416   6.226   3.555  0.6396  2.1744  1.3815
   38MOL   H29118865   1.419   6.205   3.798 -1.1321 -0.9404  0.8554
   38MOL   H29218866   1.516   6.052   3.771 -2.1632 -2.9611 -2.1744
   38MOL   H29318867   1.247   6.100   3.655  0.2402  0.1778  0.2247
   38MOL   H29418868   1.339   5.962   3.631  0.2276  0.3906  0.9120
   38MOL   H29518869   1.299   5.897   3.879  1.2192 -0.2337 -1.6820
   38MOL   H29618870   1.232   6.055   3.896 -2.3453 -0.1166 -0.5402
   38MOL   H29718871   1.028   5.981   3.793  0.3802  0.4422  2.1289
   38MOL   H29818872   1.114   5.849   3.707  0.7311 -1.2043  0.2034
   38MOL   H29918873   1.131   5.749   3.945 -0.6618  0.0566 -1.0696
   38MOL   H30018874   1.058   5.889   4.008 -2.5234  0.0028 -0.1720
   38MOL   H30118875   0.975   5.766   3.887  3.3007 -4.6032  0.3940
   38MOL   C30218876   1.582   6.452   3.472 -0.2763 -0.4857 -0.6451
   38MOL   C30318877   1.588   6.464   3.321  0.0597  0.2956  0.0118
   38MOL   O30418878   1.542   6.601   3.298 -0.2998  0.0404 -0.2616
   38MOL   C30518879   1.657   6.683   3.258  0.0405 -0.2469  0.0376
   38MOL   C30618880   1.603   6.820   3.231  0.3487  0.3109 -0.3103
   38MOL   C30718881   1.709   6.922   3.201  0.2453 -0.7430  0.4896
   38MOL   C30818882   1.682   7.076   3.189  0.1361 -0.3828  0.5495
   38MOL   C30918883   1.806   7.166   3.187 -0.6540 -0.3980 -0.0095
   38MOL   C31018884   1.876   7.166   3.322 -0.0779 -0.0461 -0.1301
   38MOL   H31118885   1.480   6.451   3.510  0.1231 -0.7859  0.4299
   38MOL   H31218886   1.639   6.534   3.517  0.8961 -1.2497 -0.7132
   38MOL   H31318887   1.692   6.448   3.291  0.7439  1.8082  1.5414
   38MOL   H31418888   1.703   6.646   3.166  0.5379  0.4915 -0.0159
   38MOL   H31518889   1.733   6.682   3.337  1.5308  2.4349 -1.2841
   38MOL   H31618890   1.558   6.847   3.327  0.9845  2.5951 -0.6277
   38MOL   H31718891   1.540   6.804   3.144  2.9921 -1.1326 -2.0286
   38MOL   H31818892   1.787   6.909   3.276  2.2714 -0.1558 -1.4397
   38MOL   H31918893   1.757   6.894   3.107  0.8177  1.2935  0.1324
   38MOL   H32018894   1.623   7.099   3.101 -0.5155 -1.9498  0.5462
   38MOL   H32118895   1.623   7.108   3.275  1.1374  1.3246  0.6227
   38MOL   H32218896   1.874   7.129   3.111  1.8972  3.4722  0.1987
   38MOL   H32318897   1.784   7.267   3.150 -0.8628 -0.9749 -1.4970
   38MOL   H32418898   1.985   7.179   3.319 -0.0314  1.0909  3.5831
   38MOL   H32518899   1.825   7.237   3.386 -0.2056 -0.1027 -0.1703
   38MOL   H32618900   1.860   7.071   3.373 -1.0552  0.8159  1.1987
   38MOL   C32718901   1.498   6.359   3.250  0.2373  0.3785 -0.1860
   38MOL   C32818902   1.535   6.351   3.095  0.5005 -1.0566  0.0194
   38MOL   O32918903   1.530   6.219   3.045 -0.0973  0.1482 -0.0663
   38MOL   C33018904   1.626   6.126   3.090 -0.8821 -0.0754 -0.0731
   38MOL   C33118905   1.591   6.001   3.023 -0.3149  0.6985 -0.5300
   38MOL   C33218906   1.615   6.005   2.874 -0.1258  0.0472 -0.4840
   38MOL   C33318907   1.637   5.868   2.817  0.2266  0.0794  0.3826
   38MOL   C33418908   1.637   5.864   2.660  0.3948 -0.6986  0.7538
   38MOL   C33518909   1.751   5.933   2.588  0.0037 -0.3560 -0.3567
   38MOL   H33618910   1.394   6.380   3.273 -0.0133 -1.1473  0.0712
   38MOL   H33718911   1.515   6.256   3.281 -3.2775  0.0326  0.7161
   38MOL   H33818912   1.634   6.397   3.083  0.3521 -0.4730  1.0570
   38MOL   H33918913   1.626   6.104   3.197 -0.7818 -1.6585 -0.3958
   38MOL   H34018914   1.727   6.142   3.050 -1.4209  0.1781 -1.3483
   38MOL   H34118915   1.485   5.978   3.036 -0.2666  1.1614  0.7758
   38MOL   H34218916   1.649   5.915   3.056 -1.2228 -0.7088 -2.4557
   38MOL   H34318917   1.530   6.053   2.826  0.6641 -1.1614 -3.1808
   38MOL   H34418918   1.702   6.067   2.857  0.3546 -0.6500 -0.6017
   38MOL   H34518919   1.727   5.825   2.861  0.5420 -0.3111 -0.6222
   38MOL   H34618920   1.557   5.808   2.860  1.4706 -2.0520 -0.1916
   38MOL   H34718921   1.641   5.760   2.627 -0.5828  0.0658 -1.8854
   38MOL   H34818922   1.543   5.903   2.622  0.8820 -0.8111 -0.6003
   38MOL   H34918923   1.838   5.868   2.601 -0.5770 -1.2839 -1.1081
   38MOL   H35018924   1.744   5.929   2.480 -0.5983  0.8604 -0.3686
   38MOL   H35118925   1.783   6.034   2.617  0.0272 -0.4410 -0.0841
   38MOL   C35218926   1.429   6.434   3.020  0.2963 -0.5076  0.1833
   38MOL   C35318927   1.475   6.485   2.883 -0.2126  0.0563 -0.4935
   38MOL   O35418928   1.370   6.576   2.839  0.0156  0.1803 -0.3336
   38MOL   C35518929   1.381   6.707   2.909  0.5190 -0.2130 -0.4091
   38MOL   C35618930   1.329   6.822   2.821  0.1367 -0.1026 -0.7109
   38MOL   C35718931   1.353   6.964   2.890 -0.1413 -0.5549 -0.4463
   38MOL   C35818932   1.264   7.077   2.851 -0.1556  0.2587 -0.5256
   38MOL   C35918933   1.318   7.126   2.718  0.2816  0.2789 -0.5422
   38MOL   C36018934   1.263   7.264   2.680 -0.4143  0.1148  0.3887
   38MOL   H36118935   1.333   6.382   3.014 -1.1898  2.2404 -0.2719
   38MOL   H36218936   1.409   6.524   3.077  0.3982 -0.0593 -0.4923
   38MOL   H36318937   1.568   6.541   2.883 -0.3145  0.2409  0.4372
   38MOL   H36418938   1.487   6.725   2.930  0.6618 -0.8442 -0.5843
   38MOL   H36518939   1.325   6.717   3.002  0.3429 -0.2764 -0.5080
   38MOL   H36618940   1.224   6.796   2.806 -0.1142  1.1055 -1.0475
   38MOL   H36718941   1.384   6.816   2.727 -0.8128 -2.0700 -1.1648
   38MOL   H36818942   1.324   6.945   2.993  3.0624 -1.6890  0.3174
   38MOL   H36918943   1.461   6.979   2.894 -0.1839 -0.2449 -0.4740
   38MOL   H37018944   1.159   7.049   2.849 -0.5048  1.0129  3.6842
   38MOL   H37118945   1.275   7.153   2.929 -1.1403 -0.8483  0.7122
   38MOL   H37218946   1.427   7.124   2.709  0.2106 -0.6171 -1.2854
   38MOL   H37318947   1.288   7.053   2.643  0.2610 -0.8347  0.5241
   38MOL   H37418948   1.156   7.269   2.700 -0.6353  0.9079 -0.9456
   38MOL   H37518949   1.293   7.351   2.738 -0.0328  0.9628 -1.0684
   38MOL   H37618950   1.284   7.284   2.575 -0.8261 -3.1185 -0.3517
   38MOL   C37718951   1.492   6.381   2.773 -0.2992 -0.6961 -0.4829
   38MOL   C37818952   1.500   6.432   2.630 -0.1564 -0.4373 -0.5093
   38MOL   O37918953   1.484   6.318   2.546  0.4030  0.5569 -0.8733
   38MOL   C38018954   1.385   6.316   2.443  0.3659 -0.4241  0.0951
   38MOL   C38118955   1.428   6.217   2.342  0.2282 -0.1290  0.1053
   38MOL   C38218956   1.558   6.266   2.272  0.2583 -0.5947  0.2810
   38MOL   C38318957   1.607   6.163   2.174  0.8876  0.4979  0.0975
   38MOL   C38418958   1.741   6.195   2.124  0.0907  0.0010  0.1975
   38MOL   C38518959   1.777   6.090   2.014 -0.0076 -0.4071 -0.2515
   38MOL   H38618960   1.570   6.309   2.797  1.4670  1.9793  2.0402
   38MOL   H38718961   1.401   6.321   2.775 -1.9360  1.6827 -1.2254
   38MOL   H38818962   1.418   6.500   2.606  0.7087  1.3628  1.4498
   38MOL   H38918963   1.384   6.418   2.405 -0.2302 -0.2392  0.5887
   38MOL   H39018964   1.284   6.295   2.479  0.0748 -0.3826 -0.6987
   38MOL   H39118965   1.348   6.213   2.269 -0.1240  1.4547  0.3938
   38MOL   H39218966   1.443   6.116   2.381 -0.7853 -0.4111 -0.2339
   38MOL   H39318967   1.549   6.366   2.230  1.4421 -0.0784  1.2135
   38MOL   H39418968   1.628   6.284   2.353  1.0378  0.5952 -0.6343
   38MOL   H39518969   1.611   6.064   2.219 -0.6614  0.0872 -0.6360
   38MOL   H39618970   1.536   6.142   2.094  0.5854 -1.0627  0.7557
   38MOL   H39718971   1.743   6.296   2.084  0.0277  0.9506  2.5099
   38MOL   H39818972   1.817   6.196   2.202  0.4302  1.4174 -0.1390
   38MOL   H39918973   1.877   6.124   1.990 -0.4723 -0.5471 -2.5735
   38MOL   H40018974   1.773   5.988   2.053 -0.7678 -0.3724 -0.2345
   38MOL   H40118975   1.721   6.098   1.921  1.0748 -2.0367 -1.0706
   38MOL   C40218976   1.628   6.496   2.587 -0.2032 -0.1404 -0.0449
   38MOL   C40318977   1.632   6.587   2.463 -1.1318  0.0874 -0.3889
   38MOL   O40418978   1.760   6.639   2.434 -0.3939 -0.0242 -0.0342
   38MOL   C40518979   1.836   6.561   2.346  0.0232 -0.7672 -0.1856
   38MOL   C40618980   1.983   6.591   2.382  0.2356  0.0445  0.0123
   38MOL   C40718981   2.010   6.729   2.322 -0.6460 -0.5445  0.5697
   38MOL   C40818982   2.143   6.781   2.375 -0.0962  0.9368 -0.2832
   38MOL   C40918983   2.203   6.900   2.295  0.0743 -0.3949 -0.3258
   38MOL   C41018984   2.331   6.961   2.351 -0.1890  0.6127  0.0380
   38MOL   H41118985   1.710   6.424   2.590  1.0563  1.2214 -0.8326
   38MOL   H41218986   1.661   6.561   2.668  5.7539  0.4625 -2.6725
   38MOL   H41318987   1.592   6.524   2.383  0.5640 -1.0065 -0.3866
   38MOL   H41418988   1.814   6.584   2.242  0.2620 -0.4105 -0.1588
   38MOL   H41518989   1.815   6.456   2.363 -0.4923 -0.6967 -0.3700
   38MOL   H41618990   2.050   6.517   2.337  0.9002  1.2300 -0.9678
   38MOL   H41718991   2.004   6.581   2.488  0.4141  0.3917  0.0090
   38MOL   H41818992   2.014   6.715   2.214 -0.0215 -0.3719  0.5664
   38MOL   H41918993   1.926   6.795   2.340  0.4539  1.6547 -2.0812
   38MOL   H42018994   2.118   6.817   2.475 -2.1608 -0.5856 -0.2038
   38MOL   H42118995   2.219   6.703   2.387  0.1183  1.2653  0.5433
   38MOL   H42218996   2.216   6.852   2.198 -1.3321 -1.7452  0.1307
   38MOL   H42318997   2.130   6.982   2.290  0.2510 -0.1778  0.6305
   38MOL   H42418998   2.358   7.056   2.304  0.5706  0.8328  0.8932
   38MOL   H42518999   2.311   6.993   2.453 -0.9977  0.2053  0.0048
   38MOL   H42619000   2.398   6.875   2.348 -0.6275  0.2549  0.3788
   38MOL   C42719001   1.547   6.719   2.465  0.2705 -0.7008  1.1556
   38MOL   C42819002   1.556   6.798   2.330  0.4367 -0.4609  0.2040
   38MOL   O42919003   1.440   6.743   2.249 -0.2488 -0.2830  0.4615
   38MOL   C43019004   1.486   6.687   2.129  0.0506 -0.5841  0.5228
   38MOL   C43119005   1.382   6.595   2.064 -0.1082  0.2845  0.2135
   38MOL   C43219006   1.448   6.509   1.954  0.1954  0.1018  0.9109
   38MOL   C43319007   1.353   6.428   1.862 -0.0700 -0.0261 -0.2607
   38MOL   C43419008   1.423   6.339   1.755  0.1827 -0.1744  0.2944
   38MOL   C43519009   1.495   6.396   1.637 -0.3586  0.4834  0.2265
   38MOL   H43619010   1.442   6.701   2.488 -0.7974 -0.4596 -3.1291
   38MOL   H43719011   1.579   6.779   2.550 -2.2740  1.7351  0.4727
   38MOL   H43819012   1.655   6.780   2.286  0.3916 -3.2764  1.1170
   38MOL   H43919013   1.576   6.628   2.146 -1.1747 -1.7722  3.2683
   38MOL   H44019014   1.520   6.766   2.062 -0.1393  0.0814  1.2044
   38MOL   H44119015   1.290   6.638   2.025  0.5991  1.1062 -0.5641
   38MOL   H44219016   1.357   6.527   2.146  1.0184 -2.0075 -1.2860
   38MOL   H44319017   1.510   6.573   1.891 -1.2536  1.8931  1.2393
   38MOL   H44419018   1.528   6.448   1.996  0.7872  0.5944  0.5152
   38MOL   H44519019   1.295   6.364   1.929  0.2114  0.3802  0.3795
   38MOL   H44619020   1.285   6.504   1.822 -1.1879 -0.0987  1.4669
   38MOL   H44719021   1.493   6.277   1.812 -1.2845  0.0337  2.3590
   38MOL   H44819022   1.344   6.281   1.707  0.7381  0.3123 -1.2406
   38MOL   H44919023   1.428   6.432   1.559 -0.0750 -0.3422 -0.3994
   38MOL   H45019024   1.554   6.484   1.662  1.8253 -1.3372  1.6978
   38MOL   H45119025   1.561   6.324   1.588 -0.6282 -0.0254  0.6127
   38MOL   C45219026   1.531   6.949   2.338  0.4275 -0.4172  0.2935
   38MOL   C45319027   1.571   7.025   2.212 -0.2809  0.2285  0.5059
   38MOL   O45419028   1.711   7.024   2.201 -0.5568 -0.3341  0.2018
   38MOL   C45519029   1.750   6.964   2.079  0.3825 -0.1605 -0.7388
   38MOL   C45619030   1.902   6.989   2.072 -0.5922  0.9300  0.1388
   38MOL   C45719031   1.951   6.955   1.932  0.0074 -0.7673  0.3254
   38MOL   C45819032   2.102   6.943   1.902 -0.1376  0.3128 -0.1005
   38MOL   C45919033   2.132   6.931   1.752 -0.5794  0.6862  0.3921
   38MOL   C46019034   2.110   6.787   1.696 -0.0892  0.1842  0.4183
   38MOL   H46119035   1.427   6.978   2.354  1.0119  1.9129  0.1032
   38MOL   H46219036   1.581   6.984   2.427  0.0444 -1.9539  1.1299
   38MOL   H46319037   1.523   6.990   2.121 -0.6544 -1.6870  1.4173
   38MOL   H46419038   1.701   7.011   1.994 -1.4594  0.9392  0.9081
   38MOL   H46519039   1.718   6.860   2.070 -1.9154  0.1172  2.8802
   38MOL   H46619040   1.946   6.929   2.152 -1.2516 -0.5663 -0.5903
   38MOL   H46719041   1.937   7.091   2.082 -0.5229  1.0398 -1.1465
   38MOL   H46819042   1.909   6.860   1.899 -0.3283 -0.9123  1.1689
   38MOL   H46919043   1.903   7.032   1.872  1.0654  0.0413  0.4922
   38MOL   H47019044   2.149   7.037   1.932 -0.3994  1.1883 -2.2669
   38MOL   H47119045   2.138   6.854   1.953 -1.5694 -0.3333 -0.1963
   38MOL   H47219046   2.077   7.005   1.694  0.7389  0.7786 -0.7772
   38MOL   H47319047   2.238   6.945   1.732 -0.0873 -2.5785  0.3163
   38MOL   H47419048   2.119   6.774   1.589  1.0813 -0.4194  0.5835
   38MOL   H47519049   2.174   6.716   1.749 -1.1064  0.5318  2.1867
   38MOL   H47619050   2.013   6.743   1.723  0.1368  0.2096  1.2866
   38MOL   C47719051   1.536   7.178   2.220 -0.1959 -0.4297  0.1314
   38MOL   C47819052   1.505   7.241   2.086 -0.0673  0.1746 -0.2530
   38MOL   O47919053   1.454   7.371   2.109 -0.5096 -0.3991 -0.0110
   38MOL   C48019054   1.390   7.421   1.990 -0.1538  1.0118 -0.3033
   38MOL   C48119055   1.346   7.566   2.008  0.6062 -0.1005 -0.0329
   38MOL   C48219056   1.255   7.601   2.131  1.0778 -0.2062 -0.3172
   38MOL   C48319057   1.222   7.747   2.136  0.3821 -0.1777 -0.6532
   38MOL   C48419058   1.316   0.068   2.195  0.0175 -0.4948 -0.0912
   38MOL   C48519059   1.277   0.212   2.165 -0.7718 -0.0141  0.2588
   38MOL   H48619060   1.451   7.194   2.286 -0.3251  0.4632 -0.2478
   38MOL   H48719061   1.618   7.227   2.272 -1.1875  0.6885  0.6682
   38MOL   H48819062   1.598   7.247   2.030  0.8293 -0.4972  1.1365
   38MOL   H48919063   1.302   7.364   1.964 -0.3540  0.8985  0.5856
   38MOL   H49019064   1.448   7.403   1.899 -0.3630  0.4276 -0.3210
   38MOL   H49119065   1.296   7.607   1.920  1.1574 -0.7043 -0.6321
   38MOL   H49219066   1.427   7.637   2.023  0.7492 -0.2654 -0.0281
   38MOL   H49319067   1.162   7.543   2.132  1.1236 -0.2752  0.0429
   38MOL   H49419068   1.305   7.571   2.223 -0.4017 -0.5710  0.3720
   38MOL   H49519069   1.192   7.772   2.035 -0.7889  2.6845  0.3685
   38MOL   H49619070   1.131   7.745   2.196  0.0812 -1.3452 -1.1315
   38MOL   H49719071   1.329   0.069   2.304  1.4280  3.7149 -0.2289
   38MOL   H49819072   1.418   0.041   2.167 -0.1479 -0.6990 -0.4932
   38MOL   H49919073   1.354   0.282   2.198 -2.4274  1.5816  0.8458
   38MOL   H50019074   1.289   0.224   2.057 -1.6442  1.8570  0.3530
   38MOL   H50119075   1.182   0.248   2.205 -1.1422  1.2133 -1.6541
   38MOL   H50219076   1.440   7.181   2.023 -1.0938 -0.1129  1.0415
   39MOL     C119077   1.525   1.034   5.083 -0.1472 -0.0821  0.0028
   39MOL     C219078   1.495   1.180   5.109  0.1223 -0.5923 -0.1591
   39MOL     O319079   1.415   1.194   5.229 -0.4008  0.5816  0.1458
   39MOL     C419080   1.476   1.257   5.338  0.0454  0.0649  0.1996
   39MOL     C519081   1.362   1.266   5.441 -0.2301 -0.0369  0.2041
   39MOL     C619082   1.403   1.323   5.571 -0.7702 -0.3903 -0.6701
   39MOL     C719083   1.292   1.312   5.682  0.5376  0.0872 -0.5027
   39MOL     C819084   1.329   1.391   5.812  0.4551  0.1628  0.2087
   39MOL     C919085   1.339   1.542   5.789  0.0023  0.7011  0.9754
   39MOL    H1019086   1.432   0.981   5.060 -0.9438  1.9008 -1.5108
   39MOL    H1119087   1.589   1.034   4.995 -0.4860 -0.6359 -0.2469
   39MOL    H1219088   1.599   1.207   5.132 -0.6092  1.1618  1.2217
   39MOL    H1319089   1.509   1.355   5.306  0.1897 -0.1836 -0.4192
   39MOL    H1419090   1.558   1.190   5.364  2.1625  2.6083  0.1756
   39MOL    H1519091   1.335   1.162   5.458 -0.0354 -0.2179 -0.5525
   39MOL    H1619092   1.270   1.313   5.408  0.2270 -0.3087 -1.5239
   39MOL    H1719093   1.498   1.284   5.608 -1.0365 -0.0843  0.3745
   39MOL    H1819094   1.413   1.430   5.557 -3.1348 -0.4503 -3.2495
   39MOL    H1919095   1.199   1.351   5.642  0.6510  0.6649 -0.2244
   39MOL    H2019096   1.291   1.206   5.706 -0.2184  0.2953  0.4388
   39MOL    H2119097   1.421   1.350   5.853 -1.2452 -0.0393  4.0368
   39MOL    H2219098   1.249   1.371   5.883 -0.3042  3.0298  0.2111
   39MOL    H2319099   1.252   1.585   5.739  0.6212  1.3397  0.4507
   39MOL    H2419100   1.348   1.595   5.884  3.4218  0.4394  0.8293
   39MOL    H2519101   1.428   1.566   5.732 -0.1489 -1.2349 -0.1473
   39MOL    H2619102   1.568   0.984   5.169 -0.3589 -1.9529 -0.9468
   39MOL    C2719103   1.431   1.248   4.989  0.5743 -0.5392 -0.2338
   39MOL    C2819104   1.384   1.399   5.019 -0.4212 -0.3573  0.7485
   39MOL    O2919105   1.503   1.468   4.998  0.1841 -0.0645  0.2849
   39MOL    C3019106   1.518   1.591   5.073 -0.2500  0.2814 -0.0354
   39MOL    C3119107   1.646   1.658   5.043  0.0975 -0.5328 -0.4665
   39MOL    C3219108   1.654   1.735   4.908 -0.2948  0.2939  0.0502
   39MOL    C3319109   1.787   1.796   4.861 -0.0174  0.0125 -0.3064
   39MOL    C3419110   1.831   1.906   4.950  0.0265  0.4754 -0.1145
   39MOL    C3519111   1.942   2.003   4.893 -0.2891 -0.3228 -0.6576
   39MOL    H3619112   1.505   1.254   4.910 -1.0844 -0.2518 -1.8027
   39MOL    H3719113   1.353   1.180   4.955  0.1267 -0.4388  0.5714
   39MOL    H3819114   1.346   1.410   5.121  0.0534 -0.1408  0.9033
   39MOL    H3919115   1.521   1.555   5.175 -1.3707  0.8332  0.1953
   39MOL    H4019116   1.430   1.653   5.055  0.0994  0.9142  0.4361
   39MOL    H4119117   1.728   1.587   5.050 -1.0951 -1.7393  1.6054
   39MOL    H4219118   1.666   1.723   5.128 -1.0453 -0.6193 -0.1311
   39MOL    H4319119   1.608   1.667   4.836  0.1471 -1.5407  1.4585
   39MOL    H4419120   1.588   1.821   4.908  0.3140  0.7727  1.2471
   39MOL    H4519121   1.875   1.733   4.844  1.8147  2.2940  0.4178
   39MOL    H4619122   1.775   1.845   4.764 -1.8352  0.2869  0.0402
   39MOL    H4719123   1.741   1.963   4.973 -0.3162 -0.8029  1.7829
   39MOL    H4819124   1.861   1.868   5.048 -2.0546  0.7590  0.6476
   39MOL    H4919125   1.959   2.090   4.956 -1.2464  0.7061 -1.7879
   39MOL    H5019126   2.034   1.947   4.876 -1.3337 -1.8371 -1.4612
   39MOL    H5119127   1.920   2.051   4.799  1.7171  0.8271 -0.5630
   39MOL    C5219128   1.271   1.440   4.920  0.8662  0.1506  0.0987
   39MOL    C5319129   1.128   1.407   4.963  0.6269 -0.7165 -0.3026
   39MOL    O5419130   1.089   1.490   5.075 -0.3986  0.3113  0.1277
   39MOL    C5519131   1.025   1.419   5.178 -1.0431 -0.3487  0.0183
   39MOL    C5619132   1.011   1.520   5.300 -0.8125  0.1832  0.3756
   39MOL    C5719133   0.942   1.463   5.421 -0.1884 -0.0460 -0.2250
   39MOL    C5819134   0.930   1.567   5.537 -0.3559  0.0668  0.8897
   39MOL    C5919135   0.847   1.525   5.655 -0.1221  0.0930  0.8593
   39MOL    C6019136   0.699   1.493   5.647 -0.3186 -0.3874  0.3019
   39MOL    H6119137   1.298   1.411   4.819 -0.7603  2.3380 -1.0167
   39MOL    H6219138   1.268   1.547   4.901  2.3439 -0.1689 -2.0707
   39MOL    H6319139   1.130   1.301   4.987  0.5051 -0.9531 -1.3277
   39MOL    H6419140   1.083   1.332   5.207  1.6433  1.0738 -0.8990
   39MOL    H6519141   0.928   1.375   5.154 -0.6317 -2.5576  2.1580
   39MOL    H6619142   0.961   1.610   5.262  0.8440  0.5122 -1.0882
   39MOL    H6719143   1.113   1.550   5.326 -0.3136  0.4374 -1.7559
   39MOL    H6819144   0.845   1.421   5.395 -0.6709  0.8417  0.1250
   39MOL    H6919145   1.008   1.385   5.457 -0.0723 -0.8898 -2.2052
   39MOL    H7019146   1.036   1.581   5.558  0.6397 -0.8772 -3.0487
   39MOL    H7119147   0.879   1.657   5.501 -1.2157 -0.4369  0.8465
   39MOL    H7219148   0.899   1.458   5.724  1.4826 -1.3164 -1.6333
   39MOL    H7319149   0.860   1.613   5.718 -0.0415 -1.1445  2.6011
   39MOL    H7419150   0.640   1.576   5.687  1.1073  1.4195 -1.2316
   39MOL    H7519151   0.670   1.463   5.547  1.6399  2.4702 -1.2074
   39MOL    H7619152   0.688   1.403   5.707  4.2685 -2.5600 -1.8763
   39MOL    C7719153   1.016   1.426   4.859 -0.7023 -0.1079 -1.4455
   39MOL    C7819154   1.044   1.368   4.719  0.6409  0.3971  0.1096
   39MOL    O7919155   0.927   1.362   4.648  0.0722 -0.3603  0.2728
   39MOL    C8019156   0.881   1.486   4.593 -0.0467  0.0273  0.7137
   39MOL    C8119157   0.739   1.464   4.545  0.1245  0.0028 -0.3351
   39MOL    C8219158   0.728   1.354   4.438 -0.2117  0.2913  0.2528
   39MOL    C8319159   0.583   1.313   4.420  0.0277 -0.3758  0.0248
   39MOL    C8419160   0.573   1.225   4.290 -0.5920 -0.1567  0.1887
   39MOL    C8519161   0.431   1.221   4.235 -0.3054 -0.0504  0.0795
   39MOL    H8619162   0.986   1.531   4.858  2.0695  0.7255 -1.0535
   39MOL    H8719163   0.930   1.376   4.903 -1.8331  2.3334 -0.8000
   39MOL    H8819164   1.120   1.422   4.662  2.1416 -1.8476 -0.0879
   39MOL    H8919165   0.943   1.516   4.509 -0.2782 -1.8461 -0.1586
   39MOL    H9019166   0.866   1.559   4.673 -0.4374  1.2461 -0.4529
   39MOL    H9119167   0.706   1.548   4.485  1.0080  0.0753 -0.7360
   39MOL    H9219168   0.672   1.465   4.631 -0.3231 -0.7518 -0.6737
   39MOL    H9319169   0.777   1.385   4.346 -0.9086 -0.5390 -0.3992
   39MOL    H9419170   0.791   1.269   4.466 -1.0757 -0.9778 -1.5770
   39MOL    H9519171   0.549   1.259   4.509 -0.4536  0.2184  0.2084
   39MOL    H9619172   0.529   1.407   4.408 -0.9558 -0.7060  1.6371
   39MOL    H9719173   0.643   1.254   4.211  0.1298  1.7004  1.4835
   39MOL    H9819174   0.609   1.124   4.307  0.1076 -0.2553 -1.7659
   39MOL    H9919175   0.390   1.322   4.241  0.2870  0.1849  0.2529
   39MOL   H10019176   0.450   1.195   4.131  1.6858  0.2268  0.3545
   39MOL   H10119177   0.371   1.141   4.278  1.9021 -1.3371  0.8631
   39MOL   C10219178   1.098   1.228   4.713 -0.3292  0.0377  0.1305
   39MOL   C10319179   1.170   1.199   4.582  0.7797  0.0740 -0.2194
   39MOL   O10419180   1.217   1.065   4.599  0.2413  0.3491 -0.1291
   39MOL   C10519181   1.356   1.057   4.619  0.1607 -0.5773 -0.6607
   39MOL   C10619182   1.406   0.919   4.611 -0.0606  0.1712  0.1116
   39MOL   C10719183   1.381   0.822   4.729 -0.2414 -0.7286 -0.0767
   39MOL   C10819184   1.442   0.693   4.705  0.7061 -0.3257 -0.0689
   39MOL   C10919185   1.594   0.695   4.730 -0.7534  0.4128  0.1770
   39MOL   C11019186   1.662   0.555   4.733  0.1855  0.3184  0.2519
   39MOL   H11119187   1.167   1.201   4.793  1.7714 -3.4355 -2.7075
   39MOL   H11219188   1.015   1.158   4.726  0.0166 -0.2424  0.8980
   39MOL   H11319189   1.262   1.256   4.582  1.5521 -1.0760  2.7369
   39MOL   H11419190   1.367   1.093   4.721 -2.7404 -1.1029 -0.1238
   39MOL   H11519191   1.408   1.105   4.537 -2.5823  1.5320 -1.2457
   39MOL   H11619192   1.514   0.930   4.611  0.1716 -1.7746  2.2645
   39MOL   H11719193   1.386   0.872   4.515  0.8631  1.0587 -0.5183
   39MOL   H11819194   1.432   0.871   4.812 -0.8002 -0.2883  0.0098
   39MOL   H11919195   1.277   0.823   4.760  0.0787 -0.5229  1.0224
   39MOL   H12019196   1.399   0.614   4.767 -0.3647 -0.3428 -0.8269
   39MOL   H12119197   1.422   0.673   4.599 -1.4827  0.3005  0.2229
   39MOL   H12219198   1.641   0.759   4.654 -0.1393 -0.1053  0.1206
   39MOL   H12319199   1.612   0.740   4.827  0.2223  0.3925  0.0152
   39MOL   H12419200   1.771   0.562   4.734  0.1610  0.8665 -0.4352
   39MOL   H12519201   1.628   0.505   4.823 -0.9383 -1.8835 -1.3477
   39MOL   H12619202   1.631   0.494   4.648 -0.6093  1.0650  0.0093
   39MOL   C12719203   1.078   1.195   4.452 -0.1305 -0.2510  0.9029
   39MOL   C12819204   1.149   1.161   4.314 -0.0376 -0.9907 -0.1538
   39MOL   O12919205   1.186   1.028   4.316 -0.3518  0.6799 -0.4732
   39MOL   C13019206   1.095   0.922   4.283  0.1601 -0.3960 -0.4577
   39MOL   C13119207   1.163   0.788   4.249 -0.0173  0.2555  0.7921
   39MOL   C13219208   1.216   0.783   4.107  0.4849 -0.8422  0.5027
   39MOL   C13319209   1.293   0.646   4.077 -1.2151 -0.6770  0.2601
   39MOL   C13419210   1.373   0.645   3.941  0.2581 -0.2453  1.1762
   39MOL   C13519211   1.391   0.514   3.870 -0.0165  0.2014 -0.6106
   39MOL   H13619212   0.990   1.135   4.477  0.4086 -2.1197 -1.4261
   39MOL   H13719213   1.023   1.286   4.430  0.6210 -0.0435 -0.2316
   39MOL   H13819214   1.078   1.167   4.232 -0.9053  0.3046  0.6810
   39MOL   H13919215   1.020   0.947   4.207 -0.5850  0.2255  0.4599
   39MOL   H14019216   1.047   0.919   4.382 -0.4509  0.6149 -0.7065
   39MOL   H14119217   1.091   0.706   4.259 -0.7587  0.9671  1.2806
   39MOL   H14219218   1.243   0.756   4.315  0.5827  1.8827  0.8714
   39MOL   H14319219   1.141   0.806   4.031  1.5101  0.1508 -0.2223
   39MOL   H14419220   1.284   0.865   4.085 -0.1111 -0.1516  1.2154
   39MOL   H14519221   1.359   0.611   4.156  0.4536  0.4014 -0.6266
   39MOL   H14619222   1.204   0.583   4.074 -1.7652  0.1329 -0.8434
   39MOL   H14719223   1.332   0.713   3.866  0.1608 -0.9729  0.5740
   39MOL   H14819224   1.473   0.686   3.951  0.6598 -1.1558  0.9186
   39MOL   H14919225   1.478   0.508   3.804  0.2516 -0.7246 -0.1743
   39MOL   H15019226   1.405   0.435   3.944 -0.9137 -0.6250 -1.3067
   39MOL   H15119227   1.296   0.491   3.822  1.1663 -0.3077 -2.7856
   39MOL   C15219228   1.265   1.248   4.289 -0.2771 -0.1760  0.3534
   39MOL   C15319229   1.329   1.232   4.145 -0.1540  0.5909  0.3873
   39MOL   O15419230   1.235   1.307   4.071 -0.8662  0.1592 -0.6591
   39MOL   C15519231   1.241   1.299   3.932  0.8435 -0.9249 -0.3701
   39MOL   C15619232   1.098   1.317   3.889  0.2485 -0.3138 -0.0714
   39MOL   C15719233   1.014   1.195   3.925 -0.5638  0.6529 -0.0040
   39MOL   C15819234   0.870   1.226   3.957 -0.0444  0.2137  0.6453
   39MOL   C15919235   0.772   1.101   3.939 -1.0359 -0.2012  0.4236
   39MOL   C16019236   0.800   0.992   4.048  0.0538 -0.3317 -0.0185
   39MOL   H16119237   1.250   1.354   4.310 -2.1340 -0.7366  1.9000
   39MOL   H16219238   1.343   1.214   4.357  2.0045 -0.4857 -2.3288
   39MOL   H16319239   1.325   1.126   4.122  0.2434  1.1554 -2.6136
   39MOL   H16419240   1.281   1.207   3.890  0.1214 -0.9157 -1.0797
   39MOL   H16519241   1.291   1.383   3.884  0.6738 -0.7263 -0.1996
   39MOL   H16619242   1.095   1.338   3.782 -2.0569  1.8436  0.3776
   39MOL   H16719243   1.060   1.401   3.947  0.2422 -0.2775 -0.1276
   39MOL   H16819244   1.037   1.122   3.847  1.0800  0.5351  0.5567
   39MOL   H16919245   1.056   1.147   4.014  0.5927  1.9185  0.1459
   39MOL   H17019246   0.856   1.269   4.057  0.0759  0.8774  0.3777
   39MOL   H17119247   0.832   1.298   3.885 -0.2422  0.2117  0.7460
   39MOL   H17219248   0.673   1.139   3.963 -0.7069 -0.2113  1.8676
   39MOL   H17319249   0.790   1.051   3.844  0.6087  0.3681  0.4198
   39MOL   H17419250   0.897   0.950   4.024 -0.0654 -0.4146 -0.3473
   39MOL   H17519251   0.787   1.040   4.146  2.2863  1.1506 -0.4083
   39MOL   H17619252   0.731   0.908   4.037 -0.4968  0.2130 -0.7568
   39MOL   C17719253   1.472   1.296   4.121  0.0628 -0.4221 -0.4616
   39MOL   C17819254   1.581   1.217   4.193  0.2576 -0.2196 -0.1324
   39MOL   O17919255   1.580   1.074   4.167 -0.6522 -0.4498 -0.0788
   39MOL   C18019256   1.528   0.996   4.276  0.1639 -0.6004 -0.3916
   39MOL   C18119257   1.551   0.853   4.246 -1.0500  0.6401  0.9473
   39MOL   C18219258   1.700   0.813   4.276  0.5380  0.0688  0.4871
   39MOL   C18319259   1.730   0.682   4.202 -0.2249 -0.3675 -0.4242
   39MOL   C18419260   1.690   0.556   4.282  0.3126 -0.8986  0.0511
   39MOL   C18519261   1.762   0.431   4.215  0.5733  0.1897  0.4218
   39MOL   H18619262   1.490   1.297   4.013  1.6976 -2.3866 -0.2429
   39MOL   H18719263   1.485   1.398   4.155 -1.9973 -0.3327  0.1110
   39MOL   H18819264   1.558   1.234   4.298  1.4236 -0.7632  0.2268
   39MOL   H18919265   1.420   1.014   4.276 -0.0297 -1.4618 -3.0443
   39MOL   H19019266   1.572   1.023   4.372  0.9201 -2.7784 -0.0929
   39MOL   H19119267   1.527   0.833   4.142  0.5790 -0.5171  0.7779
   39MOL   H19219268   1.482   0.792   4.304 -1.7604 -1.2834 -1.8262
   39MOL   H19319269   1.771   0.878   4.225 -0.1954 -1.0638 -2.0631
   39MOL   H19419270   1.733   0.809   4.380  1.2431 -1.8123  0.1977
   39MOL   H19519271   1.683   0.682   4.103  1.5863 -2.4305 -1.3222
   39MOL   H19619272   1.838   0.673   4.199 -0.1926 -1.2039  2.1084
   39MOL   H19719273   1.708   0.566   4.389  1.6084 -1.6003 -0.0914
   39MOL   H19819274   1.581   0.556   4.285  0.2118 -0.5285 -2.8729
   39MOL   H19919275   1.728   0.341   4.265  1.3990 -0.9267 -0.9920
   39MOL   H20019276   1.741   0.433   4.108  0.2959  0.1644  0.4747
   39MOL   H20119277   1.869   0.443   4.227  0.1425  3.5461  1.4092
   39MOL   C20219278   1.721   1.275   4.162 -0.0438 -0.0488 -0.2295
   39MOL   C20319279   1.816   1.227   4.274 -0.0282  0.4801  0.2259
   39MOL   O20419280   1.794   1.311   4.387 -0.2566 -0.3954 -0.0791
   39MOL   C20519281   1.754   1.256   4.508 -0.3099  0.1986  0.0005
   39MOL   C20619282   1.684   1.374   4.587  1.1217 -0.0022 -0.2170
   39MOL   C20719283   1.549   1.411   4.532 -0.1603 -0.3425 -0.1841
   39MOL   C20819284   1.498   1.546   4.585  0.0794  0.2273 -0.3666
   39MOL   C20919285   1.372   1.591   4.509  0.0641 -0.1648  0.1080
   39MOL   C21019286   1.292   1.713   4.549  0.0875 -0.1645 -0.4919
   39MOL   H21119287   1.758   1.237   4.067  1.0704 -1.4610  0.7321
   39MOL   H21219288   1.710   1.383   4.155 -2.2601 -0.3151 -1.1009
   39MOL   H21319289   1.805   1.123   4.306 -0.5277  0.6110  0.4916
   39MOL   H21419290   1.849   1.226   4.552 -0.6393 -0.1492  0.4790
   39MOL   H21519291   1.686   1.173   4.491 -0.0335  0.2928 -1.6482
   39MOL   H21619292   1.743   1.466   4.594  0.6035  0.4062 -1.1098
   39MOL   H21719293   1.674   1.324   4.683 -1.5376  0.2819 -0.2997
   39MOL   H21819294   1.564   1.419   4.424  0.6390 -3.0182 -0.3102
   39MOL   H21919295   1.477   1.331   4.548 -0.1252 -0.4861 -0.7205
   39MOL   H22019296   1.483   1.543   4.693  0.1559  0.4696 -0.3486
   39MOL   H22119297   1.573   1.623   4.574 -0.4952  0.8830  0.2529
   39MOL   H22219298   1.389   1.605   4.403 -0.5647  1.3738  0.1940
   39MOL   H22319299   1.313   1.499   4.511  0.0141 -0.2281 -2.5782
   39MOL   H22419300   1.348   1.806   4.554  0.5955 -0.4360 -1.0741
   39MOL   H22519301   1.206   1.736   4.487 -0.9060 -0.6674  0.6746
   39MOL   H22619302   1.256   1.700   4.651 -1.9488  0.4006 -1.1185
   39MOL   C22719303   1.969   1.235   4.243  0.3492  0.3453  0.0345
   39MOL   C22819304   2.028   1.111   4.170  0.7431 -0.2026 -0.1759
   39MOL   O22919305   2.021   1.122   4.028  0.7071 -0.2506 -0.1099
   39MOL   C23019306   1.932   1.043   3.953 -0.2239 -0.2243  0.1310
   39MOL   C23119307   1.994   0.904   3.944  0.0813 -0.8763 -0.0602
   39MOL   C23219308   1.898   0.798   3.897  0.8918 -0.0689 -0.8619
   39MOL   C23319309   1.945   0.650   3.884 -0.6992 -0.6332  0.5846
   39MOL   C23419310   1.833   0.558   3.817 -0.7145  0.0474 -0.7302
   39MOL   C23519311   1.886   0.423   3.763 -0.1895 -0.4952  0.6235
   39MOL   H23619312   1.992   1.322   4.181 -1.9418  0.9076 -0.0578
   39MOL   H23719313   2.012   1.244   4.343 -0.8254 -1.8443  0.7598
   39MOL   H23819314   1.985   1.017   4.204 -0.7189  1.2523  2.0996
   39MOL   H23919315   1.927   1.080   3.851 -1.2370 -2.5059 -0.6843
   39MOL   H24019316   1.838   1.048   4.008 -0.1798  1.8465  0.0718
   39MOL   H24119317   2.008   0.885   4.051  1.3380  1.8185  0.2979
   39MOL   H24219318   2.092   0.898   3.898  0.7135  0.0485  1.1124
   39MOL   H24319319   1.816   0.794   3.970  3.0451  1.1766  1.6982
   39MOL   H24419320   1.863   0.822   3.796  0.2871 -1.9634 -1.1267
   39MOL   H24519321   2.042   0.639   3.836 -1.6705  0.3177 -1.6802
   39MOL   H24619322   1.952   0.607   3.984 -3.8521  0.7145  1.4370
   39MOL   H24719323   1.762   0.534   3.896  1.8569 -0.3273  1.5129
   39MOL   H24819324   1.781   0.615   3.739 -1.1678 -0.6062 -0.9124
   39MOL   H24919325   1.824   0.368   3.693  2.7041 -3.1120 -0.0209
   39MOL   H25019326   1.978   0.436   3.705 -0.6908 -1.4662 -0.4207
   39MOL   H25119327   1.915   0.350   3.838  2.5663  0.9099  0.9942
   39MOL   C25219328   2.178   1.104   4.193  0.5633 -0.2495 -0.6447
   39MOL   C25319329   2.245   0.968   4.203 -0.2503  0.3073 -0.5516
   39MOL   O25419330   2.239   0.927   4.339 -0.4000  0.3610 -0.3148
   39MOL   C25519331   2.142   0.824   4.361 -0.9637 -0.7543  0.3016
   39MOL   C25619332   2.120   0.811   4.515 -0.2387  0.4885  0.3481
   39MOL   C25719333   2.086   0.939   4.587  0.5218 -0.3229 -0.5682
   39MOL   C25819334   2.042   0.921   4.733 -0.0214 -1.0289  0.2243
   39MOL   C25919335   2.005   1.056   4.797  0.0996 -0.0882 -0.8946
   39MOL   C26019336   1.955   1.044   4.946 -0.0500 -0.3130 -0.5652
   39MOL   H26119337   2.215   1.146   4.099 -1.5063  0.6927 -1.0442
   39MOL   H26219338   2.212   1.165   4.276  2.3780 -1.0215 -0.7751
   39MOL   H26319339   2.199   0.887   4.145 -1.4279  0.1761  0.5368
   39MOL   H26419340   2.169   0.727   4.320 -1.3855 -0.5562 -0.4483
   39MOL   H26519341   2.047   0.852   4.315  0.3748  0.1115 -2.0137
   39MOL   H26619342   2.215   0.776   4.553  0.6533 -0.0042 -2.2520
   39MOL   H26719343   2.035   0.743   4.523  0.0853 -0.2338 -1.9219
   39MOL   H26819344   2.167   1.013   4.581 -0.0658  0.3171 -0.6872
   39MOL   H26919345   2.003   0.986   4.534  0.7583 -0.1955 -0.8267
   39MOL   H27019346   1.959   0.851   4.743 -2.3180  1.6607  0.1908
   39MOL   H27119347   2.126   0.883   4.792 -0.2158 -0.7419  0.6870
   39MOL   H27219348   2.099   1.112   4.792 -0.7276  1.4767  0.5229
   39MOL   H27319349   1.938   1.108   4.729 -0.3766 -2.8291 -2.5958
   39MOL   H27419350   2.036   1.012   5.011 -0.6401 -3.2170 -1.1613
   39MOL   H27519351   1.902   1.130   4.987  0.9711  0.0800 -0.0860
   39MOL   H27619352   1.883   0.962   4.952  1.5490 -1.6738  0.3654
   39MOL   C27719353   2.391   0.976   4.153 -0.1016  0.4299  0.0932
   39MOL   C27819354   2.484   0.845   4.156 -0.0024 -0.6476  0.1035
   39MOL   O27919355   2.592   0.879   4.069 -0.1126  0.2635 -0.0018
   39MOL   C28019356   2.593   0.804   3.942 -0.0591 -0.0739 -0.4272
   39MOL   C28119357   2.696   0.883   3.855 -0.4189  0.2212  0.0411
   39MOL   C28219358   2.839   0.906   3.914  0.2802 -0.6349 -1.5474
   39MOL   C28319359   2.941   0.793   3.889  0.4032  0.6244  0.1631
   39MOL   C28419360   2.984   0.785   3.734 -0.5250  0.4854 -0.5477
   39MOL   C28519361   3.106   0.870   3.716  0.1390 -0.1850  0.5685
   39MOL   H28619362   2.364   0.997   4.050 -0.3330 -2.7646 -0.5521
   39MOL   H28719363   2.442   1.052   4.212 -0.7755  0.3265  0.8305
   39MOL   H28819364   2.420   0.759   4.135 -4.1153  2.6834 -1.8356
   39MOL   H28919365   2.496   0.789   3.895 -0.4441  1.6725 -0.2629
   39MOL   H29019366   2.639   0.707   3.960 -1.0863 -0.3596  0.7258
   39MOL   H29119367   2.664   0.985   3.833 -3.0779 -1.0012 -1.8896
   39MOL   H29219368   2.709   0.821   3.766  1.3308  0.6461 -0.0219
   39MOL   H29319369   2.871   1.000   3.870 -0.9065  0.9681  0.9572
   39MOL   H29419370   2.822   0.920   4.020  2.2752 -3.2011 -0.8113
   39MOL   H29519371   3.032   0.809   3.947 -0.2441  1.5004  0.9618
   39MOL   H29619372   2.889   0.702   3.917  1.6864 -0.8282 -2.0362
   39MOL   H29719373   3.016   0.681   3.721 -2.3465 -0.3275  1.1241
   39MOL   H29819374   2.905   0.808   3.663  0.1943 -1.0750 -1.8732
   39MOL   H29919375   3.186   0.860   3.789  0.1414  0.8514  0.7094
   39MOL   H30019376   3.141   0.853   3.614 -1.1430  0.2088  0.0643
   39MOL   H30119377   3.073   0.974   3.715  0.7990  0.0381 -1.3091
   39MOL   C30219378   2.544   0.839   4.301 -0.4886  0.8262 -0.2706
   39MOL   C30319379   2.657   0.730   4.316 -0.5059  1.0102  0.2598
   39MOL   O30419380   2.607   0.613   4.372  0.1772  0.0404 -0.2981
   39MOL   C30519381   2.566   0.513   4.281  0.1457  0.4080  0.4489
   39MOL   C30619382   2.475   0.419   4.352 -0.8567 -0.1406  0.1814
   39MOL   C30719383   2.331   0.469   4.372 -0.7723  0.0398 -0.5660
   39MOL   C30819384   2.220   0.365   4.425  0.6754 -0.2514  0.5446
   39MOL   C30919385   2.098   0.448   4.469 -0.7200 -0.0122 -0.0158
   39MOL   C31019386   1.971   0.361   4.503 -0.2320  0.1854 -0.3955
   39MOL   H31119387   2.597   0.934   4.302 -1.2150  1.3038 -2.6118
   39MOL   H31219388   2.465   0.849   4.375  1.3295  2.2237  1.5331
   39MOL   H31319389   2.698   0.710   4.217 -2.2567 -0.7351 -0.1520
   39MOL   H31419390   2.644   0.445   4.245  0.1647  1.3189 -1.2847
   39MOL   H31519391   2.510   0.547   4.194  0.8416 -2.3005 -1.1440
   39MOL   H31619392   2.526   0.388   4.443  0.2372  0.0834 -0.3453
   39MOL   H31719393   2.469   0.330   4.290 -2.8832 -0.6396  1.0637
   39MOL   H31819394   2.340   0.556   4.437 -0.1066 -1.3464  1.2694
   39MOL   H31919395   2.292   0.510   4.279  0.6985  0.6122 -0.9423
   39MOL   H32019396   2.192   0.299   4.343 -0.3160  0.7794  0.0339
   39MOL   H32119397   2.252   0.309   4.513 -3.4430 -0.8385  1.7903
   39MOL   H32219398   2.119   0.494   4.565 -1.1665  3.0844 -1.3537
   39MOL   H32319399   2.066   0.529   4.404 -1.1075  0.4229  0.7147
   39MOL   H32419400   1.982   0.279   4.574 -0.4978 -0.0281 -0.5976
   39MOL   H32519401   1.893   0.426   4.542 -0.2761 -0.8070  1.1924
   39MOL   H32619402   1.942   0.296   4.420 -1.3964  0.4731 -0.2185
   39MOL   C32719403   2.765   0.780   4.413 -0.2979 -0.7109  0.3346
   39MOL   C32819404   2.875   0.677   4.463 -0.1655  0.7929 -0.2055
   39MOL   O32919405   2.972   0.654   4.356  0.0173 -0.0962 -0.4595
   39MOL   C33019406   2.963   0.520   4.302  0.2616 -0.2277  0.3288
   39MOL   C33119407   3.006   0.406   4.391  0.1980 -0.3549 -0.1001
   39MOL   C33219408   2.977   0.266   4.338  0.0482  0.1489 -0.6269
   39MOL   C33319409   3.002   0.149   4.433  0.1099  0.1782  0.1221
   39MOL   C33419410   3.154   0.121   4.447 -0.2460 -0.1284  0.7700
   39MOL   C33519411   3.184   0.006   4.537 -0.1678 -0.3500 -0.5595
   39MOL   H33619412   2.707   0.807   4.502  0.2218  0.2389  0.3781
   39MOL   H33719413   2.802   0.877   4.381 -0.5471  0.1789  2.6648
   39MOL   H33819414   2.832   0.586   4.504  0.4310  0.1642 -0.9606
   39MOL   H33919415   3.037   0.530   4.222  0.4988  0.1653  0.5947
   39MOL   H34019416   2.866   0.497   4.259  0.0057 -1.0106  1.3270
   39MOL   H34119417   2.962   0.415   4.491  1.7398  0.7039  0.5163
   39MOL   H34219418   3.112   0.418   4.413  0.1038 -1.8012  1.2666
   39MOL   H34319419   2.872   0.261   4.306 -1.3558  0.4323  3.6228
   39MOL   H34419420   3.029   0.239   4.246  0.4483 -1.4737  0.0680
   39MOL   H34519421   2.952   0.160   4.529 -0.2200 -1.9807  0.2155
   39MOL   H34619422   2.960   0.060   4.387 -0.5271  0.6214 -0.1604
   39MOL   H34719423   3.195   0.111   4.346  0.4618  1.8488  0.8336
   39MOL   H34819424   3.204   0.210   4.486 -2.2660  1.5390 -0.3184
   39MOL   H34919425   3.290   7.764   4.543  0.0663  0.8306 -0.5553
   39MOL   H35019426   3.154   0.028   4.640  1.3557  0.1806 -0.2119
   39MOL   H35119427   3.132   7.700   4.492 -0.3318 -1.0564  0.9141
   39MOL   C35219428   2.962   0.752   4.578  0.5252 -0.1865  0.1182
   39MOL   C35319429   3.066   0.668   4.664  0.4050  0.4923  0.0812
   39MOL   O35419430   2.988   0.557   4.720 -0.0607  0.4682 -0.3835
   39MOL   C35519431   3.068   0.454   4.765  0.4234 -0.0727 -0.6137
   39MOL   C35619432   2.962   0.351   4.822 -0.4058 -0.1967 -0.2620
   39MOL   C35719433   3.022   0.219   4.866  0.2197  0.6344 -0.8057
   39MOL   C35819434   2.922   0.114   4.921  0.1277  0.1246  0.1824
   39MOL   C35919435   2.986   7.771   4.990 -0.1039  0.0164  0.0047
   39MOL   C36019436   2.882   7.660   5.033 -0.9161 -0.2470 -0.8737
   39MOL   H36119437   3.015   0.840   4.540 -0.4768  0.0352 -0.7967
   39MOL   H36219438   2.901   0.798   4.655 -0.9768  2.0071 -2.2848
   39MOL   H36319439   3.140   0.633   4.592 -0.1197  0.2696 -0.3557
   39MOL   H36419440   3.142   0.472   4.843  0.2855  0.1334 -0.5288
   39MOL   H36519441   3.115   0.406   4.679 -2.1036 -1.4450 -1.2747
   39MOL   H36619442   2.887   0.342   4.743 -0.3011  1.0304 -0.5087
   39MOL   H36719443   2.908   0.396   4.907 -0.2271  0.6871 -0.6085
   39MOL   H36819444   3.075   0.183   4.778  0.2539  1.0572 -0.9588
   39MOL   H36919445   3.095   0.243   4.943 -0.5285  0.2911  0.0217
   39MOL   H37019446   2.858   0.153   5.000  1.9994  2.4320  0.6097
   39MOL   H37119447   2.849   0.082   4.847 -0.2152 -2.0277  1.3704
   39MOL   H37219448   3.065   7.724   4.931  1.5946  0.7098  1.6903
   39MOL   H37319449   3.037   0.025   5.081  1.2625 -0.1478 -0.6895
   39MOL   H37419450   2.919   7.573   5.088 -1.7128 -0.3921 -0.5494
   39MOL   H37519451   2.806   7.695   5.104  1.5717  3.4481  0.1104
   39MOL   H37619452   2.842   7.619   4.940 -2.9954 -0.8751  0.2489
   39MOL   C37719453   3.135   0.749   4.777 -0.5937 -0.0320 -0.1172
   39MOL   C37819454   3.252   0.844   4.731  0.2043 -0.5135 -0.5129
   39MOL   O37919455   3.342   0.753   4.681  0.1000 -0.0039 -0.1920
   39MOL   C38019456   3.446   0.812   4.610  0.7403 -0.7964 -0.1139
   39MOL   C38119457   3.570   0.717   4.617  0.9066  0.3011 -0.6236
   39MOL   C38219458   3.690   0.764   4.546  0.5335 -0.4989  0.2312
   39MOL   C38319459   3.808   0.662   4.555  0.7075 -0.1592  0.2993
   39MOL   C38419460   3.944   0.702   4.498  0.6618  0.0466 -0.4382
   39MOL   C38519461   3.944   0.734   4.352  0.1280 -0.2662  0.0050
   39MOL   H38619462   3.052   0.794   4.832 -1.6974 -2.5360  0.3851
   39MOL   H38719463   3.178   0.677   4.847 -0.3402 -0.0568 -0.2989
   39MOL   H38819464   3.209   0.921   4.667 -0.5468  0.9800  1.7150
   39MOL   H38919465   3.479   0.910   4.646  1.0778 -1.0015  0.1420
   39MOL   H39019466   3.411   0.830   4.508  0.5094  0.8640  0.2428
   39MOL   H39119467   3.548   0.619   4.575 -2.1827  0.4334  0.5571
   39MOL   H39219468   3.598   0.696   4.721  0.8441  1.4817 -0.3654
   39MOL   H39319469   3.646   0.764   4.446  2.5163  0.3557 -0.6626
   39MOL   H39419470   3.725   0.865   4.568 -0.0171 -0.7856  2.5969
   39MOL   H39519471   3.825   0.616   4.653  0.4067 -0.4691  0.2073
   39MOL   H39619472   3.779   0.573   4.499 -0.9842  1.5124 -1.5475
   39MOL   H39719473   3.979   0.795   4.543  0.7101 -0.2839  0.2011
   39MOL   H39819474   4.009   0.624   4.537 -1.5050 -1.2375  0.6324
   39MOL   H39919475   4.047   0.747   4.318 -0.2703 -0.3494 -1.2693
   39MOL   H40019476   3.907   0.644   4.303 -1.8343 -0.1709  1.2972
   39MOL   H40119477   3.884   0.821   4.323  1.3672  0.7987  0.5815
   39MOL   C40219478   3.313   0.914   4.860 -0.1571 -0.1447  0.2103
   39MOL   C40319479   3.216   0.982   4.949  0.5019 -0.7476 -0.6992
   39MOL   O40419480   3.149   1.091   4.885 -0.0912  0.0014 -0.8623
   39MOL   C40519481   3.228   1.188   4.817  0.0603  0.8402  0.3532
   39MOL   C40619482   3.160   1.322   4.836  0.5090 -0.0035 -0.4199
   39MOL   C40719483   3.010   1.312   4.804  0.0177 -0.3590  0.0143
   39MOL   C40819484   2.930   1.444   4.818  0.3445  0.5523 -0.1623
   39MOL   C40919485   2.980   1.569   4.743  0.3658  0.6257 -0.1815
   39MOL   C41019486   2.884   1.679   4.775  0.1054  0.4793  0.0509
   39MOL   H41119487   3.384   0.986   4.821  2.2668 -1.4807  2.0761
   39MOL   H41219488   3.359   0.836   4.921  1.5433  1.0966  0.5533
   39MOL   H41319489   3.139   0.915   4.986 -1.0317  2.3457  1.9341
   39MOL   H41419490   3.243   1.161   4.713  0.5670 -0.7989  0.8420
   39MOL   H41519491   3.325   1.205   4.864  1.0528 -4.7325  0.6651
   39MOL   H41619492   3.202   1.394   4.766  3.2313  1.1370  2.2931
   39MOL   H41719493   3.183   1.366   4.933  1.6702 -0.3256 -0.5444
   39MOL   H41819494   3.005   1.281   4.700  1.1137  0.9880 -0.4608
   39MOL   H41919495   2.963   1.240   4.870 -1.7487  0.2039 -0.6122
   39MOL   H42019496   2.828   1.425   4.784  0.2515  1.8474 -0.6402
   39MOL   H42119497   2.916   1.475   4.922 -1.8760  1.6261 -0.7470
   39MOL   H42219498   3.077   1.603   4.780  1.4140 -0.6231 -1.7145
   39MOL   H42319499   2.996   1.559   4.635  1.7714  2.2251 -0.1546
   39MOL   H42419500   2.916   1.777   4.740 -1.6660  1.1291  0.1576
   39MOL   H42519501   2.784   1.655   4.738 -0.9590 -3.0478  4.7417
   39MOL   H42619502   2.875   1.703   4.881  0.8650 -1.8204  0.6664
   39MOL   C42719503   3.277   1.017   5.087 -0.2767 -0.1476 -0.1884
   39MOL   C42819504   3.177   1.060   5.197  0.0251 -0.7075  0.0350
   39MOL   O42919505   3.261   1.078   5.312  0.1240 -0.1902  0.2291
   39MOL   C43019506   3.240   0.987   5.419  0.4890  0.0879  0.2014
   39MOL   C43119507   3.336   1.039   5.530 -0.3190 -1.0170 -0.0457
   39MOL   C43219508   3.300   0.971   5.660 -0.8013 -0.3037  0.1006
   39MOL   C43319509   3.414   0.975   5.764 -0.3613  0.8572  0.0811
   39MOL   C43419510   3.500   1.105   5.776 -0.4335 -0.0993  0.0220
   39MOL   C43519511   3.422   1.227   5.817 -0.1344 -0.1008 -0.2865
   39MOL   H43619512   3.328   0.924   5.111  0.2382 -0.0732 -0.9574
   39MOL   H43719513   3.353   1.094   5.073  0.2032 -0.7924 -1.1861
   39MOL   H43819514   3.105   0.982   5.220 -0.9468 -0.3824 -1.8201
   39MOL   H43919515   3.272   0.894   5.373  1.5073  0.8657 -0.7017
   39MOL   H44019516   3.137   0.985   5.456  0.2063 -2.3147 -0.6111
   39MOL   H44119517   3.319   1.146   5.543  1.4104 -0.7280 -0.0294
   39MOL   H44219518   3.437   1.031   5.489 -2.3066  1.8938 -6.1801
   39MOL   H44319519   3.216   1.025   5.703  0.9323  2.1487  0.5284
   39MOL   H44419520   3.268   0.868   5.646 -2.0205  0.3492 -2.2324
   39MOL   H44519521   3.362   0.964   5.859  1.4829  3.4985  1.4576
   39MOL   H44619522   3.469   0.885   5.739 -2.0281  0.6658 -3.1564
   39MOL   H44719523   3.578   1.087   5.850 -0.2014 -1.3899 -0.5134
   39MOL   H44819524   3.551   1.122   5.681 -1.1074 -0.1283 -0.3484
   39MOL   H44919525   3.488   1.308   5.847 -1.0454 -0.0090  1.5349
   39MOL   H45019526   3.361   1.270   5.738  2.8502 -0.8894 -3.1229
   39MOL   H45119527   3.371   1.203   5.910 -0.4273 -0.6266 -0.5786
   39MOL   C45219528   3.087   1.186   5.177  0.1823 -1.1893  0.0853
   39MOL   C45319529   2.996   1.223   5.299  0.1983 -0.2484  0.0823
   39MOL   O45419530   2.880   1.284   5.262 -0.1007  0.5734  0.5252
   39MOL   C45519531   2.766   1.204   5.227 -0.0616 -0.9802  0.1158
   39MOL   C45619532   2.644   1.273   5.182  0.9567 -0.2111 -0.6391
   39MOL   C45719533   2.664   1.388   5.079 -0.5182  0.0825 -0.1884
   39MOL   C45819534   2.552   1.490   5.082 -0.0022  0.0251  0.2396
   39MOL   C45919535   2.578   1.600   4.982  0.4463 -0.2653  0.1174
   39MOL   C46019536   2.470   1.718   4.986  0.6149 -0.0851  0.6149
   39MOL   H46119537   3.142   1.279   5.159 -0.5479 -0.8951 -0.6514
   39MOL   H46219538   3.021   1.173   5.091 -3.3389  0.2866  2.4679
   39MOL   H46319539   2.972   1.124   5.337 -0.3007 -0.8153 -1.6740
   39MOL   H46419540   2.743   1.144   5.315 -1.4720  0.4228  0.7280
   39MOL   H46519541   2.810   1.139   5.151  0.9641 -0.3985  0.1961
   39MOL   H46619542   2.594   1.317   5.269  0.0738 -0.7578 -0.8568
   39MOL   H46719543   2.584   1.188   5.149  1.7622 -1.2411  0.5199
   39MOL   H46819544   2.751   1.447   5.106 -0.5844  0.3731 -0.6011
   39MOL   H46919545   2.680   1.347   4.979 -1.9804 -0.9321 -0.0214
   39MOL   H47019546   2.461   1.441   5.046  0.3677 -0.3473 -0.2030
   39MOL   H47119547   2.539   1.536   5.179  0.1955 -1.6893  1.1026
   39MOL   H47219548   2.671   1.651   5.008 -0.8528  0.7581  2.9689
   39MOL   H47319549   2.592   1.562   4.881  2.0454 -0.5075  0.4207
   39MOL   H47419550   2.471   1.783   4.898  2.3800 -1.4058 -0.3749
   39MOL   H47519551   2.365   1.690   4.992  0.5962 -0.2489 -0.4176
   39MOL   H47619552   2.489   1.769   5.081  0.0265  0.1339  0.6177
   39MOL   C47719553   3.055   1.305   5.408 -0.1950  0.7426  0.2686
   39MOL   C47819554   2.979   1.285   5.541  0.3538 -0.7402  0.2930
   39MOL   O47919555   3.034   1.360   5.646  0.1361  0.5010  0.2899
   39MOL   C48019556   2.990   1.345   5.778 -0.3879 -0.1203 -0.8945
   39MOL   C48119557   3.028   1.464   5.865  0.1052 -0.0213 -0.0700
   39MOL   C48219558   3.179   1.495   5.860  0.5235 -0.7618 -0.2943
   39MOL   C48319559   3.221   1.615   5.941  0.3831  0.0198  0.1936
   39MOL   C48419560   3.370   1.642   5.922  0.5913 -0.0770 -0.1491
   39MOL   C48519561   3.412   1.767   5.997 -0.2830  0.3180 -0.5331
   39MOL   H48619562   3.156   1.271   5.431  0.1235  0.3635 -1.5978
   39MOL   H48719563   3.057   1.410   5.379 -1.2380  0.2818 -1.5926
   39MOL   H48819564   2.874   1.311   5.525  0.6446  0.7709  0.7495
   39MOL   H48919565   3.032   1.247   5.797  1.1227  0.9017  1.2137
   39MOL   H49019566   2.881   1.344   5.774 -0.4530  0.7554  0.6713
   39MOL   H49119567   2.991   1.453   5.967 -0.3046 -2.6208 -0.4726
   39MOL   H49219568   2.980   1.555   5.828 -1.2751  0.0520  1.8559
   39MOL   H49319569   3.221   1.402   5.899 -0.9374 -0.5710  1.8200
   39MOL   H49419570   3.216   1.517   5.760  0.3304  2.5291  0.3199
   39MOL   H49519571   3.165   1.707   5.926 -2.4132 -1.3317  1.8648
   39MOL   H49619572   3.206   1.573   6.041 -1.8929  1.7406  0.6335
   39MOL   H49719573   3.430   1.554   5.943 -2.5026 -1.9480  1.2258
   39MOL   H49819574   3.382   1.660   5.815  2.4712 -0.7916 -0.0786
   39MOL   H49919575   3.333   1.842   5.999  0.3596  0.9829 -0.0026
   39MOL   H50019576   3.443   1.752   6.100 -1.4578  0.3171 -0.1659
   39MOL   H50119577   3.504   1.802   5.950 -0.7336  0.0739 -1.6299
   39MOL   H50219578   2.981   1.183   5.578 -1.9003  0.0462  2.7512
   40MOL     C119579   2.838   7.455   1.412 -0.0638 -0.0698 -0.4566
   40MOL     C219580   2.857   7.515   1.278  0.0139  0.0078 -0.1598
   40MOL     O319581   2.943   7.629   1.287  0.3608 -0.3524  0.6605
   40MOL     C419582   3.074   7.606   1.240 -0.2193  0.6070 -0.1831
   40MOL     C519583   3.160   7.732   1.247 -0.7152  0.2267  0.1493
   40MOL     C619584   3.311   7.716   1.205  0.5636 -0.3914  0.5587
   40MOL     C719585   3.402   0.057   1.191 -0.3913 -0.7311  0.2391
   40MOL     C819586   3.343   0.165   1.097 -0.0430  0.2370 -0.2515
   40MOL     C919587   3.435   0.279   1.057  0.4540  0.7968  0.0062
   40MOL    H1019588   2.767   7.509   1.474 -0.0979  0.3527 -0.8621
   40MOL    H1119589   2.786   7.361   1.393  2.7219 -1.7311 -0.1172
   40MOL    H1219590   2.908   7.441   1.216 -1.8651 -0.2984 -1.3417
   40MOL    H1319591   3.089   7.561   1.142  2.9258  0.4038  0.3454
   40MOL    H1419592   3.121   7.541   1.314 -0.1630  0.1656 -0.6031
   40MOL    H1519593   3.151   0.000   1.345  2.7077  0.0729  0.5768
   40MOL    H1619594   3.126   0.028   1.175 -0.5167  0.0904 -0.0869
   40MOL    H1719595   3.363   7.643   1.267 -0.0523 -0.6856  0.7317
   40MOL    H1819596   3.311   7.669   1.106 -0.5542  4.9300 -2.1752
   40MOL    H1919597   3.431   0.090   1.291 -0.9912 -2.1924  0.9120
   40MOL    H2019598   3.492   0.019   1.144 -1.4797  0.6863 -3.1259
   40MOL    H2119599   3.248   0.210   1.126 -0.5874 -0.6418 -0.6466
   40MOL    H2219600   3.311   0.110   1.009  0.9987 -0.3794 -0.2566
   40MOL    H2319601   3.442   0.348   1.141 -2.6101  1.3772 -0.1280
   40MOL    H2419602   3.532   0.238   1.029 -0.5597 -1.7699  0.0821
   40MOL    H2519603   3.406   0.327   0.964 -0.3428 -0.0246 -0.1862
   40MOL    H2619604   2.926   7.437   1.473  1.2213 -3.1838 -3.0897
   40MOL    C2719605   2.722   7.555   1.213 -0.5187 -0.3235 -0.6183
   40MOL    C2819606   2.746   7.593   1.063 -0.4482  0.1783 -0.6873
   40MOL    O2919607   2.809   7.480   0.998 -0.0780 -0.2374  0.2553
   40MOL    C3019608   2.872   7.509   0.874 -0.3222  0.2387 -0.9634
   40MOL    C3119609   2.959   7.386   0.857 -0.4793 -0.2918  0.8090
   40MOL    C3219610   2.888   7.246   0.852 -0.4912  0.1746 -0.2570
   40MOL    C3319611   2.996   7.136   0.846 -0.2789 -0.2950  0.2790
   40MOL    C3419612   2.927   7.002   0.839  0.5284 -0.3312  0.4362
   40MOL    C3519613   3.031   6.889   0.819 -0.0486  0.0024 -0.0638
   40MOL    H3619614   2.657   7.468   1.221 -0.2877 -0.3679  0.8799
   40MOL    H3719615   2.663   7.627   1.268  0.5297 -0.0327  0.1496
   40MOL    H3819616   2.822   7.671   1.062 -0.7598  0.4802 -0.7269
   40MOL    H3919617   2.927   7.603   0.877  0.9822 -0.4977 -1.8915
   40MOL    H4019618   2.788   7.512   0.804 -2.0995  2.5207  1.1518
   40MOL    H4119619   3.032   7.388   0.937 -1.2996 -0.8257  1.5931
   40MOL    H4219620   3.023   7.404   0.772 -2.3336  2.1761 -0.1261
   40MOL    H4319621   2.826   7.242   0.941 -1.2448 -1.3552 -0.8357
   40MOL    H4419622   2.821   7.247   0.767  1.5686  1.6692 -1.9165
   40MOL    H4519623   3.051   7.150   0.753  1.4941 -2.0496  1.0352
   40MOL    H4619624   3.064   7.139   0.932 -1.9561 -1.9484  1.7062
   40MOL    H4719625   2.864   6.995   0.928 -0.2759 -0.6904 -0.1585
   40MOL    H4819626   2.869   6.996   0.747  1.4798 -5.1699 -0.0115
   40MOL    H4919627   3.120   6.899   0.880 -1.3809 -0.6203  2.0396
   40MOL    H5019628   2.998   6.788   0.840  0.6522  0.1945  2.0328
   40MOL    H5119629   3.066   6.889   0.716 -0.3686 -0.0507 -0.1730
   40MOL    C5219630   2.613   7.644   0.998  0.0473  0.1005 -0.1083
   40MOL    C5319631   2.519   7.523   0.962 -0.0462  0.0428  0.2393
   40MOL    O5419632   2.443   7.497   1.079  0.0161  0.5451 -0.3075
   40MOL    C5519633   2.411   7.358   1.092  0.3810  0.1384  0.7757
   40MOL    C5619634   2.345   7.320   1.226 -0.4027 -0.3941  0.1593
   40MOL    C5719635   2.413   7.343   1.360 -0.4761 -0.0368  0.1506
   40MOL    C5819636   2.322   7.314   1.475 -0.3020  0.2503  0.3776
   40MOL    C5919637   2.393   7.315   1.610 -0.3752  0.2879 -0.2871
   40MOL    C6019638   2.479   7.441   1.628  0.0875  0.1808 -0.3151
   40MOL    H6119639   2.631   7.702   0.907 -0.1263 -0.6658 -0.6397
   40MOL    H6219640   2.564   7.710   1.070  1.2148  0.4149  0.4041
   40MOL    H6319641   2.582   7.442   0.927 -0.7166  0.0771 -1.1185
   40MOL    H6419642   2.503   7.302   1.110  0.1553 -0.5125 -0.0898
   40MOL    H6519643   2.359   7.316   1.006  0.1954  0.8598  0.5347
   40MOL    H6619644   2.309   7.219   1.208 -0.2622 -0.1264 -1.7270
   40MOL    H6719645   2.258   7.384   1.242  1.0356  1.8715 -0.8386
   40MOL    H6819646   2.496   7.273   1.359 -0.7981 -0.5211 -3.9386
   40MOL    H6919647   2.451   7.446   1.355  0.2080 -0.1874  2.0806
   40MOL    H7019648   2.244   7.390   1.485  0.9489  1.7499 -0.9668
   40MOL    H7119649   2.271   7.218   1.471 -1.3593  0.7241  1.8175
   40MOL    H7219650   2.313   7.318   1.683  1.2329 -0.0896  1.5127
   40MOL    H7319651   2.447   7.223   1.632  1.8033  1.8332  0.9573
   40MOL    H7419652   2.561   7.435   1.556  0.1219  0.5429 -0.3062
   40MOL    H7519653   2.427   7.536   1.619 -1.9885 -0.7416  1.6813
   40MOL    H7619654   2.533   7.450   1.722  0.7476 -1.1961 -0.5453
   40MOL    C7719655   2.425   7.550   0.844 -0.0123  0.0376  0.3984
   40MOL    C7819656   2.495   7.563   0.703 -0.2672  0.5115  0.7078
   40MOL    O7919657   2.395   7.626   0.626 -0.2545 -0.0115 -0.2665
   40MOL    C8019658   2.431   7.763   0.599  0.6697  0.2656  0.3291
   40MOL    C8119659   2.315   0.061   0.550  0.4827  0.2126  0.5413
   40MOL    C8219660   2.338   0.197   0.484  0.3662 -1.1169 -0.7245
   40MOL    C8319661   2.212   0.258   0.408  0.3029  0.5199  1.3942
   40MOL    C8419662   2.242   0.389   0.349 -0.5781 -0.5898 -0.1585
   40MOL    C8519663   2.108   0.446   0.291 -0.2333  0.7707  0.2600
   40MOL    H8619664   2.363   7.637   0.863  1.0955  1.3135 -1.6499
   40MOL    H8719665   2.354   7.468   0.837 -1.1291  1.1792 -2.1941
   40MOL    H8819666   2.588   7.619   0.710  0.6699 -0.5456 -2.3287
   40MOL    H8919667   2.512   7.756   0.527 -0.6160  1.5675 -1.3217
   40MOL    H9019668   2.479   0.037   0.681 -0.2571 -0.6896  1.4855
   40MOL    H9119669   2.258   0.079   0.642  0.9940  1.5272  0.6176
   40MOL    H9219670   2.259   7.775   0.483  1.0888 -0.9942  1.1797
   40MOL    H9319671   2.380   0.266   0.557  0.7571 -0.6640 -1.3813
   40MOL    H9419672   2.423   0.181   0.418 -0.0599 -0.0305 -1.5377
   40MOL    H9519673   2.180   0.193   0.327  0.3295  0.6797  1.2541
   40MOL    H9619674   2.135   0.279   0.482  2.1800  0.1050  3.4924
   40MOL    H9719675   2.269   0.465   0.423 -1.5764  1.7228 -2.0740
   40MOL    H9819676   2.314   0.386   0.267 -0.2012 -0.0480  0.1444
   40MOL    H9919677   2.048   0.380   0.230  0.2434  0.8963 -0.3517
   40MOL   H10019678   2.049   0.498   0.366 -1.0662  0.2712 -0.0487
   40MOL   H10119679   2.132   0.522   0.217  0.0866  0.5937  0.1764
   40MOL   C10219680   2.511   7.428   0.636  0.8938  0.3976  0.4433
   40MOL   C10319681   2.605   7.428   0.508  0.1289  0.0862 -0.0659
   40MOL   O10419682   2.728   7.492   0.556  0.2603 -0.0179 -0.6111
   40MOL   C10519683   2.818   7.537   0.457  0.6885 -0.1703  0.2513
   40MOL   C10619684   2.942   7.608   0.525  0.4457 -0.0437  0.1886
   40MOL   C10719685   2.900   7.733   0.609  0.2266 -0.5476  0.0211
   40MOL   C10819686   3.014   0.007   0.684 -0.0597  0.5102 -0.4562
   40MOL   C10919687   2.973   0.138   0.750  0.6895  0.5255 -0.2604
   40MOL   C11019688   3.077   0.188   0.849  0.3442  0.0186 -0.4685
   40MOL   H11119689   2.565   7.370   0.711  1.2088  0.4572  0.2644
   40MOL   H11219690   2.420   7.368   0.626  0.7468  0.5755  0.7104
   40MOL   H11319691   2.568   7.481   0.420  1.1024  1.6648  0.4573
   40MOL   H11419692   2.773   7.617   0.399  0.8725 -0.2366  0.0194
   40MOL   H11519693   2.860   7.463   0.389 -1.6419 -0.9509 -0.3997
   40MOL   H11619694   3.023   7.636   0.457  0.6951  0.4615  0.6922
   40MOL   H11719695   2.990   7.531   0.586  1.8922  1.1587  0.5969
   40MOL   H11819696   2.862   0.029   0.539  2.5659  1.4899  0.8474
   40MOL   H11919697   2.814   7.716   0.675 -0.4834  0.7618 -0.5452
   40MOL   H12019698   3.046   7.716   0.762  1.9878  2.3909  0.4422
   40MOL   H12119699   3.093   0.024   0.611 -0.1491  1.8005 -0.2812
   40MOL   H12219700   2.971   0.206   0.665 -0.5399 -0.2760 -0.8896
   40MOL   H12319701   2.875   0.137   0.797  0.4909 -2.2254 -0.6144
   40MOL   H12419702   3.174   0.188   0.800  0.3149 -2.3493 -0.6181
   40MOL   H12519703   3.054   0.290   0.880  0.4580 -0.5057  1.4300
   40MOL   H12619704   3.075   0.127   0.940 -2.6713  0.8141  0.0393
   40MOL   C12719705   2.652   7.286   0.466  0.4980  0.5598  0.7438
   40MOL   C12819706   2.545   7.180   0.459  0.1007  0.4131  0.3072
   40MOL   O12919707   2.606   7.053   0.422  0.2674 -0.2037  0.4186
   40MOL   C13019708   2.607   6.957   0.523  0.8555  0.4083  0.0030
   40MOL   C13119709   2.678   6.824   0.476  0.1795 -0.3263 -0.3173
   40MOL   C13219710   2.737   6.739   0.596  0.5087 -0.2907  0.7446
   40MOL   C13319711   2.806   6.610   0.554  0.1514  0.1932 -0.0629
   40MOL   C13419712   2.827   6.516   0.666  0.0776  0.5955 -0.1192
   40MOL   C13519713   2.875   6.379   0.623  0.1407 -0.1065 -0.6102
   40MOL   H13619714   2.693   7.293   0.366 -2.6638  1.0795 -0.5875
   40MOL   H13719715   2.728   7.259   0.539  1.1002 -1.8098 -0.6994
   40MOL   H13819716   2.501   7.170   0.559  0.6539  2.1188  0.7404
   40MOL   H13919717   2.510   6.933   0.567  0.9035  0.8221  0.3406
   40MOL   H14019718   2.670   6.989   0.606 -0.3681  0.4575  0.9291
   40MOL   H14119719   2.762   6.840   0.409  0.5000 -0.5755  0.0182
   40MOL   H14219720   2.601   6.771   0.420  1.8390 -0.3192 -2.6795
   40MOL   H14319721   2.821   6.801   0.630 -0.0198  1.8735 -1.7051
   40MOL   H14419722   2.653   6.729   0.664  0.9257  4.1041  2.0415
   40MOL   H14519723   2.736   6.571   0.480  0.4228  1.9034 -1.2614
   40MOL   H14619724   2.904   6.626   0.509  0.6709 -0.2042  0.9307
   40MOL   H14719725   2.907   6.556   0.729 -1.6681  0.8772  2.0036
   40MOL   H14819726   2.737   6.496   0.725 -0.1908 -0.4312 -0.8773
   40MOL   H14919727   2.864   6.310   0.706  0.6016  0.9007  0.3060
   40MOL   H15019728   2.821   6.339   0.537 -2.1180  1.0385  0.2661
   40MOL   H15119729   2.983   6.378   0.606  0.0104 -1.0401 -1.3927
   40MOL   C15219730   2.442   7.220   0.354  0.0083 -0.1029  0.6404
   40MOL   C15319731   2.311   7.127   0.352 -0.3820  0.1361  0.7950
   40MOL   O15419732   2.234   7.136   0.472 -0.5743 -0.1690 -0.0986
   40MOL   C15519733   2.192   7.011   0.540 -0.2057  0.0396 -0.5971
   40MOL   C15619734   2.139   7.030   0.681  0.4814 -0.1264  0.7201
   40MOL   C15719735   2.246   7.067   0.780  0.6272  1.4117 -0.3516
   40MOL   C15819736   2.347   6.956   0.820  0.2671  0.9599  0.5430
   40MOL   C15919737   2.447   7.007   0.920  0.3788 -0.0047  0.2608
   40MOL   C16019738   2.554   7.104   0.872 -0.6482 -0.3631  0.6456
   40MOL   H16119739   2.415   7.325   0.372  1.9352 -0.0615  3.7538
   40MOL   H16219740   2.494   7.219   0.259 -0.4405  1.8070  0.3441
   40MOL   H16319741   2.348   7.025   0.341 -1.2678 -0.2969  1.7700
   40MOL   H16419742   2.280   6.947   0.540  0.0687  0.3855  0.9622
   40MOL   H16519743   2.118   6.968   0.473 -1.1625  0.2257  0.3257
   40MOL   H16619744   2.090   6.937   0.710  1.2306 -0.9280 -0.4986
   40MOL   H16719745   2.069   7.113   0.689 -0.1834 -0.2495 -2.9163
   40MOL   H16819746   2.304   7.146   0.734  1.4454  0.1869 -1.4473
   40MOL   H16919747   2.201   7.122   0.863 -2.2433 -0.3564 -0.6678
   40MOL   H17019748   2.282   6.880   0.864 -1.4506  2.0573 -0.0367
   40MOL   H17119749   2.400   6.910   0.736 -1.1659 -0.9103  0.6259
   40MOL   H17219750   2.383   7.057   0.991 -1.8714  0.6006 -2.1097
   40MOL   H17319751   2.499   6.928   0.974 -0.8598  0.5960  2.3764
   40MOL   H17419752   2.617   7.147   0.950  0.0035  1.4202 -0.8163
   40MOL   H17519753   2.624   7.063   0.800 -1.0536  0.9085 -0.4924
   40MOL   H17619754   2.510   7.186   0.814  2.2052  0.6127 -0.2321
   40MOL   C17719755   2.217   7.139   0.227 -0.1991 -0.0642 -0.3053
   40MOL   C17819756   2.282   7.076   0.105 -0.4693  0.2250 -0.0161
   40MOL   O17919757   2.295   6.930   0.117  0.2971  1.0579 -0.1971
   40MOL   C18019758   2.425   6.880   0.115  0.0375 -0.3987  0.2920
   40MOL   C18119759   2.419   6.723   0.099 -0.3798  0.4609  0.0416
   40MOL   C18219760   2.386   6.663   0.238  0.0851  0.0043  0.2011
   40MOL   C18319761   2.437   6.525   0.244 -0.4389  0.2850  0.1551
   40MOL   C18419762   2.388   6.456   0.375  0.1100 -0.8422  0.3904
   40MOL   C18519763   2.442   6.309   0.394 -0.6456  0.0224 -0.4090
   40MOL   H18619764   2.122   7.095   0.257 -0.1373 -0.5675 -0.8429
   40MOL   H18719765   2.192   7.244   0.219  0.1472  0.0682  0.3331
   40MOL   H18819766   2.384   7.113   0.093 -0.9280  1.4460 -0.1373
   40MOL   H18919767   2.490   6.906   0.198  0.9507 -1.4285 -0.0880
   40MOL   H19019768   2.479   6.908   0.025  1.9040 -2.0976  0.8497
   40MOL   H19119769   2.516   6.687   0.066  0.3323 -0.3600  2.8894
   40MOL   H19219770   2.348   6.698   0.020  0.2777 -1.7150  0.1198
   40MOL   H19319771   2.437   6.721   0.315  1.0270  0.7176 -0.9279
   40MOL   H19419772   2.278   6.665   0.248 -0.1912 -2.7740 -1.6415
   40MOL   H19519773   2.407   6.470   0.155  1.7253  2.2463 -1.8572
   40MOL   H19619774   2.545   6.515   0.232 -0.1821  2.8317  0.0215
   40MOL   H19719775   2.414   6.520   0.459 -1.2989 -0.2262  0.3755
   40MOL   H19819776   2.279   6.447   0.374  0.2016 -2.3652 -2.2780
   40MOL   H19919777   2.550   6.319   0.384 -0.6845  0.8478 -0.0598
   40MOL   H20019778   2.418   6.279   0.496 -0.0776 -0.4749 -0.4153
   40MOL   H20119779   2.397   6.235   0.327  0.2465 -1.8652  1.0114
   40MOL   C20219780   2.195   7.121   7.759 -0.1765  0.2814 -0.0169
   40MOL   C20319781   2.250   7.085   7.621  0.0199 -0.3473  0.5954
   40MOL   O20419782   2.380   7.143   7.629 -0.0240  0.5576 -0.1740
   40MOL   C20519783   2.456   7.099   7.522 -0.3356  0.1090  0.1042
   40MOL   C20619784   2.602   7.149   7.531  0.7554  0.8706  0.4177
   40MOL   C20719785   2.688   7.085   7.418  0.2965 -0.1949  0.1219
   40MOL   C20819786   2.839   7.120   7.427 -0.3271  0.0661 -0.2688
   40MOL   C20919787   2.909   7.130   7.288  0.0690  0.3222 -0.4120
   40MOL   C21019788   3.061   7.125   7.311  0.1031 -0.0456  0.5674
   40MOL   H21119789   2.108   7.061   0.009  0.5651 -0.5400  0.5538
   40MOL   H21219790   2.171   7.227   7.771  0.6043  0.2674  1.8720
   40MOL   H21319791   2.257   6.978   7.603  0.2946 -0.2421  0.0701
   40MOL   H21419792   2.426   7.153   7.432  2.1037 -0.3746 -1.0337
   40MOL   H21519793   2.456   6.990   7.524  2.8873 -0.0180 -2.4068
   40MOL   H21619794   2.640   7.132   7.631  1.9091  0.7913 -0.0259
   40MOL   H21719795   2.595   7.256   7.511  0.3108  0.8086  0.2406
   40MOL   H21819796   2.670   6.978   7.430 -1.3295  0.2219  1.6593
   40MOL   H21919797   2.650   7.117   7.321 -0.6731 -1.3725  0.0876
   40MOL   H22019798   2.840   7.218   7.473  2.5274  0.0909 -0.2958
   40MOL   H22119799   2.888   7.045   7.490  0.5523  0.0952 -0.8988
   40MOL   H22219800   2.881   7.043   7.228 -1.5845  0.8502 -0.4280
   40MOL   H22319801   2.871   7.218   7.235 -0.9998  0.0112 -0.1831
   40MOL   H22419802   3.081   7.210   7.377 -1.2556  0.3253  0.5328
   40MOL   H22519803   3.084   7.030   7.359 -1.6681 -0.3575  0.8395
   40MOL   H22619804   3.119   7.127   7.219 -0.9063  1.8337 -0.0667
   40MOL   C22719805   2.157   7.141   7.517  0.6699  0.0556  0.3671
   40MOL   C22819806   2.022   7.077   7.521  0.0682 -0.0785 -0.0062
   40MOL   O22919807   1.937   7.151   7.424 -0.3771  0.2487  0.1738
   40MOL   C23019808   1.865   7.263   7.486  0.2919  0.1073  0.3009
   40MOL   C23119809   1.797   7.348   7.381 -0.5703  0.2136 -0.9871
   40MOL   C23219810   1.710   7.445   7.461  0.5593 -0.2686  0.3392
   40MOL   C23319811   1.626   7.545   7.370 -0.5640 -0.5250  0.8795
   40MOL   C23419812   1.491   7.501   7.317  0.2106 -0.1184  0.1150
   40MOL   C23519813   1.406   7.623   7.274  0.3589  0.2447  0.0603
   40MOL   H23619814   2.146   7.249   7.528 -2.7517 -0.2381  0.4930
   40MOL   H23719815   2.204   7.133   7.419  1.1779 -0.9902  0.6984
   40MOL   H23819816   1.977   7.085   7.619  1.5393  2.8380  0.5068
   40MOL   H23919817   1.917   7.315   7.566 -0.3944 -0.7289  1.3046
   40MOL   H24019818   1.779   7.215   7.534  2.1948 -1.6499  2.0224
   40MOL   H24119819   1.735   7.282   7.320  0.4670 -0.4654 -1.3237
   40MOL   H24219820   1.874   7.390   7.317  2.5067 -2.2763  0.9498
   40MOL   H24319821   1.647   7.393   7.534  2.8174 -0.6370  2.0735
   40MOL   H24419822   1.776   7.508   7.521  1.6642 -2.0547  1.0625
   40MOL   H24519823   1.602   7.635   7.427  2.3870  2.6949 -2.6666
   40MOL   H24619824   1.693   7.586   7.294 -0.0573 -0.1008  1.5470
   40MOL   H24719825   1.501   7.448   7.223  0.1141  1.1080 -0.5938
   40MOL   H24819826   1.441   7.427   7.381  0.5783 -0.4574  0.0137
   40MOL   H24919827   1.441   7.677   7.186  0.1193 -1.6980 -1.2908
   40MOL   H25019828   1.306   7.590   7.244  0.0831  1.0747  0.0776
   40MOL   H25119829   1.390   7.699   7.349 -0.4446  2.3286 -2.1439
   40MOL   C25219830   2.017   6.928   7.485 -0.5634 -0.3181  0.1349
   40MOL   C25319831   1.877   6.854   7.511 -0.3565 -0.2621  0.2493
   40MOL   O25419832   1.842   6.872   7.646  0.5416 -0.5810 -0.1441
   40MOL   C25519833   1.719   6.947   7.662  0.0443 -0.1258  0.2832
   40MOL   C25619834   1.693   6.950   0.033 -0.4051  0.1241 -0.2120
   40MOL   C25719835   1.692   7.089   0.107 -0.2348 -0.2323  0.3681
   40MOL   C25819836   1.839   7.137   0.138  0.2432 -0.3701 -0.3410
   40MOL   C25919837   1.861   7.273   0.206  0.1379 -0.2393 -0.2220
   40MOL   C26019838   1.826   7.397   0.119  0.3270 -0.7479  0.2959
   40MOL   H26119839   2.052   6.911   7.383 -2.8033  2.1500 -1.1051
   40MOL   H26219840   2.087   6.876   7.550 -1.8362 -0.8027  1.1548
   40MOL   H26319841   1.808   6.892   7.436  0.3201  1.2779  0.3863
   40MOL   H26419842   1.640   6.896   7.607 -1.9657  2.6461  0.4486
   40MOL   H26519843   1.722   7.050   7.626  0.9458 -0.9716 -2.1095
   40MOL   H26619844   1.757   6.876   0.081 -0.9638 -1.0453 -1.2442
   40MOL   H26719845   1.594   6.911   0.056 -0.4243  0.6654  0.6458
   40MOL   H26819846   1.635   7.169   0.059  1.4770  2.6915  3.0194
   40MOL   H26919847   1.651   7.077   0.207  2.2014 -0.8991  1.3307
   40MOL   H27019848   1.892   7.066   0.201  1.1981  0.1082 -0.5860
   40MOL   H27119849   1.898   7.142   0.046 -0.2767 -0.6485 -0.6908
   40MOL   H27219850   1.820   7.271   0.307  0.5524  2.4583  0.0396
   40MOL   H27319851   1.966   7.292   0.225 -0.2860  0.0794  1.8714
   40MOL   H27419852   1.865   7.396   0.017 -3.4289  0.4277 -1.2369
   40MOL   H27519853   1.719   7.399   0.098  0.5577 -1.0471 -0.9697
   40MOL   H27619854   1.853   7.493   0.163 -3.4331  0.2464  0.6516
   40MOL   C27719855   1.884   6.701   7.488 -0.2966 -0.2416 -0.1495
   40MOL   C27819856   1.748   6.633   7.487  0.3216  0.0559  0.8933
   40MOL   O27919857   1.750   6.522   7.404  0.8528 -0.4720  0.3931
   40MOL   C28019858   1.657   6.515   7.299  0.0687 -0.1087  0.3330
   40MOL   C28119859   1.662   6.368   7.244  0.2234 -0.2392  0.2376
   40MOL   C28219860   1.606   6.349   7.098  0.7642 -0.2919  0.5972
   40MOL   C28319861   1.632   6.200   7.055 -0.1402  0.0621 -0.5147
   40MOL   C28419862   1.600   6.170   6.915  0.5345  0.8928  0.3610
   40MOL   C28519863   1.449   6.162   6.884  0.5120 -0.0531 -0.1024
   40MOL   H28619864   1.930   6.694   7.390  2.4294  0.6550  1.0242
   40MOL   H28719865   1.951   6.655   7.561  1.9448 -0.2484 -2.1528
   40MOL   H28819866   1.673   6.704   7.453  0.5983 -0.6377 -1.2356
   40MOL   H28919867   1.692   6.582   7.221 -1.1998 -1.5683 -1.5538
   40MOL   H29019868   1.558   6.541   7.338  0.5405  1.0707  0.7732
   40MOL   H29119869   1.616   6.303   7.319 -0.8868 -1.4599 -1.4732
   40MOL   H29219870   1.767   6.339   7.237  0.0911 -0.6413 -0.1161
   40MOL   H29319871   1.499   6.370   7.098  0.8195  0.0119  0.8652
   40MOL   H29419872   1.651   6.424   7.033 -1.6209  0.8559  0.2294
   40MOL   H29519873   1.740   6.187   7.061 -0.4316 -2.0056  0.7895
   40MOL   H29619874   1.586   6.130   7.125  0.3004  1.5405  1.2966
   40MOL   H29719875   1.650   6.242   6.850  2.1306 -0.9752 -0.5461
   40MOL   H29819876   1.644   6.076   6.883  1.0010  0.3442  2.5321
   40MOL   H29919877   1.406   6.078   6.938  1.7171  0.1008  1.1341
   40MOL   H30019878   1.396   6.247   6.927 -1.4381 -0.7914 -1.0014
   40MOL   H30119879   1.437   6.155   6.776  1.0324  0.0986 -0.1734
   40MOL   C30219880   1.720   6.589   7.629 -0.2834  0.3027 -0.3772
   40MOL   C30319881   1.574   6.536   7.643  0.0421 -0.0085 -0.4783
   40MOL   O30419882   1.479   6.645   7.648 -0.2132  0.3060  0.3713
   40MOL   C30519883   1.350   6.612   7.594  0.7384 -0.3637  0.0604
   40MOL   C30619884   1.246   6.712   7.640  0.0140  0.0636 -0.2720
   40MOL   C30719885   1.188   6.701   7.778 -0.1252  0.3100  0.3369
   40MOL   C30819886   1.104   6.822   0.045  0.7194  0.0706  0.6194
   40MOL   C30919887   1.049   6.801   0.185  0.4722 -0.0289  0.5935
   40MOL   C31019888   0.958   6.920   0.224 -0.0986 -0.2505 -0.0396
   40MOL   H31119889   1.794   6.512   7.651 -0.0547 -0.2882 -3.0865
   40MOL   H31219890   1.723   6.664   7.708  0.3165  0.2963 -0.3932
   40MOL   H31319891   1.557   6.472   7.557 -3.1265 -1.0269  0.8294
   40MOL   H31419892   1.311   6.512   7.613 -1.9209 -0.0490 -3.1943
   40MOL   H31519893   1.357   6.618   7.485  2.6909  1.0432  0.2305
   40MOL   H31619894   1.166   6.702   7.568 -0.6154  1.9843  0.1354
   40MOL   H31719895   1.279   6.815   7.624 -1.2934  0.5475  0.1420
   40MOL   H31819896   1.129   6.611   0.014  0.5364  0.1705  2.2872
   40MOL   H31919897   1.263   6.685   0.077  0.1285 -0.1851 -0.0120
   40MOL   H32019898   1.157   6.917   0.036 -1.2481  1.2861  1.4606
   40MOL   H32119899   1.015   6.834   7.761  1.1517 -1.3192 -0.2828
   40MOL   H32219900   0.998   6.705   0.193 -0.7774  0.6673  1.0230
   40MOL   H32319901   1.129   6.794   0.259  1.0171  2.9531  0.3432
   40MOL   H32419902   0.878   6.943   0.153  0.6613  1.8049 -0.2524
   40MOL   H32519903   0.910   6.903   0.320 -1.7213  1.2872 -0.5463
   40MOL   H32619904   1.013   7.013   0.241 -1.0561 -0.0308  1.9939
   40MOL   C32719905   1.549   6.440   7.766  0.6509 -0.8271  0.2457
   40MOL   C32819906   1.646   6.326   0.002  0.0375  0.3526  0.1659
   40MOL   O32919907   1.608   6.255   0.125 -0.5229 -0.5645  0.6778
   40MOL   C33019908   1.656   6.313   0.248 -0.7219  0.3066  0.0282
   40MOL   C33119909   1.602   6.221   0.365  0.0554 -0.8701  0.0994
   40MOL   C33219910   1.652   6.287   0.492  0.6826 -0.7490 -0.1618
   40MOL   C33319911   1.626   6.210   0.623 -0.0582  0.0042  0.0740
   40MOL   C33419912   1.663   6.300   0.740 -0.6257  0.3068  0.4023
   40MOL   C33519913   1.606   6.244   0.865 -0.0686  0.4686 -0.3157
   40MOL   H33619914   1.447   6.403   7.770  0.8548 -1.4763 -0.4760
   40MOL   H33719915   1.547   6.511   0.071  1.0265 -0.1102 -0.3394
   40MOL   H33819916   1.747   6.363   0.019  0.8571 -1.3002 -0.9659
   40MOL   H33919917   1.621   6.416   0.250 -1.1647  0.1490  0.3173
   40MOL   H34019918   1.765   6.308   0.241 -0.6502 -1.1886  1.8195
   40MOL   H34119919   1.661   6.130   0.350  1.9423  0.4566 -0.7928
   40MOL   H34219920   1.495   6.201   0.358  0.0654 -0.0132 -2.9881
   40MOL   H34319921   1.755   6.321   0.483 -0.7681  3.8739 -0.6106
   40MOL   H34419922   1.588   6.374   0.511  0.4489 -1.3473  1.8476
   40MOL   H34519923   1.520   6.188   0.612  0.3821 -1.8658 -0.5296
   40MOL   H34619924   1.688   6.121   0.619 -1.1711 -0.7081 -1.6387
   40MOL   H34719925   1.772   6.304   0.743 -0.4056 -0.6774 -3.4010
   40MOL   H34819926   1.635   6.404   0.729  0.8098  1.0284  3.1992
   40MOL   H34919927   1.606   6.135   0.860  0.1400  0.3884  1.2053
   40MOL   H35019928   1.661   6.278   0.953 -0.3353  1.2894 -0.4579
   40MOL   H35119929   1.505   6.285   0.872 -0.6847 -0.9608 -0.7092
   40MOL   C35219930   1.641   6.236   7.651 -0.1673  0.3050 -0.1044
   40MOL   C35319931   1.688   6.085   7.681 -0.2572  0.5030 -0.6047
   40MOL   O35419932   1.733   6.017   7.562  0.6007  0.2923 -0.0706
   40MOL   C35519933   1.873   6.006   7.545 -0.2286  0.1058  0.5355
   40MOL   C35619934   1.909   5.925   7.419  0.1592 -0.6582  0.5665
   40MOL   C35719935   1.891   6.004   7.292 -0.0939 -0.1384  0.2827
   40MOL   C35819936   1.984   6.127   7.274 -0.2353 -0.0735 -0.0338
   40MOL   C35919937   2.123   6.084   7.239  0.6123  0.2851  0.2101
   40MOL   C36019938   2.194   6.197   7.170 -0.4891 -0.2434  0.2059
   40MOL   H36119939   1.545   6.238   7.601 -0.9917 -1.8566  1.3481
   40MOL   H36219940   1.710   6.273   7.575  0.7275  0.1562  0.6220
   40MOL   H36319941   1.770   6.095   7.753  1.3873 -0.9804 -2.2125
   40MOL   H36419942   1.916   5.949   7.628  1.6026  0.9674  0.2113
   40MOL   H36519943   1.919   6.104   7.560  0.8110 -0.2804 -0.0139
   40MOL   H36619944   1.853   5.833   7.407 -0.4634  0.1178 -2.9737
   40MOL   H36719945   2.012   5.893   7.434  0.1709 -1.5209 -1.3063
   40MOL   H36819946   1.895   5.938   7.206 -1.2610 -0.6841  0.6412
   40MOL   H36919947   1.789   6.042   7.279  0.2878  0.9821  0.5011
   40MOL   H37019948   1.952   6.184   7.187  0.1443 -1.8505 -1.3609
   40MOL   H37119949   1.986   6.187   7.365  3.9412 -1.3250  0.8042
   40MOL   H37219950   2.180   6.058   7.329 -0.1154  0.3331  0.6899
   40MOL   H37319951   2.121   6.007   7.163  2.7167  0.7150 -0.3242
   40MOL   H37419952   2.293   6.176   7.130 -1.1861 -2.8879 -0.2215
   40MOL   H37519953   2.136   6.221   7.081 -0.2856  0.8853  0.3783
   40MOL   H37619954   2.184   6.288   7.229 -1.4671  1.1765 -2.0753
   40MOL   C37719955   1.579   5.996   7.738  0.0274  0.2937  0.3078
   40MOL   C37819956   1.620   5.850   7.775 -0.1927 -0.2842  0.2506
   40MOL   O37919957   1.502   5.782   0.035  0.1986 -0.3578 -0.5153
   40MOL   C38019958   1.409   5.749   7.714  0.1837 -0.2497 -0.0861
   40MOL   C38119959   1.301   5.667   0.008  0.0431 -0.4820  0.6141
   40MOL   C38219960   1.216   5.569   7.700  0.5967  0.0339  0.4010
   40MOL   C38319961   1.129   5.470   0.004 -0.5015 -0.0972  0.4446
   40MOL   C38419962   1.055   5.354   7.717  0.1373  0.0098  0.0112
   40MOL   C38519963   1.144   5.279   7.610  0.5613 -0.6376 -0.1510
   40MOL   H38619964   1.529   6.038   0.047  1.0504  0.6202  0.7470
   40MOL   H38719965   1.502   6.000   7.662 -0.0738  1.9397  0.4808
   40MOL   H38819966   1.653   5.805   7.682 -1.5297  1.1339 -0.9411
   40MOL   H38919967   1.460   5.695   7.635 -2.5386 -1.1471 -1.2865
   40MOL   H39019968   1.367   5.838   7.666  1.4992 -0.3241 -1.4329
   40MOL   H39119969   1.227   5.736   0.046  2.4048  3.4643 -1.6023
   40MOL   H39219970   1.345   5.602   0.084  0.1132 -1.0499  0.0912
   40MOL   H39319971   1.161   5.634   7.632  0.9067  0.3552  0.4522
   40MOL   H39419972   1.281   5.510   7.636 -0.4083 -0.6132 -0.0252
   40MOL   H39519973   1.182   5.424   0.088 -1.1502 -1.1726  0.2634
   40MOL   H39619974   1.060   5.544   0.044 -1.9497 -0.5901 -1.1036
   40MOL   H39719975   1.016   5.292   0.019 -0.1927 -1.1862 -1.0567
   40MOL   H39819976   0.963   5.391   7.673  0.6518  1.1948 -0.0841
   40MOL   H39919977   1.242   5.256   7.652  1.5283 -2.0721 -3.0680
   40MOL   H40019978   1.101   5.184   7.579 -0.6929 -1.2250  3.1381
   40MOL   H40119979   1.177   5.344   7.528 -0.4194 -0.6925 -0.5937
   40MOL   C40219980   1.710   5.847   0.118 -0.6078 -0.3208  0.4055
   40MOL   C40319981   1.785   5.710   0.142 -0.2432 -0.0480 -0.1633
   40MOL   O40419982   1.701   5.613   0.194  0.2384  0.0985 -0.3494
   40MOL   C40519983   1.653   5.504   0.108  0.0269 -0.4223  0.0683
   40MOL   C40619984   1.566   5.410   0.188  0.2582  0.9102  0.8424
   40MOL   C40719985   1.529   5.274   0.116 -0.5522  0.8473 -0.8646
   40MOL   C40819986   1.405   5.218   0.185  0.6682  0.3403 -0.2396
   40MOL   C40919987   1.375   5.064   0.161  0.0206 -0.4221  0.4382
   40MOL   C41019988   1.464   4.963   0.239  0.1198  0.3650 -0.3107
   40MOL   H41119989   1.644   5.852   0.204  0.4334  0.1746  1.1897
   40MOL   H41219990   1.782   5.929   0.113  0.3734 -1.2123 -0.2829
   40MOL   H41319991   1.830   5.688   0.045 -0.3246 -0.2389 -0.1567
   40MOL   H41419992   1.739   5.454   0.065 -2.1817 -2.0273 -2.5775
   40MOL   H41519993   1.595   5.541   0.023  1.6568  1.1162 -0.4077
   40MOL   H41619994   1.474   5.461   0.218 -0.6385  2.5466 -4.2557
   40MOL   H41719995   1.617   5.385   0.281 -1.0687  1.2630  1.6783
   40MOL   H41819996   1.514   5.296   0.010  2.0285  2.0543 -1.0269
   40MOL   H41919997   1.610   5.204   0.139 -0.4623  0.4577 -2.3208
   40MOL   H42019998   1.416   5.230   0.293  0.3129  0.3372 -0.2032
   40MOL   H42119999   1.319   5.274   0.150 -0.4375 -1.3837 -0.3331
   40MOL   H42220000   1.276   5.031   0.192 -0.2403 -0.7058 -0.6607
   40MOL   H42320001   1.380   5.035   0.056 -0.1957 -0.9779  0.5814
   40MOL   H42420002   1.425   4.862   0.233 -2.3469  1.4076 -2.6210
   40MOL   H42520003   1.567   4.962   0.201 -0.1805 -1.0651 -1.0977
   40MOL   H42620004   1.475   4.987   0.345 -2.5867  1.5820 -0.2789
   40MOL   C42720005   1.904   5.709   0.238  0.3302  1.0974 -0.0542
   40MOL   C42820006   2.022   5.804   0.202  0.2971  0.0309  0.0604
   40MOL   O42920007   2.124   5.793   0.299  0.5192 -0.2426 -0.1527
   40MOL   C43020008   2.191   5.670   0.309 -0.3585  0.1540 -0.2750
   40MOL   C43120009   2.302   5.695   0.414 -0.4908 -0.4523 -0.1224
   40MOL   C43220010   2.368   5.560   0.444  0.1445  0.2710  0.0583
   40MOL   C43320011   2.444   5.583   0.574  0.7995 -0.1995  0.3609
   40MOL   C43420012   2.537   5.469   0.612  0.2810 -0.0828 -0.3653
   40MOL   C43520013   2.607   5.473   0.752  0.9670  0.6191  0.3113
   40MOL   H43620014   1.865   5.726   0.338  0.3857  1.4910 -0.0973
   40MOL   H43720015   1.938   5.606   0.245 -0.2120  1.0331  1.7423
   40MOL   H43820016   1.984   5.906   0.206 -0.5078 -0.2044 -1.3656
   40MOL   H43920017   2.234   5.640   0.214 -2.2532 -0.2611 -1.0257
   40MOL   H44020018   2.127   5.589   0.344 -0.9778 -0.6750 -3.2091
   40MOL   H44120019   2.260   5.753   0.497  2.4984 -1.1405  1.9639
   40MOL   H44220020   2.367   5.759   0.355  0.6078 -1.7427 -0.3353
   40MOL   H44320021   2.293   5.481   0.447 -0.6294  1.0599  2.4071
   40MOL   H44420022   2.432   5.523   0.364 -1.2749 -0.9530 -0.5210
   40MOL   H44520023   2.501   5.675   0.562 -1.4851  1.2516  0.2629
   40MOL   H44620024   2.378   5.600   0.660 -0.2255  1.6335 -0.7639
   40MOL   H44720025   2.499   5.369   0.592 -0.2069 -0.8244  3.9214
   40MOL   H44820026   2.623   5.482   0.546 -0.9850  0.4447 -1.9581
   40MOL   H44920027   2.677   5.392   0.775 -1.4586 -1.1104  1.8758
   40MOL   H45020028   2.655   5.570   0.762  0.9250  0.3668  3.4911
   40MOL   H45120029   2.524   5.466   0.821 -0.3978  1.9918 -1.1500
   40MOL   C45220030   2.077   5.778   0.065 -0.0675  0.8241 -0.0429
   40MOL   C45320031   2.205   5.862   0.019  0.7837  0.0174 -0.1271
   40MOL   O45420032   2.172   5.999   0.009  0.0602 -0.2170  0.0542
   40MOL   C45520033   2.217   6.083   0.118 -0.3889 -1.9017 -0.3694
   40MOL   C45620034   2.216   6.228   0.072  0.1175 -0.7309 -0.6043
   40MOL   C45720035   2.081   6.269   0.016  0.0768 -0.5824 -0.2574
   40MOL   C45820036   2.077   6.422   7.776 -0.0179  0.3671  0.0420
   40MOL   C45920037   2.030   6.504   0.124 -0.3148 -0.0596 -0.0686
   40MOL   C46020038   2.054   6.658   0.105  0.1360  0.0341 -0.0849
   40MOL   H46120039   2.086   5.675   0.030  0.1117  1.3814 -1.7285
   40MOL   H46220040   1.994   5.812   0.002 -1.7648 -0.7554  1.3066
   40MOL   H46320041   2.287   5.847   0.090  0.4667 -1.1738 -0.0111
   40MOL   H46420042   2.317   6.057   0.152  0.0575  1.1546  0.8117
   40MOL   H46520043   2.158   6.064   0.207  0.5424  0.0541  0.6932
   40MOL   H46620044   2.287   6.258   7.774  0.3226 -1.7218 -0.8002
   40MOL   H46720045   2.241   6.286   0.161  2.8253 -0.0553 -1.7668
   40MOL   H46820046   2.066   6.221   7.698 -0.9106 -0.4221 -0.1855
   40MOL   H46920047   1.993   6.233   0.068  0.0745  0.0263  0.1716
   40MOL   H47020048   2.167   6.460   7.728 -0.8745  0.9147 -1.1541
   40MOL   H47120049   1.997   6.443   7.705 -0.3570 -0.9547  0.0160
   40MOL   H47220050   1.924   6.488   0.145 -0.0184 -0.0131  1.4713
   40MOL   H47320051   2.091   6.464   0.205  1.3324 -0.0138 -1.2693
   40MOL   H47420052   1.974   6.699   0.044  1.0106  0.0526 -1.2604
   40MOL   H47520053   2.045   6.712   0.199 -1.2022  0.9371 -0.7270
   40MOL   H47620054   2.153   6.681   0.065  0.3636  0.0435  0.4783
   40MOL   C47720055   2.261   5.824   7.660 -0.1515  0.8678  0.9285
   40MOL   C47820056   2.388   5.894   7.606 -0.2526 -0.8084  0.1280
   40MOL   O47920057   2.403   5.884   7.467  0.1157  0.1403  0.7883
   40MOL   C48020058   2.503   5.971   7.413  0.0506 -0.2960  0.1315
   40MOL   C48120059   2.535   5.934   7.268 -0.4437 -0.2203  0.3780
   40MOL   C48220060   2.591   5.797   7.240 -0.0038 -0.5063  0.0583
   40MOL   C48320061   2.623   5.777   7.090  0.4022  0.4200  0.2739
   40MOL   C48420062   2.740   5.679   7.070  0.3011  1.0276  0.1618
   40MOL   C48520063   2.774   5.666   6.927  0.0208 -0.5337 -0.5087
   40MOL   H48620064   2.278   5.717   7.660  1.6309  1.1231 -0.2687
   40MOL   H48720065   2.178   5.848   7.594  0.4349  2.6425  0.8015
   40MOL   H48820066   2.394   6.001   7.629 -2.4875 -0.4575 -0.8107
   40MOL   H48920067   2.593   5.958   7.473 -0.0988 -0.9589  0.2187
   40MOL   H49020068   2.470   6.073   7.430  0.4797 -0.3720  1.4624
   40MOL   H49120069   2.604   6.011   7.233  0.2933  1.0030  4.2298
   40MOL   H49220070   2.441   5.938   7.213 -0.7363  0.4732  0.9255
   40MOL   H49320071   2.680   5.787   7.302 -0.7144  1.2242  1.4093
   40MOL   H49420072   2.527   5.715   7.275  0.0288 -0.0023  1.3276
   40MOL   H49520073   2.533   5.740   7.041 -0.2380  1.2871  0.7946
   40MOL   H49620074   2.635   5.874   7.042  1.7364 -0.2760 -0.8443
   40MOL   H49720075   2.826   5.715   7.127 -2.2169  0.4982  4.5997
   40MOL   H49820076   2.712   5.582   7.111  0.5543  0.4068 -1.1339
   40MOL   H49920077   2.691   5.637   6.864 -0.0890  1.2074 -1.1886
   40MOL   H50020078   2.811   5.760   6.885  0.9439 -0.2665  0.8603
   40MOL   H50120079   2.857   5.596   6.914 -0.9118 -1.3907 -1.8666
   40MOL   H50220080   2.478   5.847   7.645  1.1952  0.8809 -1.0693
   41MOL     C120081   1.374   2.156   1.349 -0.0101  0.5915  0.1903
   41MOL     C220082   1.310   2.129   1.213 -0.8055  0.3339 -0.4234
   41MOL     O320083   1.297   1.989   1.210  0.5694  1.1316  0.5022
   41MOL     C420084   1.193   1.933   1.293  0.1884 -0.1510 -0.0784
   41MOL     C520085   1.131   1.823   1.213  0.1212 -0.3578  0.0350
   41MOL     C620086   1.011   1.750   1.286  0.6599 -0.0731 -0.0502
   41MOL     C720087   0.975   1.612   1.224 -0.5696  0.3871  0.0418
   41MOL     C820088   0.868   1.519   1.292 -0.0875  0.1415  0.7063
   41MOL     C920089   0.813   1.387   1.233 -0.7131 -0.3949 -0.2852
   41MOL    H1020090   1.402   2.260   1.365  0.6489  0.3733  0.4713
   41MOL    H1120091   1.307   2.141   1.434  1.4324 -2.2086  0.8917
   41MOL    H1220092   1.211   2.174   1.205 -0.8343  0.4152  0.3640
   41MOL    H1320093   1.119   2.009   1.318 -0.1363 -0.6269  0.4258
   41MOL    H1420094   1.230   1.898   1.390 -0.2952  0.9406  0.4999
   41MOL    H1520095   1.205   1.753   1.174  3.6980  2.9624  0.4957
   41MOL    H1620096   1.084   1.868   1.125 -0.9929  2.4619  2.0189
   41MOL    H1720097   1.042   1.740   1.390  0.9148  0.5138 -0.0662
   41MOL    H1820098   0.919   1.808   1.283  0.2680 -0.7580 -2.7894
   41MOL    H1920099   0.951   1.624   1.118  0.5269  3.3529  0.0956
   41MOL    H2020100   1.073   1.565   1.227 -0.8285 -0.2199 -0.8681
   41MOL    H2120101   0.794   1.599   1.293 -0.6241 -0.3162 -1.1376
   41MOL    H2220102   0.903   1.500   1.394 -0.5000 -1.0044  0.6441
   41MOL    H2320103   0.900   1.325   1.217  1.1174  2.2774 -1.0680
   41MOL    H2420104   0.741   1.334   1.296  0.2261 -0.0979  1.0512
   41MOL    H2520105   0.782   1.401   1.129 -1.6264 -0.7692 -0.0708
   41MOL    H2620106   1.465   2.102   1.375  0.6206  0.5322 -2.0160
   41MOL    C2720107   1.402   2.179   1.097  0.2048  0.0680  0.1503
   41MOL    C2820108   1.387   2.120   0.952  0.2507  0.4574  0.4632
   41MOL    O2920109   1.258   2.166   0.898 -0.1718  0.7499 -0.2819
   41MOL    C3020110   1.148   2.089   0.939  0.1474  0.7065 -0.4515
   41MOL    C3120111   1.030   2.170   0.908  0.4417  0.4732 -0.2852
   41MOL    C3220112   1.028   2.218   0.764  0.4016 -0.0950  0.7650
   41MOL    C3320113   0.887   2.229   0.701  0.8359  0.6890 -0.2967
   41MOL    C3420114   0.881   2.320   0.584 -0.5523  0.5735 -0.0470
   41MOL    C3520115   0.736   2.368   0.551 -0.4957  0.8933  0.4435
   41MOL    H3620116   1.377   2.285   1.086 -0.0712 -0.0714 -0.5777
   41MOL    H3720117   1.504   2.169   1.134  0.4335  0.2923 -0.4247
   41MOL    H3820118   1.388   2.011   0.946 -1.8620  0.5606 -2.3375
   41MOL    H3920119   1.141   2.073   1.047 -1.3269 -0.4260 -0.7085
   41MOL    H4020120   1.137   1.991   0.894  0.2179  0.4438  0.0920
   41MOL    H4120121   1.031   2.254   0.978 -0.4551  2.8890 -3.0973
   41MOL    H4220122   0.946   2.106   0.934  1.5548 -1.1101 -0.4838
   41MOL    H4320123   1.077   2.315   0.756  2.9424 -1.5195 -1.6307
   41MOL    H4420124   1.078   2.150   0.696  1.8010 -0.2245  1.8900
   41MOL    H4520125   0.860   2.130   0.662  1.4534  1.2714 -2.2361
   41MOL    H4620126   0.809   2.258   0.771  1.7471  2.4698 -0.0140
   41MOL    H4720127   0.945   2.407   0.599  0.1387 -0.2457  1.9533
   41MOL    H4820128   0.924   2.263   0.501 -0.6491 -0.0938  0.3545
   41MOL    H4920129   0.741   2.385   0.443  0.3369  1.5846  0.5851
   41MOL    H5020130   0.648   2.306   0.569 -0.7306  1.1630  0.2522
   41MOL    H5120131   0.714   2.460   0.606 -0.8902  0.1804  1.4844
   41MOL    C5220132   1.485   2.180   0.843  0.6733  0.4177  0.5759
   41MOL    C5320133   1.490   2.120   0.700  0.5546  0.3159 -0.1394
   41MOL    O5420134   1.533   1.988   0.713  0.5112  0.3636  0.2439
   41MOL    C5520135   1.673   1.970   0.734  0.6890 -0.0576  0.6433
   41MOL    C5620136   1.694   1.821   0.704 -0.3328  0.0381  0.6840
   41MOL    C5720137   1.595   1.737   0.792  0.3551 -0.7392 -0.1630
   41MOL    C5820138   1.617   1.587   0.783  0.4338 -0.2915 -0.1437
   41MOL    C5920139   1.561   1.502   0.901 -0.3952 -0.4486  0.1306
   41MOL    C6020140   1.580   1.354   0.852 -0.6972 -0.2326 -0.0505
   41MOL    H6120141   1.584   2.177   0.888  0.6910 -1.5027  0.4480
   41MOL    H6220142   1.459   2.285   0.830  2.1841  0.5733 -1.3700
   41MOL    H6320143   1.558   2.169   0.630 -1.2894 -0.7454 -2.7674
   41MOL    H6420144   1.704   1.988   0.837  0.1407  0.9650  0.6380
   41MOL    H6520145   1.730   2.033   0.666 -0.7104 -2.4080 -2.8634
   41MOL    H6620146   1.798   1.795   0.722  0.0315  0.7849 -0.2875
   41MOL    H6720147   1.668   1.806   0.599  1.4174 -0.9822  0.3857
   41MOL    H6820148   1.607   1.768   0.896  0.2118  1.4858 -0.7749
   41MOL    H6920149   1.492   1.757   0.765  0.2889 -0.1862  0.4898
   41MOL    H7020150   1.570   1.546   0.693 -0.0363  0.8249 -0.4080
   41MOL    H7120151   1.723   1.574   0.759  0.3659  0.4670 -0.8420
   41MOL    H7220152   1.621   1.532   0.987 -0.7975 -1.2734  0.7053
   41MOL    H7320153   1.457   1.530   0.918 -0.1151 -0.1496  1.4486
   41MOL    H7420154   1.531   1.299   0.933 -0.3484  0.9579  0.9780
   41MOL    H7520155   1.517   1.353   0.762 -1.3470 -0.6723  0.3985
   41MOL    H7620156   1.680   1.313   0.837 -0.9288 -0.8724  0.1150
   41MOL    C7720157   1.357   2.103   0.628  0.1031  0.1413  0.6933
   41MOL    C7820158   1.362   2.045   0.489  0.1296  0.4790 -0.2722
   41MOL    O7920159   1.453   2.118   0.401 -0.4700  0.2881 -0.5422
   41MOL    C8020160   1.560   2.035   0.356 -0.7033  0.1264  0.0692
   41MOL    C8120161   1.636   2.098   0.237  0.6014  0.7237  0.6174
   41MOL    C8220162   1.675   2.255   0.249 -0.1535  0.1289  0.4393
   41MOL    C8320163   1.761   2.290   0.129 -0.5415  0.4668 -0.2240
   41MOL    C8420164   1.825   2.435   0.130 -0.5548 -0.5031 -0.9811
   41MOL    C8520165   1.720   2.546   0.141  0.8150  0.1764  0.0614
   41MOL    H8620166   1.298   2.195   0.636 -0.7937 -0.1552 -2.1012
   41MOL    H8720167   1.301   2.036   0.694  2.9079 -2.2538  0.7289
   41MOL    H8820168   1.400   1.943   0.496 -3.3781 -0.9111 -0.8991
   41MOL    H8920169   1.523   1.935   0.335 -0.1155 -0.0266 -0.2463
   41MOL    H9020170   1.636   2.028   0.435  0.3966 -0.6246 -1.0391
   41MOL    H9120171   1.570   2.081   0.152  1.3177  0.1063  0.1742
   41MOL    H9220172   1.728   2.041   0.223  1.3605  1.6213  1.9114
   41MOL    H9320173   1.581   2.308   0.237 -0.6152 -1.3117 -2.7649
   41MOL    H9420174   1.726   2.293   0.337 -0.5924  0.8693  0.3774
   41MOL    H9520175   1.846   2.221   0.123  0.2730  1.4719 -0.4335
   41MOL    H9620176   1.708   2.294   0.034 -0.3980  0.2978 -0.3129
   41MOL    H9720177   1.891   2.444   0.217  1.6173  0.6983 -2.7139
   41MOL    H9820178   1.889   2.450   0.044  0.8490 -0.8385 -0.0171
   41MOL    H9920179   1.645   2.542   0.062  2.5065  3.0269 -1.7949
   41MOL   H10020180   1.669   2.544   0.237  0.5641 -2.7672 -0.1144
   41MOL   H10120181   1.775   2.641   0.134  1.6501 -0.4683 -2.7824
   41MOL   C10220182   1.223   2.041   0.420  0.1238 -0.9554 -0.4449
   41MOL   C10320183   1.142   1.917   0.446  0.0432 -0.4880 -0.1357
   41MOL   O10420184   1.138   1.881   0.587 -0.4343  0.5237  0.2403
   41MOL   C10520185   1.136   1.741   0.588 -0.5809 -0.2136 -0.0872
   41MOL   C10620186   1.125   1.698   0.737 -0.7978  0.3196  0.5895
   41MOL   C10720187   1.125   1.546   0.747  0.5675 -0.3663  0.2802
   41MOL   C10820188   1.107   1.486   0.888 -0.8653 -0.0496  0.0411
   41MOL   C10920189   1.138   1.337   0.878 -0.5991  0.2515 -0.1242
   41MOL   C11020190   1.130   1.254   1.001  0.6921  0.6263  0.3864
   41MOL   H11120191   1.160   2.127   0.444  2.3785  0.5436  0.2279
   41MOL   H11220192   1.228   2.050   0.312 -0.6800 -1.4149 -0.5291
   41MOL   H11320193   1.195   1.841   0.389 -0.8053 -1.4605  0.3395
   41MOL   H11420194   1.229   1.710   0.540  0.2316 -0.3966  1.5672
   41MOL   H11520195   1.046   1.713   0.534 -0.6829  0.9174 -0.5282
   41MOL   H11620196   1.028   1.727   0.779 -0.9264  2.2993 -0.9787
   41MOL   H11720197   1.204   1.743   0.798  0.9320  1.9390 -2.7385
   41MOL   H11820198   1.041   1.509   0.689  0.3344 -0.1220  0.4618
   41MOL   H11920199   1.216   1.518   0.693  0.3196  1.3629 -1.1007
   41MOL   H12020200   1.176   1.538   0.955  0.0495 -0.1164 -0.8447
   41MOL   H12120201   1.007   1.513   0.923 -0.6867 -0.5079  0.9328
   41MOL   H12220202   1.082   1.290   0.798 -0.8753 -0.2234  0.3442
   41MOL   H12320203   1.237   1.320   0.836 -1.7266 -0.8485 -2.4272
   41MOL   H12420204   1.171   1.298   1.092 -0.1271  1.6501  0.2630
   41MOL   H12520205   1.025   1.234   1.020 -0.0270  3.2254 -0.6400
   41MOL   H12620206   1.188   1.165   0.975  2.0207  1.2435  1.1833
   41MOL   C12720207   0.995   1.928   0.390  0.0003 -0.3684  0.9177
   41MOL   C12820208   0.986   1.938   0.228 -0.3711  0.1911 -0.2652
   41MOL   O12920209   0.851   1.967   0.191 -0.3969 -0.1090 -0.4246
   41MOL   C13020210   0.792   2.090   0.238  0.4778  0.4113  0.1978
   41MOL   C13120211   0.674   2.138   0.147 -0.5150  0.1228 -0.3528
   41MOL   C13220212   0.544   2.055   0.173 -0.3408  0.4536 -0.0115
   41MOL   C13320213   0.428   2.145   0.217  0.2840 -0.3648  0.2062
   41MOL   C13420214   0.453   2.212   0.352  0.2945 -0.5584 -0.1921
   41MOL   C13520215   0.338   2.276   0.408 -0.1973 -0.2251  0.0727
   41MOL   H13620216   0.932   1.849   0.433 -0.0053 -1.2697 -0.7390
   41MOL   H13720217   0.952   2.012   0.445  0.4354 -0.2370  1.0563
   41MOL   H13820218   1.046   2.021   0.190  1.9810 -0.7354  1.2962
   41MOL   H13920219   0.870   2.165   0.255 -0.2008  1.4788 -1.2541
   41MOL   H14020220   0.748   2.072   0.336 -0.5983 -2.5573 -0.7969
   41MOL   H14120221   0.710   2.131   0.044  0.6954 -0.8458  0.1277
   41MOL   H14220222   0.670   2.247   0.150  2.1361  0.3174 -1.5586
   41MOL   H14320223   0.516   2.004   0.080 -0.5866  2.6567 -1.1711
   41MOL   H14420224   0.562   1.981   0.251 -1.5405 -1.5179 -1.5235
   41MOL   H14520225   0.418   2.222   0.140  0.1512 -2.2900 -1.7765
   41MOL   H14620226   0.333   2.091   0.214  0.0209  0.0930  0.2235
   41MOL   H14720227   0.481   2.134   0.423  0.8158  0.8187  1.1575
   41MOL   H14820228   0.534   2.284   0.338 -0.9179  0.7551 -0.5249
   41MOL   H14920229   0.263   2.199   0.427  0.9838 -1.3839  0.1113
   41MOL   H15020230   0.369   2.313   0.506  1.0593 -2.8345  0.7149
   41MOL   H15120231   0.309   2.366   0.353 -0.4983 -0.1664  0.3250
   41MOL   C15220232   1.045   1.814   0.154  0.2584 -0.7394  0.5552
   41MOL   C15320233   1.016   1.799   0.006 -0.4866  0.3952 -0.5017
   41MOL   O15420234   1.084   1.903   7.722 -0.4958 -0.0245  0.4708
   41MOL   C15520235   0.991   1.996   7.659 -0.5016 -0.5055 -0.2129
   41MOL   C15620236   1.063   2.126   7.598 -0.4267  0.1799 -0.0209
   41MOL   C15720237   1.139   2.199   7.711  0.0919 -0.5619  0.6787
   41MOL   C15820238   1.049   2.303   7.777 -0.0761  0.8037 -0.2974
   41MOL   C15920239   1.105   2.339   0.135 -0.2669 -0.3941 -0.2349
   41MOL   C16020240   1.010   2.431   0.218 -0.4365  0.5074 -0.0222
   41MOL   H16120241   1.149   1.807   0.185  0.1166  2.3156  1.9178
   41MOL   H16220242   0.995   1.730   0.203  0.0846 -0.2103  1.3054
   41MOL   H16320243   0.909   1.798   7.762 -0.4162  1.7421 -0.9446
   41MOL   H16420244   0.912   2.023   7.729 -1.5878 -1.0047 -1.2197
   41MOL   H16520245   0.949   1.938   7.577 -1.2132 -1.2334  0.6545
   41MOL   H16620246   0.987   2.187   7.550 -2.0531  0.2066  2.4614
   41MOL   H16720247   1.134   2.097   7.521 -1.1765  0.6773 -0.9139
   41MOL   H16820248   1.185   2.128   0.002  3.5355 -0.7057 -1.6122
   41MOL   H16920249   1.220   2.255   7.663 -2.1783  2.3931  0.1705
   41MOL   H17020250   1.044   2.392   7.714 -2.9736  0.1234 -1.1410
   41MOL   H17120251   0.946   2.267   0.002  0.0122  0.4891 -0.8591
   41MOL   H17220252   1.123   2.249   0.194 -0.7752 -2.5442 -3.2986
   41MOL   H17320253   1.202   2.387   0.122 -0.4248 -0.1565 -0.5432
   41MOL   H17420254   1.048   2.456   0.317  0.5890  1.4463 -0.6464
   41MOL   H17520255   0.985   2.524   0.167  0.7569  0.8940  0.0881
   41MOL   H17620256   0.914   2.384   0.240  0.5418 -0.7090  1.8039
   41MOL   C17720257   1.093   1.666   7.737 -0.1826 -0.8537 -0.6373
   41MOL   C17820258   1.051   1.610   7.599 -0.4123  0.0477 -0.3700
   41MOL   O17920259   1.135   1.498   7.570  0.1668 -0.2049 -0.0139
   41MOL   C18020260   1.235   1.536   7.482 -0.5342  0.1381  0.7742
   41MOL   C18120261   1.365   1.474   7.543 -0.9796  0.7867 -0.7354
   41MOL   C18220262   1.348   1.324   7.572  0.0858 -0.4009  0.3467
   41MOL   C18320263   1.477   1.245   7.581  0.2572 -1.1337 -1.0589
   41MOL   C18420264   1.583   1.303   7.670 -0.2263 -0.4174 -0.1122
   41MOL   C18520265   1.717   1.208   7.682  0.1138 -0.2033 -0.1731
   41MOL   H18620266   1.198   1.681   7.762 -0.4575  0.6288 -0.3525
   41MOL   H18720267   1.078   1.579   0.023  1.4708 -0.7741 -0.1237
   41MOL   H18820268   1.062   1.694   7.532 -1.5644  2.2574  2.1140
   41MOL   H18920269   1.261   1.642   7.486  0.7106 -0.0949 -0.5788
   41MOL   H19020270   1.229   1.502   7.379 -2.4147 -2.4536  1.6910
   41MOL   H19120271   1.372   1.522   7.640 -1.9717  1.1034 -0.8120
   41MOL   H19220272   1.454   1.494   7.483  1.0928 -0.3943  1.8135
   41MOL   H19320273   1.283   1.310   7.658 -0.1491 -0.5399  0.1456
   41MOL   H19420274   1.284   1.270   7.503  0.0856 -1.2595  1.0056
   41MOL   H19520275   1.451   1.143   7.612  1.4643 -1.3108 -0.5995
   41MOL   H19620276   1.508   1.219   7.480  1.6759 -0.4909 -0.7927
   41MOL   H19720277   1.597   1.401   7.626 -2.4988  0.7836  1.7281
   41MOL   H19820278   1.541   1.315   7.770 -3.0709  0.0273 -1.3259
   41MOL   H19920279   1.799   1.276   7.705  1.3040 -1.6452 -0.0700
   41MOL   H20020280   1.704   1.142   7.767 -0.4248  0.7490  0.4951
   41MOL   H20120281   1.737   1.160   7.586  2.3577 -1.1497  0.7276
   41MOL   C20220282   0.910   1.554   7.598 -0.1770  0.3751 -0.0733
   41MOL   C20320283   0.863   1.532   7.454 -0.3018  0.0517 -0.1201
   41MOL   O20420284   0.852   1.659   7.391  0.3052  0.0615 -0.2879
   41MOL   C20520285   0.944   1.687   7.291 -0.1740 -0.4273  0.7444
   41MOL   C20620286   0.945   1.835   7.249 -0.5047  0.8684 -0.2301
   41MOL   C20720287   0.818   1.867   7.185  0.4549  0.6839  0.4727
   41MOL   C20820288   0.824   2.004   7.114 -0.0101 -0.9240  0.2649
   41MOL   C20920289   0.700   2.049   7.042  0.1693 -1.4323 -0.0954
   41MOL   C21020290   0.726   2.173   6.958 -0.0910 -0.0494  0.3515
   41MOL   H21120291   0.916   1.454   7.640  1.8493  1.1554  1.6022
   41MOL   H21220292   0.843   1.628   7.642 -0.3358  2.2126 -3.2541
   41MOL   H21320293   0.936   1.470   7.402 -0.4221  0.8904 -1.3037
   41MOL   H21420294   0.929   1.629   7.200  1.4242 -0.8044  0.7055
   41MOL   H21520295   1.043   1.658   7.327  0.3169 -1.1294 -1.0866
   41MOL   H21620296   1.033   1.839   7.184  0.9367 -0.3556  1.6042
   41MOL   H21720297   0.969   1.889   7.341 -0.5590 -1.3065  1.0818
   41MOL   H21820298   0.790   1.793   7.110 -1.6471  1.5968  0.3216
   41MOL   H21920299   0.741   1.863   7.261  0.1911  1.5883  0.2632
   41MOL   H22020300   0.858   2.082   7.183  0.7692 -0.8391 -0.2109
   41MOL   H22120301   0.905   1.992   7.042  1.2474  0.6038  1.3978
   41MOL   H22220302   0.642   1.971   6.992 -0.2737 -0.3851 -1.2340
   41MOL   H22320303   0.632   2.077   7.122  0.2912 -1.0015 -0.1422
   41MOL   H22420304   0.640   2.197   6.896  0.6042  1.5307 -0.0467
   41MOL   H22520305   0.732   2.260   7.024 -1.0530  0.7427 -0.5910
   41MOL   H22620306   0.821   2.174   6.904  0.1915  0.2610  0.8484
   41MOL   C22720307   0.723   1.465   7.449  0.1019  0.1293 -0.2081
   41MOL   C22820308   0.663   1.440   7.302  0.0153  0.1484 -0.1824
   41MOL   O22920309   0.645   1.300   7.293  0.6852 -0.1874 -0.2971
   41MOL   C23020310   0.763   1.224   7.255 -0.1548 -0.6980 -0.6758
   41MOL   C23120311   0.726   1.075   7.269 -0.2437 -0.4364  0.2258
   41MOL   C23220312   0.674   1.037   7.407 -0.4267 -0.4211 -0.0781
   41MOL   C23320313   0.655   0.883   7.431  0.2130  0.4680  0.5603
   41MOL   C23420314   0.590   0.848   7.562  0.1989 -0.3360 -1.2391
   41MOL   C23520315   0.560   0.696   7.578  0.4134 -0.3162 -0.2558
   41MOL   H23620316   0.738   1.365   7.490  0.5697 -1.0126 -3.0477
   41MOL   H23720317   0.648   1.520   7.507 -0.1335 -0.6353  0.2232
   41MOL   H23820318   0.738   1.477   7.232  0.6990 -0.0076  0.4659
   41MOL   H23920319   0.843   1.244   7.326  0.1283  1.3061 -1.5313
   41MOL   H24020320   0.806   1.240   7.156  2.2670  1.6108  0.6885
   41MOL   H24120321   0.814   1.014   7.248 -0.8303 -1.0109 -0.6317
   41MOL   H24220322   0.648   1.050   7.197  0.4896 -4.7577  0.8082
   41MOL   H24320323   0.738   1.070   7.488  1.1052 -1.6501 -0.7589
   41MOL   H24420324   0.587   1.094   7.440  2.3155  1.9443  3.3369
   41MOL   H24520325   0.589   0.839   7.357 -0.4056  2.2966 -0.0073
   41MOL   H24620326   0.754   0.839   7.415 -1.1383 -2.0669 -1.1623
   41MOL   H24720327   0.653   0.872   7.648 -0.0667 -0.6399 -0.9584
   41MOL   H24820328   0.507   0.911   7.593  0.4871 -0.1624 -0.8194
   41MOL   H24920329   0.649   0.638   7.553 -1.6034 -2.2861 -3.1492
   41MOL   H25020330   0.521   0.675   7.678  1.8355  0.3492  0.4583
   41MOL   H25120331   0.481   0.662   7.512  1.2428 -0.5912 -1.1101
   41MOL   C25220332   0.528   1.509   7.283  0.4013  0.1105  0.2723
   41MOL   C25320333   0.482   1.520   7.131  0.2919 -0.1148 -0.5697
   41MOL   O25420334   0.382   1.624   7.122  0.2515  0.2251 -0.2045
   41MOL   C25520335   0.429   1.747   7.088  0.5826 -0.0976 -0.3158
   41MOL   C25620336   0.309   1.837   7.111  0.3331  0.2778 -0.6298
   41MOL   C25720337   0.340   1.981   7.059  0.2785  0.1660 -0.0438
   41MOL   C25820338   0.240   2.091   7.107 -0.7298  0.1525  0.8316
   41MOL   C25920339   0.300   2.230   7.078 -0.5161 -0.2006 -0.0306
   41MOL   C26020340   0.188   2.331   7.074 -0.4047 -0.6173  0.2350
   41MOL   H26120341   0.454   1.456   7.342 -0.1777 -2.2693 -2.4682
   41MOL   H26220342   0.537   1.611   7.320 -0.1721  0.1968  0.1778
   41MOL   H26320343   0.570   1.536   7.069  1.3200 -1.9091  0.3505
   41MOL   H26420344   0.457   1.755   6.983 -0.3211  0.0115 -0.5553
   41MOL   H26520345   0.518   1.770   7.146 -0.5109  0.0054  1.3785
   41MOL   H26620346   0.268   1.837   7.212 -0.6755 -2.1241 -0.9973
   41MOL   H26720347   0.234   1.792   7.046 -0.0238  2.4264 -1.7227
   41MOL   H26820348   0.437   2.017   7.094  0.1816 -0.4294  0.8842
   41MOL   H26920349   0.326   1.970   6.952 -0.7954 -2.5561  0.3186
   41MOL   H27020350   0.147   2.090   7.050 -0.2770  0.2017  0.0899
   41MOL   H27120351   0.222   2.088   7.214  0.3285 -0.7007  0.9840
   41MOL   H27220352   0.369   2.264   7.156  2.1212 -1.5754 -1.6695
   41MOL   H27320353   0.353   2.219   6.983  1.1371 -1.3879  0.9969
   41MOL   H27420354   0.117   2.315   6.993 -0.0165 -1.3427  0.0363
   41MOL   H27520355   0.131   2.327   7.167  0.2059  3.1002  0.8393
   41MOL   H27620356   0.229   2.431   7.084  0.0817 -0.9447  1.7284
   41MOL   C27720357   0.426   1.387   7.079  0.4444 -0.3552 -0.2096
   41MOL   C27820358   0.416   1.367   6.925  0.2447 -0.0238 -0.8037
   41MOL   O27920359   0.393   1.220   6.896  0.5800 -0.3294  0.1037
   41MOL   C28020360   0.511   1.146   6.871 -0.0894  0.6868 -0.3529
   41MOL   C28120361   0.513   0.998   6.834 -0.1427 -0.2955  0.1084
   41MOL   C28220362   0.523   0.976   6.676 -0.7949  0.2797 -0.4885
   41MOL   C28320363   0.475   0.837   6.631  0.5230  0.1151  0.3320
   41MOL   C28420364   0.488   0.821   6.475 -0.8966 -0.2058  0.0035
   41MOL   C28520365   0.431   0.687   6.427 -0.3684  0.0356  0.1040
   41MOL   H28620366   0.479   1.302   7.123 -0.1863 -0.9378 -0.5482
   41MOL   H28720367   0.327   1.378   7.124 -0.0736 -2.7382 -1.7180
   41MOL   H28820368   0.517   1.392   6.891  0.7703 -0.0324  0.6807
   41MOL   H28920369   0.575   1.163   6.957  1.2308 -0.0875 -1.1559
   41MOL   H29020370   0.572   1.195   6.794  0.1099 -0.8261 -1.1856
   41MOL   H29120371   0.427   0.939   6.866  0.0558  0.3025  1.7814
   41MOL   H29220372   0.601   0.950   6.876 -1.0407 -1.1617  1.0298
   41MOL   H29320373   0.464   1.050   6.622  1.0395  1.2704 -1.1713
   41MOL   H29420374   0.625   1.001   6.646 -1.5833  2.6174 -1.2953
   41MOL   H29520375   0.534   0.751   6.664 -1.5190 -2.0534 -1.4663
   41MOL   H29620376   0.380   0.820   6.681  1.1196  1.8823  2.1124
   41MOL   H29720377   0.434   0.896   6.417  1.4349  4.5440  3.6028
   41MOL   H29820378   0.588   0.835   6.436 -0.4868  0.0172  1.1145
   41MOL   H29920379   0.335   0.663   6.474  0.2244 -2.5242  0.0759
   41MOL   H30020380   0.431   0.678   6.319  0.3266 -1.0089  0.1921
   41MOL   H30120381   0.496   0.607   6.463 -0.4148 -0.2718 -0.5027
   41MOL   C30220382   0.304   1.453   6.867  0.2525 -0.2051 -0.3084
   41MOL   C30320383   0.295   1.478   6.715 -0.0634 -0.3910  0.1636
   41MOL   O30420384   0.203   1.585   6.690  0.2362 -0.1669 -0.0647
   41MOL   C30520385   0.266   1.711   6.686  0.8201  0.2856  0.0487
   41MOL   C30620386   0.147   1.813   6.689 -0.6215  0.0052  0.0406
   41MOL   C30720387   0.193   1.963   6.671  0.3798 -1.5760 -0.7310
   41MOL   C30820388   0.080   2.062   6.675  0.0423 -0.1414 -0.1895
   41MOL   C30920389   0.116   2.215   6.678  0.0212 -0.2731 -0.7522
   41MOL   C31020390   0.211   2.251   6.563  0.6693  0.0875 -0.3758
   41MOL   H31120391   0.210   1.408   6.900 -1.2417  2.6566 -0.4865
   41MOL   H31220392   0.312   1.556   6.901 -2.2681 -0.6034  1.6433
   41MOL   H31320393   0.390   1.498   6.667  0.0500  0.8469  0.9074
   41MOL   H31420394   0.320   1.713   6.591  1.1217  0.9402  0.2308
   41MOL   H31520395   0.337   1.736   6.764  1.1652 -0.4077 -0.0417
   41MOL   H31620396   0.101   1.799   6.787 -0.5408  3.3788  0.6180
   41MOL   H31720397   0.068   1.773   6.625 -0.8788  1.1878 -0.3882
   41MOL   H31820398   0.257   1.996   6.752  0.1669  0.4879 -1.3657
   41MOL   H31920399   0.250   1.981   6.579 -1.0265 -0.8799 -1.4920
   41MOL   H32020400   0.017   2.045   6.588  1.4281  0.5034 -1.3329
   41MOL   H32120401   0.010   2.049   6.758  0.5148 -1.2690  0.0383
   41MOL   H32220402   0.024   2.274   6.681  1.9453  2.7786 -0.7870
   41MOL   H32320403   0.157   2.229   6.777 -0.9265  0.2375 -0.4246
   41MOL   H32420404   0.219   2.359   6.553  1.0845  0.0314 -0.6295
   41MOL   H32520405   0.313   2.223   6.591 -0.6238 -0.2049  4.5190
   41MOL   H32620406   0.187   2.204   6.467  1.4617  0.4817 -0.7709
   41MOL   C32720407   0.249   1.354   6.636 -0.1026  0.5178 -0.2535
   41MOL   C32820408   0.213   1.390   6.490 -0.2449 -0.5262  0.8599
   41MOL   O32920409   0.344   1.409   6.429 -0.0488  0.1455  0.3236
   41MOL   C33020410   0.349   1.491   6.316  0.1740 -0.4766 -0.3055
   41MOL   C33120411   0.501   1.494   6.284  0.1374  0.0298 -0.1357
   41MOL   C33220412   0.529   1.607   6.181  0.9287  0.0618  0.7817
   41MOL   C33320413   0.460   1.571   6.049  0.8637 -0.3655  0.7302
   41MOL   C33420414   0.443   1.691   5.957 -0.0767 -0.3543 -0.2819
   41MOL   C33520415   0.580   1.765   5.936  0.7921  0.2803  1.2716
   41MOL   H33620416   0.163   1.307   6.683  0.4932 -0.2242  0.1034
   41MOL   H33720417   0.334   1.286   6.632 -1.6715 -1.7156  2.3929
   41MOL   H33820418   0.145   1.475   6.481 -0.4831 -0.5537  2.2502
   41MOL   H33920419   0.318   1.593   6.336  0.0989 -0.9027  1.8297
   41MOL   H34020420   0.291   1.447   6.234 -1.5499 -0.8083  1.0626
   41MOL   H34120421   0.546   1.398   6.259  1.4482  0.7462 -0.5319
   41MOL   H34220422   0.554   1.522   6.376  0.6419 -0.9018 -0.1423
   41MOL   H34320423   0.490   1.700   6.223 -0.3439  0.6176 -1.6102
   41MOL   H34420424   0.635   1.626   6.163  0.2614  1.1276 -2.1597
   41MOL   H34520425   0.503   1.491   5.987  1.9523 -2.0371  3.5705
   41MOL   H34620426   0.358   1.532   6.054  0.8887 -0.6891 -0.9309
   41MOL   H34720427   0.397   1.658   5.864 -0.8505  1.8923 -0.7159
   41MOL   H34820428   0.370   1.755   6.007 -0.6595  0.0505 -1.6149
   41MOL   H34920429   0.559   1.843   5.862 -1.8009 -2.2420 -0.7576
   41MOL   H35020430   0.623   1.814   6.023  1.4507  0.9781  0.5716
   41MOL   H35120431   0.654   1.705   5.882 -0.3352  0.1875 -0.1879
   41MOL   C35220432   0.148   1.278   6.408  0.3024  0.0893 -0.0344
   41MOL   C35320433   0.017   1.208   6.459 -0.1852 -0.3271  0.1799
   41MOL   O35420434   0.015   1.091   6.379  0.0340 -0.1144  0.1526
   41MOL   C35520435   0.072   0.971   6.446  0.0086  0.7997 -0.4444
   41MOL   C35620436   0.047   0.862   6.344  0.0491  0.5421  0.5927
   41MOL   C35720437   0.117   0.882   6.210 -0.5992 -0.1527  0.1512
   41MOL   C35820438   0.079   0.785   6.105  0.5870  0.7471 -0.4931
   41MOL   C35920439   7.730   0.831   6.023 -0.0290 -0.1128 -0.2653
   41MOL   C36020440   7.664   0.724   5.932 -0.0012  0.1661  0.0605
   41MOL   H36120441   0.131   1.316   6.307 -2.5782 -0.5846  0.1578
   41MOL   H36220442   0.225   1.202   6.395  0.5226  0.4961 -1.1703
   41MOL   H36320443   0.028   1.192   6.566 -1.8587  0.9308  0.5701
   41MOL   H36420444   0.029   0.955   6.544  0.1335  1.1499 -0.3300
   41MOL   H36520445   0.177   0.985   6.472 -0.5977  2.2876  1.3213
   41MOL   H36620446   7.719   0.848   6.323  0.5389 -0.3091 -1.4584
   41MOL   H36720447   0.075   0.763   6.381  0.5829  0.4964  0.0605
   41MOL   H36820448   0.096   0.985   6.182  0.5069  0.4625  1.5260
   41MOL   H36920449   0.224   0.874   6.230 -0.6789 -2.2790 -0.1315
   41MOL   H37020450   0.165   0.784   6.039  1.5021 -0.6103  0.7007
   41MOL   H37120451   0.075   0.684   6.147  1.0973  0.1334 -1.8970
   41MOL   H37220452   7.649   0.869   6.086  0.3339 -0.1176  0.2074
   41MOL   H37320453   7.768   0.910   5.959  1.3139  4.4125  5.6278
   41MOL   H37420454   7.733   0.699   5.851 -2.4457  0.4777 -2.2038
   41MOL   H37520455   7.632   0.632   5.982 -1.6175  1.1802  0.9162
   41MOL   H37620456   7.584   0.758   5.866 -1.5902 -1.0933  1.2701
   41MOL   C37720457   7.662   1.271   6.424 -0.1196  0.4711  0.8085
   41MOL   C37820458   7.623   1.407   6.506  0.0198  0.3462  0.0608
   41MOL   O37920459   7.611   1.372   6.646 -0.2686  0.0271 -0.8261
   41MOL   C38020460   7.630   1.473   6.744 -0.3403  0.3041 -0.7396
   41MOL   C38120461   7.570   1.426   6.871 -0.3035 -0.4412 -0.7327
   41MOL   C38220462   7.656   1.312   6.938 -0.4542 -0.3417 -0.9464
   41MOL   C38320463   7.588   1.236   7.052 -0.0124 -0.3245  0.6969
   41MOL   C38420464   7.665   1.120   7.123 -0.8489 -0.3089  0.7035
   41MOL   C38520465   7.589   1.044   7.227 -0.8920 -0.0961  0.0090
   41MOL   H38620466   7.662   1.281   6.316 -0.2896  0.0858  0.7729
   41MOL   H38720467   7.583   1.196   6.433 -0.0919  0.6404  2.7455
   41MOL   H38820468   7.701   1.482   6.494  0.6386  0.0311  1.9376
   41MOL   H38920469   7.571   1.557   6.706  0.3512  1.6669  1.0796
   41MOL   H39020470   7.732   1.509   6.759  0.7436 -3.4287  1.4525
   41MOL   H39120471   7.469   1.386   6.857 -0.7810  0.7918 -0.8351
   41MOL   H39220472   7.551   1.509   6.940 -0.9023  0.6381 -2.1770
   41MOL   H39320473   7.692   1.234   6.870  0.8313  0.5735 -1.3471
   41MOL   H39420474   7.742   1.371   6.971 -1.0909  0.2041 -0.2639
   41MOL   H39520475   7.547   1.306   7.125 -3.1768 -0.1516 -1.1599
   41MOL   H39620476   7.501   1.189   7.006  0.3124  1.2932 -1.6785
   41MOL   H39720477   7.689   1.045   7.048  0.0996  0.5805  0.1170
   41MOL   H39820478   7.765   1.152   7.151 -0.4983 -0.0009 -0.8347
   41MOL   H39920479   7.586   1.104   7.318  0.6612  0.1566 -0.0961
   41MOL   H40020480   7.485   1.016   7.208 -0.6744 -0.8104 -0.1726
   41MOL   H40120481   7.635   0.950   7.258  2.0712  1.3548  0.1418
   41MOL   C40220482   7.486   1.468   6.454  0.2740  0.1624 -0.4779
   41MOL   C40320483   7.503   1.538   6.320 -0.1389 -0.3593 -0.0771
   41MOL   O40420484   7.572   1.665   6.346  0.4300 -0.3550 -0.4653
   41MOL   C40520485   7.643   1.712   6.239  0.2517  0.7239 -0.2765
   41MOL   C40620486   7.759   1.806   6.283  0.5418  0.5459 -0.7601
   41MOL   C40720487   0.045   1.901   6.175 -0.2559 -0.0240 -0.5494
   41MOL   C40820488   0.156   1.986   6.224  0.0418  0.3740  0.4105
   41MOL   C40920489   0.271   1.906   6.285 -0.7471 -0.3495  0.3976
   41MOL   C41020490   0.378   1.998   6.335 -0.1907  0.3728 -0.3270
   41MOL   H41120491   7.444   1.535   6.529  0.6159  0.6317 -0.7001
   41MOL   H41220492   7.428   1.377   6.440  0.7360 -0.3194  0.6382
   41MOL   H41320493   7.554   1.473   6.249 -3.1124 -1.0504 -1.6583
   41MOL   H41420494   7.571   1.770   6.181 -0.6281  0.1000  0.1799
   41MOL   H41520495   7.677   1.636   6.169 -1.0085  1.1811 -1.4109
   41MOL   H41620496   0.044   1.728   6.324 -1.6735 -0.0587  1.6019
   41MOL   H41720497   7.718   1.850   6.373  0.0972  1.3070 -1.3233
   41MOL   H41820498   0.087   1.839   6.095  1.4759  0.0780  0.2703
   41MOL   H41920499   7.740   1.959   6.136 -1.0105  1.2999  2.9298
   41MOL   H42020500   0.186   2.043   6.135  0.5037 -0.8687 -0.2470
   41MOL   H42120501   0.113   2.053   6.298 -1.1518 -0.4976  0.5102
   41MOL   H42220502   0.240   1.851   6.373  2.1247  0.4824  1.9892
   41MOL   H42320503   0.306   1.839   6.206 -2.0194 -0.8050  0.2139
   41MOL   H42420504   0.437   2.045   6.256  1.8612  1.2036  1.6592
   41MOL   H42520505   0.350   2.073   6.409  0.0574 -0.1201  0.2719
   41MOL   H42620506   0.446   1.931   6.387  0.7192  2.9561  1.8998
   41MOL   C42720507   7.360   1.572   6.262 -0.5979 -0.8484  0.0518
   41MOL   C42820508   7.269   1.458   6.202 -0.2073 -0.4542  0.7031
   41MOL   O42920509   7.212   1.398   6.315  0.0049  0.7223  0.5401
   41MOL   C43020510   7.216   1.252   6.317 -0.4479  0.2082 -0.9644
   41MOL   C43120511   7.135   1.202   6.437  0.1836  0.1697 -0.3179
   41MOL   C43220512   7.226   1.211   6.563 -0.1871  0.5558  0.8178
   41MOL   C43320513   7.165   1.147   6.686 -0.0322 -0.2433  0.4509
   41MOL   C43420514   7.273   1.145   6.802  0.0872  0.3133  0.1710
   41MOL   C43520515   7.228   1.048   6.917  0.6196  0.2588 -0.8927
   41MOL   H43620516   7.296   1.618   6.338  2.1253  1.6105  1.0037
   41MOL   H43720517   7.379   1.647   6.185 -1.2296 -1.2193 -0.4668
   41MOL   H43820518   7.337   1.391   6.149  0.9185  2.1021 -1.1931
   41MOL   H43920519   7.318   1.214   6.327 -0.1664  1.3102  0.4608
   41MOL   H44020520   7.183   1.203   6.226 -0.6135  1.7859 -1.7651
   41MOL   H44120521   7.114   1.095   6.433 -1.4671  0.5134 -1.2947
   41MOL   H44220522   7.038   1.252   6.448  0.4428  0.6255 -0.1169
   41MOL   H44320523   7.319   1.159   6.541 -0.3056  0.0351  1.5137
   41MOL   H44420524   7.257   1.313   6.584 -0.3562  1.0064 -1.0461
   41MOL   H44520525   7.079   1.201   6.725 -0.2438 -0.3574  0.1494
   41MOL   H44620526   7.125   1.048   6.664 -0.9789  0.7392 -2.4990
   41MOL   H44720527   7.370   1.109   6.768  0.0097 -0.7409  1.0652
   41MOL   H44820528   7.292   1.245   6.842 -0.0368  1.2235 -1.9416
   41MOL   H44920529   7.232   0.943   6.887  1.7478 -0.2335  0.9372
   41MOL   H45020530   7.295   1.048   7.002 -1.5339 -1.6158  0.8710
   41MOL   H45120531   7.131   1.071   6.963  0.2528 -0.9252 -1.0703
   41MOL   C45220532   7.163   1.508   6.106  0.4632  0.1360  0.0043
   41MOL   C45320533   7.089   1.397   6.033 -0.5152  0.8942 -0.4976
   41MOL   O45420534   7.049   1.442   5.905  0.0369 -0.3754  0.4175
   41MOL   C45520535   7.144   1.396   5.803  0.1205 -0.8149  0.4010
   41MOL   C45620536   7.296   1.435   5.807  0.0786  0.0006 -0.0202
   41MOL   C45720537   7.328   1.587   5.792 -0.5732 -0.4351 -0.2273
   41MOL   C45820538   7.465   1.634   5.843 -0.0244  1.0318  0.5795
   41MOL   C45920539   7.480   1.782   5.858 -0.4212 -0.7075  0.4209
   41MOL   C46020540   7.617   1.842   5.883 -0.4948  0.3484  0.9505
   41MOL   H46120541   7.090   1.578   6.148 -0.9277 -2.1428  1.4592
   41MOL   H46220542   7.210   1.570   6.030  1.6009 -0.1647  0.4632
   41MOL   H46320543   7.148   1.306   6.028  0.1971  1.3427 -0.4168
   41MOL   H46420544   7.106   1.423   5.705  0.3027  1.9881  1.0657
   41MOL   H46520545   7.134   1.287   5.801 -3.0733 -0.5468 -1.1956
   41MOL   H46620546   7.337   1.377   5.724 -1.5582  1.6906 -2.0519
   41MOL   H46720547   7.342   1.408   5.902 -0.0979  1.0990  0.3866
   41MOL   H46820548   7.326   1.617   5.687  0.8046  0.2540 -0.0632
   41MOL   H46920549   7.251   1.648   5.839 -0.8995 -0.8763 -0.1843
   41MOL   H47020550   7.487   1.588   5.939  2.7107 -1.9479 -1.3413
   41MOL   H47120551   7.548   1.600   5.780 -2.2259  0.6462 -2.2256
   41MOL   H47220552   7.439   1.817   5.763  0.1417 -3.1830 -0.7885
   41MOL   H47320553   7.417   1.802   5.945 -0.2071 -1.2786  0.7122
   41MOL   H47420554   7.673   1.871   5.794 -1.0669  2.0152  1.1253
   41MOL   H47520555   7.622   1.923   5.955  0.3049  0.8021  0.3891
   41MOL   H47620556   7.680   1.772   5.938  0.7067  0.7488  0.1038
   41MOL   C47720557   6.955   1.356   6.109 -0.4000  1.0581  0.2606
   41MOL   C47820558   6.887   1.231   6.041  0.2998  0.5855  0.2971
   41MOL   O47920559   6.977   1.122   6.053  0.1841  0.0423 -0.7837
   41MOL   C48020560   6.914   0.997   6.029 -0.1107 -0.3429 -0.4168
   41MOL   C48120561   6.979   0.884   6.105  0.5172  0.0818 -0.2535
   41MOL   C48220562   6.908   0.745   6.090 -0.0547 -0.3673  0.2282
   41MOL   C48320563   6.998   0.635   6.142 -0.2319  0.5936 -0.1804
   41MOL   C48420564   6.905   0.520   6.182  0.1168  0.7778 -0.0984
   41MOL   C48520565   6.981   0.403   6.231 -0.5844 -0.1757 -0.2230
   41MOL   H48620566   6.964   1.326   6.213 -3.2993 -2.4590 -0.4026
   41MOL   H48720567   6.883   1.438   6.111 -2.1102 -0.2791 -2.5491
   41MOL   H48820568   6.794   1.211   6.094  0.6949  0.4339  0.9405
   41MOL   H48920569   6.925   0.985   5.921 -0.0288  1.0392 -0.5689
   41MOL   H49020570   6.812   0.996   6.068  0.0822 -0.7136  0.0777
   41MOL   H49120571   6.984   0.910   6.211  0.9250 -0.2837 -0.1815
   41MOL   H49220572   7.080   0.882   6.065 -0.7182 -2.4352 -3.4516
   41MOL   H49320573   6.806   0.749   6.128 -0.5273 -2.0928 -0.8342
   41MOL   H49420574   6.905   0.732   5.982 -0.0222  4.5214 -0.5055
   41MOL   H49520575   7.082   0.615   6.075 -1.2642  0.5659 -1.4919
   41MOL   H49620576   7.046   0.663   6.236 -3.7407 -2.6159  2.7061
   41MOL   H49720577   6.827   0.553   6.250  0.3938  0.7456  0.2356
   41MOL   H49820578   6.864   0.490   6.085 -1.5017 -0.1588  0.8540
   41MOL   H49920579   7.018   0.432   6.329  1.9341 -1.1787 -0.8421
   41MOL   H50020580   6.911   0.321   6.243  0.8005 -1.0874  2.0446
   41MOL   H50120581   7.063   0.380   6.163  0.4311 -0.7331  1.1556
   41MOL   H50220582   6.845   1.244   5.941  2.9271  0.7815 -0.8210
   42MOL     C120583   4.532   0.486   4.070  0.0182  0.3034 -0.3727
   42MOL     C220584   4.414   0.578   4.094 -0.3802  0.1547  0.1318
   42MOL     O320585   4.403   0.590   4.231 -0.3309  0.1388 -0.4539
   42MOL     C420586   4.429   0.722   4.276  0.0081 -0.5119 -0.5142
   42MOL     C520587   4.450   0.704   4.425  0.2272  0.0821  0.2831
   42MOL     C620588   4.331   0.657   4.517 -0.8989 -0.0894 -0.3077
   42MOL     C720589   4.355   0.664   4.668  0.4898 -0.3757  0.5655
   42MOL     C820590   4.227   0.614   4.743 -0.4027 -0.8246  0.0327
   42MOL     C920591   4.247   0.650   4.890  0.1469  0.0624  0.6105
   42MOL    H1020592   4.508   0.386   4.107 -0.6530  1.6146  2.8830
   42MOL    H1120593   4.555   0.491   3.963 -2.5347  1.4492 -0.9154
   42MOL    H1220594   4.425   0.675   4.045 -3.1579  0.4196 -0.0609
   42MOL    H1320595   4.352   0.799   4.279  2.7181  2.2126  2.5406
   42MOL    H1420596   4.515   0.765   4.225 -0.3183  1.1857  0.3232
   42MOL    H1520597   4.488   0.799   4.463 -1.8889  0.8290  0.6167
   42MOL    H1620598   4.524   0.628   4.448  0.5565 -0.0018 -1.0513
   42MOL    H1720599   4.240   0.715   4.499 -0.8469 -0.4435 -1.8369
   42MOL    H1820600   4.301   0.558   4.484  1.2644 -1.1622  0.8283
   42MOL    H1920601   4.439   0.603   4.701  0.4528 -0.4551  0.5147
   42MOL    H2020602   4.379   0.766   4.696 -3.9096  0.7196  0.8082
   42MOL    H2120603   4.201   0.509   4.728  0.2754 -1.4800  3.0665
   42MOL    H2220604   4.141   0.668   4.705 -1.6416 -1.7615  1.4310
   42MOL    H2320605   4.317   0.579   4.934 -0.8006 -2.9757 -2.5142
   42MOL    H2420606   4.275   0.755   4.898  0.2203  0.0893  0.0604
   42MOL    H2520607   4.149   0.633   4.933 -0.7251  0.2020 -1.2503
   42MOL    H2620608   4.618   0.529   4.121 -0.7888  1.5111 -0.0139
   42MOL    C2720609   4.287   0.513   4.042 -0.2604  0.4430  0.3376
   42MOL    C2820610   4.161   0.599   4.047 -0.0254  0.7437  0.4137
   42MOL    O2920611   4.188   0.717   3.978  0.0074 -0.1686  0.0481
   42MOL    C3020612   4.121   0.835   4.041  0.2664  0.3574  0.5890
   42MOL    C3120613   4.150   0.964   3.957 -0.4031  0.2479 -0.5272
   42MOL    C3220614   4.056   0.977   3.835  0.1095  0.6028 -0.5275
   42MOL    C3320615   4.071   1.112   3.761  0.9024  0.1592 -0.3835
   42MOL    C3420616   3.948   1.138   3.671 -0.1655  0.5572 -0.5496
   42MOL    C3520617   3.958   1.259   3.574 -0.2235 -0.4928  0.0239
   42MOL    H3620618   4.295   0.475   3.940 -0.2191 -1.0809  0.8936
   42MOL    H3720619   4.280   0.419   4.096 -3.4444  0.3188 -0.1877
   42MOL    H3820620   4.142   0.621   4.153 -0.7057  0.5163  0.3415
   42MOL    H3920621   4.165   0.856   4.138  2.3648  0.4147 -0.3431
   42MOL    H4020622   4.013   0.823   4.039  0.3584 -0.3820 -0.2486
   42MOL    H4120623   4.248   0.967   3.909  0.0660 -0.8473  0.3130
   42MOL    H4220624   4.136   1.049   4.024 -1.0026 -0.4529  0.2534
   42MOL    H4320625   4.093   0.896   3.772  1.0218 -0.2307  1.0299
   42MOL    H4420626   3.950   0.964   3.860  0.2881  1.4612  0.7377
   42MOL    H4520627   4.096   1.197   3.824 -3.3838  2.1501 -1.1953
   42MOL    H4620628   4.158   1.113   3.695  1.4928  1.3212  0.3903
   42MOL    H4720629   3.929   1.041   3.624  0.5786 -0.9332  2.1381
   42MOL    H4820630   3.856   1.149   3.729 -1.0999  0.2213 -1.9348
   42MOL    H4920631   3.967   1.358   3.620 -1.3297 -0.9621  1.2879
   42MOL    H5020632   4.031   1.239   3.496  0.7840 -1.4849  1.1945
   42MOL    H5120633   3.863   1.262   3.520  0.4891  1.4046 -1.1561
   42MOL    C5220634   4.030   0.529   3.998  0.9264 -0.0013 -0.3330
   42MOL    C5320635   4.003   0.393   4.062 -0.0404 -0.2433 -0.8913
   42MOL    O5420636   3.990   0.418   4.206  1.1195 -0.4459 -0.3475
   42MOL    C5520637   4.027   0.298   4.280  0.1453  0.9665 -0.6422
   42MOL    C5620638   3.967   0.300   4.417 -0.5309 -0.8919 -0.0769
   42MOL    C5720639   3.813   0.288   4.415  0.2582  0.2971 -0.3121
   42MOL    C5820640   3.766   0.284   4.568 -0.0378  0.2843 -0.3693
   42MOL    C5920641   3.615   0.294   4.577 -0.8110  1.3095  0.3211
   42MOL    C6020642   3.548   0.161   4.536 -0.3289  0.4625  0.5047
   42MOL    H6120643   4.031   0.519   3.889  1.1501 -0.2046 -0.3128
   42MOL    H6220644   3.954   0.601   4.029 -0.9330 -1.3229 -1.7002
   42MOL    H6320645   4.080   0.321   4.034 -0.6484 -0.9748 -0.7148
   42MOL    H6420646   4.136   0.304   4.284  0.2688 -0.6169 -1.3571
   42MOL    H6520647   4.012   0.202   4.230 -0.7378  0.1783  1.0789
   42MOL    H6620648   3.996   0.393   4.465 -2.4644  0.1951 -0.9823
   42MOL    H6720649   4.013   0.216   4.469 -1.3453 -1.3090 -0.0283
   42MOL    H6820650   3.771   0.379   4.371  0.3153  1.2008  1.4583
   42MOL    H6920651   3.768   0.215   4.348 -0.8944 -1.3896  2.2518
   42MOL    H7020652   3.809   0.197   4.618  0.7139  0.9585  0.1796
   42MOL    H7120653   3.809   0.374   4.611 -0.0477  1.1350 -2.0816
   42MOL    H7220654   3.600   0.311   4.684  1.2237 -0.9246  1.0159
   42MOL    H7320655   3.572   0.378   4.523 -0.2819  1.3167 -0.0915
   42MOL    H7420656   3.589   0.082   4.599 -1.0954  1.4757  2.3186
   42MOL    H7520657   3.441   0.166   4.557 -0.2085  2.4558  0.7401
   42MOL    H7620658   3.561   0.120   4.436 -2.6412  0.3130  0.2422
   42MOL    C7720659   3.869   0.336   4.008 -0.3249 -0.6259 -0.4530
   42MOL    C7820660   3.881   0.258   3.876  0.3722 -0.0470  0.2172
   42MOL    O7920661   3.758   0.201   3.850 -0.2609 -0.2804 -0.6228
   42MOL    C8020662   3.678   0.278   3.755  0.0811  0.4292 -0.5255
   42MOL    C8120663   3.549   0.201   3.719  0.1350 -0.2947 -0.5000
   42MOL    C8220664   3.569   0.072   3.647 -0.4025 -0.5690 -0.6557
   42MOL    C8320665   3.452   0.025   3.552  0.1255  0.5405 -0.4308
   42MOL    C8420666   3.462   7.656   3.506  0.2183 -0.8400 -0.0699
   42MOL    C8520667   3.596   7.620   3.428 -0.3650  0.3779 -0.6843
   42MOL    H8620668   3.791   0.409   3.991 -0.7890 -1.7824 -3.5895
   42MOL    H8720669   3.829   0.259   4.073 -0.3862 -0.5371 -0.3862
   42MOL    H8820670   3.907   0.335   3.802  1.9360 -0.3725  0.4026
   42MOL    H8920671   3.731   0.288   3.661  0.5965  3.1977  0.0331
   42MOL    H9020672   3.666   0.380   3.793  0.0807 -0.3271  1.5856
   42MOL    H9120673   3.499   0.265   3.646 -1.3937 -0.6449  0.2225
   42MOL    H9220674   3.486   0.186   3.807  0.2908  1.5329 -0.0424
   42MOL    H9320675   3.671   0.063   3.608 -0.2830 -2.8726  0.0544
   42MOL    H9420676   3.575   7.772   3.723  1.2217 -0.3557 -0.5487
   42MOL    H9520677   3.364   0.037   3.616 -0.0352  1.5258 -0.8337
   42MOL    H9620678   3.444   0.093   3.467 -1.7334 -0.0818 -0.7763
   42MOL    H9720679   3.466   7.596   3.596 -3.2663 -0.8054  0.1701
   42MOL    H9820680   3.374   7.634   3.446  0.5097 -1.2793 -0.3420
   42MOL    H9920681   3.600   7.515   3.399 -1.4838  0.6194 -1.7130
   42MOL   H10020682   3.608   7.668   3.331 -0.7751  0.8757 -0.4882
   42MOL   H10120683   3.691   7.644   3.476 -0.6196 -0.6971  0.3775
   42MOL   C10220684   3.991   0.148   3.877 -0.0890 -0.2214  0.9501
   42MOL   C10320685   4.000   0.083   3.738 -0.1658  0.1760  0.9579
   42MOL   O10420686   4.030   0.175   3.634 -0.3316 -0.3782 -0.4645
   42MOL   C10520687   4.158   0.241   3.636  0.5367 -0.0004 -0.0633
   42MOL   C10620688   4.156   0.367   3.540 -1.0026 -0.4538  0.2971
   42MOL   C10720689   4.051   0.474   3.565  0.2086  0.3849 -0.0840
   42MOL   C10820690   4.055   0.587   3.464 -0.2557 -0.9215  0.0457
   42MOL   C10920691   3.961   0.703   3.496 -0.0564  0.1197  1.0142
   42MOL   C11020692   3.969   0.819   3.392 -0.4931 -0.9213  0.0197
   42MOL   H11120693   4.091   0.182   3.903  0.4898  0.3438 -1.8693
   42MOL   H11220694   3.955   0.080   3.955  0.4762  0.9924  2.2759
   42MOL   H11320695   3.898   0.054   3.714 -0.3065  1.1193  0.3928
   42MOL   H11420696   4.229   0.167   3.597 -1.1468 -2.2977  1.1079
   42MOL   H11520697   4.185   0.276   3.735  1.1774  1.7098 -0.8345
   42MOL   H11620698   4.160   0.346   3.434 -1.1230 -1.7460  0.5307
   42MOL   H11720699   4.250   0.418   3.561 -0.8065 -1.3844  1.7938
   42MOL   H11820700   3.951   0.431   3.569 -0.3841  1.5775 -1.6839
   42MOL   H11920701   4.067   0.527   3.659  0.8572  0.1938 -0.0831
   42MOL   H12020702   4.154   0.633   3.462 -0.1925 -1.0343  0.4655
   42MOL   H12120703   4.034   0.552   3.363  2.1193 -1.7386 -0.1925
   42MOL   H12220704   3.862   0.659   3.504  1.0964 -2.8101  0.0553
   42MOL   H12320705   3.989   0.735   3.596  1.2039 -1.8248  1.3078
   42MOL   H12420706   3.890   0.893   3.407  0.1236 -0.0285 -1.0123
   42MOL   H12520707   4.063   0.866   3.422  1.2651 -3.0510 -1.9789
   42MOL   H12620708   3.975   0.797   3.286 -0.8173  1.3873 -0.5099
   42MOL   C12720709   4.086   7.735   3.736 -0.4150  1.0022 -0.0606
   42MOL   C12820710   4.021   7.613   3.799  0.2425 -0.1054 -0.1101
   42MOL   O12920711   4.049   7.617   3.939  0.1795 -0.0501 -0.1281
   42MOL   C13020712   3.944   7.558   4.019  0.1716 -0.1148  0.2488
   42MOL   C13120713   3.987   7.566   4.172 -0.5813 -0.2974 -0.6277
   42MOL   C13220714   3.960   7.713   4.230 -0.6844  0.2412 -0.1475
   42MOL   C13320715   3.974   7.701   4.383  0.1474 -0.0320 -0.3941
   42MOL   C13420716   4.119   7.683   4.438  0.8749 -0.0757 -0.3636
   42MOL   C13520717   4.118   7.701   4.589 -0.3453  0.4040 -0.2161
   42MOL   H13620718   4.132   7.709   3.641  0.1330 -0.5479  0.6031
   42MOL   H13720719   4.175   7.761   3.795  0.3750 -0.3748 -0.6271
   42MOL   H13820720   3.914   7.603   3.776  0.6235  1.1471 -2.5622
   42MOL   H13920721   3.920   7.455   3.994  1.3835 -0.4306  0.3407
   42MOL   H14020722   3.847   7.605   4.004  0.7687  1.2046  0.3447
   42MOL   H14120723   4.083   7.515   4.177 -1.6362 -2.3782 -1.0689
   42MOL   H14220724   3.923   7.493   4.223  0.0829  0.3959  1.2459
   42MOL   H14320725   4.026   0.006   4.180 -0.6737  1.1052  1.0802
   42MOL   H14420726   3.857   7.731   4.200 -1.2980  0.4658  2.0277
   42MOL   H14520727   3.940   0.020   4.418  1.3233  0.7224 -1.3353
   42MOL   H14620728   3.902   7.632   4.428 -0.8018  0.4570 -1.1406
   42MOL   H14720729   4.139   7.577   4.425 -0.5155 -0.2850 -0.8609
   42MOL   H14820730   4.185   7.749   4.381  1.4387 -0.7929 -0.5447
   42MOL   H14920731   4.083   0.022   4.617  1.3755  0.2438  2.7497
   42MOL   H15020732   4.058   7.618   4.628  0.9063 -0.9681 -1.1350
   42MOL   H15120733   4.220   7.695   4.627 -0.3681  1.9489  0.1161
   42MOL   C15220734   4.083   7.474   3.751 -0.2920 -0.2124 -0.3332
   42MOL   C15320735   4.090   7.444   3.598  0.2937  0.0099  0.5576
   42MOL   O15420736   4.114   7.308   3.576 -0.0722 -0.1216 -0.2109
   42MOL   C15520737   4.247   7.273   3.540 -0.4252 -0.1815  0.8594
   42MOL   C15620738   4.286   7.130   3.575 -0.8528  0.1463  0.2650
   42MOL   C15720739   4.423   7.076   3.528 -0.1023  0.4610 -0.4885
   42MOL   C15820740   4.464   6.955   3.620  0.1374 -0.5783  0.3707
   42MOL   C15920741   4.602   6.893   3.600 -0.1943  0.7049  0.3111
   42MOL   C16020742   4.647   6.809   3.717 -0.8699 -0.1025 -0.0954
   42MOL   H16120743   4.184   7.468   3.791 -0.3291  0.3830 -0.1400
   42MOL   H16220744   4.034   7.390   3.799  0.2035 -1.4334 -1.9121
   42MOL   H16320745   4.171   7.505   3.558  0.9519  0.5955  2.7447
   42MOL   H16420746   4.320   7.346   3.577  0.3644  0.2019 -1.3731
   42MOL   H16520747   4.267   7.296   3.435  0.8764 -3.3394  0.3569
   42MOL   H16620748   4.211   7.060   3.539  1.0479 -0.2435 -3.1994
   42MOL   H16720749   4.283   7.129   3.683 -0.4022 -1.1059  0.2684
   42MOL   H16820750   4.408   7.048   3.424  0.7956  1.4152 -0.8894
   42MOL   H16920751   4.502   7.151   3.535 -1.5420  1.8401  1.4418
   42MOL   H17020752   4.448   6.996   3.719 -0.0359 -1.0319  0.5303
   42MOL   H17120753   4.389   6.877   3.613 -0.7400  0.4011 -1.6874
   42MOL   H17220754   4.610   6.833   3.509  1.7543  0.2936  0.7440
   42MOL   H17320755   4.676   6.972   3.584  0.4656 -0.1036 -0.6540
   42MOL   H17420756   4.571   6.742   3.755 -0.6814  0.0321  0.5231
   42MOL   H17520757   4.745   6.765   3.696 -0.3677  0.6767  0.5728
   42MOL   H17620758   4.668   6.866   3.807 -1.7015 -1.4463  0.9699
   42MOL   C17720759   3.955   7.477   3.541  0.5576  0.1275  0.3106
   42MOL   C17820760   3.946   7.438   3.383  0.0375 -0.3476  0.1167
   42MOL   O17920761   3.829   7.369   3.369  0.2250 -0.1011 -0.6434
   42MOL   C18020762   3.815   7.288   3.253  0.5120 -0.0364 -0.8206
   42MOL   C18120763   3.702   7.187   3.272 -0.1345 -0.4252  0.4658
   42MOL   C18220764   3.715   7.046   3.213 -0.1068 -0.7539  0.5120
   42MOL   C18320765   3.660   7.028   3.069  0.0584  1.0397  0.1161
   42MOL   C18420766   3.738   6.916   2.994  0.8016 -0.3259  0.7202
   42MOL   C18520767   3.691   6.909   2.850  0.0886  0.0451  0.1786
   42MOL   H18620768   3.873   7.426   3.591  0.9001 -1.6205 -0.8686
   42MOL   H18720769   3.932   7.582   3.558 -0.6487 -0.2077  0.7506
   42MOL   H18820770   4.024   7.369   3.350 -0.5503 -1.0971  0.2853
   42MOL   H18920771   3.901   7.225   3.234  0.6907  0.0475 -0.2969
   42MOL   H19020772   3.794   7.354   3.169 -0.9606 -1.2373 -1.4348
   42MOL   H19120773   3.618   7.239   3.225  1.9494  1.4004 -1.3926
   42MOL   H19220774   3.668   7.186   3.375 -0.8401 -2.3611  0.2212
   42MOL   H19320775   3.822   7.027   3.222  0.4661  1.8552 -0.4852
   42MOL   H19420776   3.673   6.967   3.275 -1.1392 -0.7353 -0.1546
   42MOL   H19520777   3.553   7.017   3.087  0.5338  0.5871  2.9201
   42MOL   H19620778   3.674   7.122   3.017 -1.2765  1.2315  0.0930
   42MOL   H19720779   3.846   6.929   2.991  0.9339 -1.6452 -2.2791
   42MOL   H19820780   3.724   6.821   3.047  0.2133 -1.1123 -0.8278
   42MOL   H19920781   3.596   6.856   2.844  0.1513  0.0277 -0.6856
   42MOL   H20020782   3.685   7.003   2.795 -0.1725  1.2406  2.1769
   42MOL   H20120783   3.763   6.843   2.803 -1.1658 -0.9894 -0.3232
   42MOL   C20220784   3.952   7.564   3.291 -0.0569 -0.4133 -0.3924
   42MOL   C20320785   4.083   7.635   3.294  0.0745 -0.0123 -0.3411
   42MOL   O20420786   4.050   7.751   3.220  0.0570 -0.7833  0.3636
   42MOL   C20520787   4.032   0.090   3.301 -0.1635 -0.2855  0.3355
   42MOL   C20620788   3.889   0.135   3.291 -0.4250  0.0336 -0.1460
   42MOL   C20720789   3.867   0.281   3.348 -0.3275 -0.2701  0.1563
   42MOL   C20820790   3.742   0.345   3.290  0.6183  0.0132  0.0861
   42MOL   C20920791   3.611   0.276   3.327  0.2566 -1.0912  0.0825
   42MOL   C21020792   3.482   0.346   3.270  0.4027 -0.0768  0.5397
   42MOL   H21120793   3.940   7.538   3.186  2.6593 -2.7549 -0.1798
   42MOL   H21220794   3.875   7.634   3.324 -0.8549 -1.8421  0.8641
   42MOL   H21320795   4.093   7.660   3.399 -0.8616  1.7965 -0.6637
   42MOL   H21420796   4.091   0.160   3.241  0.5960 -0.5491  0.7798
   42MOL   H21520797   4.074   0.089   3.401  0.8503  0.0558 -0.0844
   42MOL   H21620798   3.808   0.078   3.335  0.5605 -0.2616  1.3260
   42MOL   H21720799   3.873   0.134   3.183  0.7888 -0.9122 -0.3315
   42MOL   H21820800   3.860   0.283   3.457  0.6052 -2.6834  0.2910
   42MOL   H21920801   3.948   0.346   3.316  1.5292 -2.6811 -0.1704
   42MOL   H22020802   3.746   0.444   3.336 -0.5377 -0.3363  0.9557
   42MOL   H22120803   3.754   0.367   3.184  0.9515  2.5779  0.6259
   42MOL   H22220804   3.612   0.169   3.305 -0.6880 -1.1309  0.2446
   42MOL   H22320805   3.614   0.289   3.435 -1.0920 -1.6568  0.1939
   42MOL   H22420806   3.390   0.311   3.316  1.3409 -2.2702  0.8059
   42MOL   H22520807   3.494   0.453   3.289  0.9238 -0.3087  1.5649
   42MOL   H22620808   3.479   0.329   3.162 -0.5122  0.3392  0.4971
   42MOL   C22720809   4.207   7.567   3.244  0.2189  0.5901  0.2866
   42MOL   C22820810   4.339   7.606   3.314 -0.3305  0.2019 -0.4183
   42MOL   O22920811   4.444   7.552   3.236 -0.2639  0.3447 -0.1066
   42MOL   C23020812   4.525   7.475   3.327  0.1394  0.0398 -0.0487
   42MOL   C23120813   4.642   7.411   3.243  0.3340 -0.1032 -0.4045
   42MOL   C23220814   4.748   7.317   3.320 -0.0203  0.0541  0.2362
   42MOL   C23320815   4.875   7.283   3.241 -0.4241  0.0833 -0.0201
   42MOL   C23420816   4.859   7.193   3.127  0.4551  0.3613 -0.3642
   42MOL   C23520817   4.992   7.168   3.060 -0.0319 -0.6213  1.1024
   42MOL   H23620818   4.195   7.459   3.232 -2.3527  0.9235 -0.3407
   42MOL   H23720819   4.217   7.605   3.142  0.8639  0.7347  0.4011
   42MOL   H23820820   4.341   7.574   3.418 -1.8071  1.0407 -0.1113
   42MOL   H23920821   4.462   7.395   3.366 -0.2560 -0.4844 -1.7589
   42MOL   H24020822   4.566   7.541   3.404 -1.3083  1.3167 -0.3610
   42MOL   H24120823   4.682   7.498   3.192 -0.6857  1.3058  1.1567
   42MOL   H24220824   4.601   7.350   3.163 -1.4608  1.5870 -0.7845
   42MOL   H24320825   4.786   7.383   3.398 -0.5716  1.4187 -0.6317
   42MOL   H24420826   4.693   7.234   3.365 -1.0708 -0.9458 -2.7201
   42MOL   H24520827   4.917   7.380   3.214  3.1193 -1.5240 -0.5647
   42MOL   H24620828   4.954   7.244   3.304  0.4693 -0.8428 -1.6635
   42MOL   H24720829   4.802   7.109   3.167  0.1092  0.7104 -0.1199
   42MOL   H24820830   4.802   7.242   3.048  0.9926 -0.7842 -1.4907
   42MOL   H24920831   5.049   7.111   3.133  0.9745 -1.3964 -0.2502
   42MOL   H25020832   4.971   7.094   2.982 -2.4409 -1.1437  2.2111
   42MOL   H25120833   5.028   7.262   3.018  0.0699 -1.7291 -1.4368
   42MOL   C25220834   4.363   7.762   3.303 -0.0047  0.0671 -0.2179
   42MOL   C25320835   4.475   0.039   3.388 -0.2271  0.3519  0.0466
   42MOL   O25420836   4.456   0.006   3.524  0.3264  0.0247 -0.1359
   42MOL   C25520837   4.576   7.757   3.591  0.0916 -0.0122 -0.7834
   42MOL   C25620838   4.550   7.691   3.724 -1.1298 -0.6879  0.2230
   42MOL   C25720839   4.499   7.549   3.712  0.4046  0.1916 -0.5890
   42MOL   C25820840   4.506   7.473   3.851  0.3065  0.3565 -0.2642
   42MOL   C25920841   4.484   7.323   3.839  0.2874 -0.1449  0.2273
   42MOL   C26020842   4.516   7.218   3.949  0.6850  0.3999 -0.0999
   42MOL   H26120843   4.380   0.007   3.198 -0.3079  0.5262 -0.1666
   42MOL   H26220844   4.272   0.040   3.320  0.1771  0.2838  0.0399
   42MOL   H26320845   4.567   7.767   3.359 -0.7579 -1.0129  0.6746
   42MOL   H26420846   4.631   0.069   3.620 -2.0841  1.0451  0.2151
   42MOL   H26520847   4.650   7.695   3.541  0.5012 -1.8481  2.0429
   42MOL   H26620848   4.484   7.755   3.783 -0.3317  1.1915 -0.8957
   42MOL   H26720849   4.642   7.691   3.782 -1.1003  1.0782  0.1770
   42MOL   H26820850   4.393   7.566   3.691  0.4965  2.4383  0.5873
   42MOL   H26920851   4.548   7.492   3.633 -1.1735 -0.3614 -1.1985
   42MOL   H27020852   4.608   7.472   3.889  0.4605  0.4557 -0.6774
   42MOL   H27120853   4.458   7.522   3.936  0.3700 -0.2993  0.1495
   42MOL   H27220854   4.392   7.291   3.790  0.7965 -1.3911  0.0535
   42MOL   H27320855   4.544   7.299   3.751 -0.2044 -2.3085  0.4315
   42MOL   H27420856   4.512   7.115   3.913  1.3266  0.2236  0.3188
   42MOL   H27520857   4.620   7.231   3.979  0.9082  1.5256 -1.3576
   42MOL   H27620858   4.442   7.217   4.030 -1.6145 -0.4060 -2.1501
   42MOL   C27720859   4.490   0.189   3.372 -0.1233  0.4604  0.9907
   42MOL   C27820860   4.605   0.241   3.278  0.1920 -0.5939  0.0729
   42MOL   O27920861   4.568   0.231   3.143 -0.5698  0.3109  0.1040
   42MOL   C28020862   4.629   0.116   3.083 -0.1894  0.0150 -0.0070
   42MOL   C28120863   4.561   0.084   2.948  0.6770 -0.5655  0.1739
   42MOL   C28220864   4.567   7.724   2.888 -0.0251 -0.2416  0.0535
   42MOL   C28320865   4.448   7.688   2.794  1.3460  0.3222 -0.5456
   42MOL   C28420866   4.472   7.551   2.727  0.8873  1.1298  0.1589
   42MOL   C28520867   4.350   7.505   2.645  0.8103  0.3503  0.3965
   42MOL   H28620868   4.396   0.234   3.338  1.1878  1.2655 -1.7182
   42MOL   H28720869   4.512   0.223   3.473  2.3550 -0.1607  0.6821
   42MOL   H28820870   4.697   0.197   3.316  0.7923  0.6470  0.0612
   42MOL   H28920871   4.634   0.037   3.157 -0.5140  1.5495  1.6881
   42MOL   H29020872   4.731   0.145   3.056  0.9333 -0.3903  3.5550
   42MOL   H29120873   4.599   0.145   2.866  0.5241  0.0730  0.5758
   42MOL   H29220874   4.458   0.114   2.968  1.3555  2.8821 -1.1268
   42MOL   H29320875   4.660   7.717   2.833 -0.4981  1.7863 -1.0238
   42MOL   H29420876   4.564   7.648   2.967  0.1093 -0.7863 -0.4648
   42MOL   H29520877   4.354   7.691   2.850  1.6858  0.6221  0.0119
   42MOL   H29620878   4.435   7.766   2.720 -0.0170  0.2973 -0.3424
   42MOL   H29720879   4.549   7.573   2.652  0.1870 -1.8695 -1.4954
   42MOL   H29820880   4.510   7.467   2.784  0.8737  0.1114 -1.3055
   42MOL   H29920881   4.269   7.468   2.708 -0.2006 -1.0518 -1.6527
   42MOL   H30020882   4.301   7.594   2.603  2.0131  1.3781  1.1332
   42MOL   H30120883   4.375   7.439   2.561 -1.0468  1.6210 -1.2134
   42MOL   C30220884   4.611   0.401   3.299  0.7335  0.0240 -0.5236
   42MOL   C30320885   4.684   0.437   3.434 -0.0993  0.3325  0.4010
   42MOL   O30420886   4.627   0.551   3.486 -0.3857  0.1226 -0.6781
   42MOL   C30520887   4.520   0.543   3.577 -0.0955 -0.0722 -0.7268
   42MOL   C30620888   4.481   0.676   3.636 -0.4714  0.2033  0.0744
   42MOL   C30720889   4.588   0.740   3.734 -0.2883 -0.5394 -0.1786
   42MOL   C30820890   4.521   0.864   3.793 -0.1989  0.0893  0.5419
   42MOL   C30920891   4.623   0.949   3.875  0.0904  0.3868  0.1493
   42MOL   C31020892   4.564   1.064   3.946 -0.1798  0.2406  0.0904
   42MOL   H31120893   4.664   0.457   3.223 -2.3652  1.3695 -1.7358
   42MOL   H31220894   4.514   0.449   3.289  0.5058 -0.5286 -1.0152
   42MOL   H31320895   4.675   0.358   3.509 -2.0473  0.3730  0.2157
   42MOL   H31420896   4.533   0.469   3.656 -1.7153  0.6106  0.2019
   42MOL   H31520897   4.426   0.511   3.531 -0.8254 -2.2578  2.1206
   42MOL   H31620898   4.389   0.669   3.694 -0.6573  2.7247  0.1757
   42MOL   H31720899   4.454   0.749   3.559  1.0102  1.7163  0.9618
   42MOL   H31820900   4.626   0.674   3.812 -0.0738  1.1983  1.2045
   42MOL   H31920901   4.680   0.761   3.679 -1.3927  1.9910 -1.1468
   42MOL   H32020902   4.474   0.925   3.715 -0.6169  0.9661  1.4686
   42MOL   H32120903   4.436   0.823   3.847 -0.4792 -1.6945 -1.2122
   42MOL   H32220904   4.673   0.889   3.951 -2.5528  0.1801  1.7993
   42MOL   H32320905   4.705   0.983   3.811  0.6446  0.1252  0.7176
   42MOL   H32420906   4.638   1.104   4.014  0.0062 -2.3575  1.4958
   42MOL   H32520907   4.532   1.144   3.879 -1.9375 -0.9182 -0.4967
   42MOL   H32620908   4.476   1.033   4.003  0.6295  0.2478  1.3558
   42MOL   C32720909   4.832   0.468   3.407  0.3367 -0.0450  0.1241
   42MOL   C32820910   4.927   0.449   3.531  0.9140 -0.3989 -0.1124
   42MOL   O32920911   5.056   0.504   3.510 -0.4305 -0.0630  0.2558
   42MOL   C33020912   5.125   0.457   3.388  1.0015  0.6914 -0.3630
   42MOL   C33120913   5.275   0.454   3.413 -0.5770 -0.5324  0.3270
   42MOL   C33220914   5.347   0.314   3.405 -0.9260  0.3579  0.1547
   42MOL   C33320915   5.504   0.323   3.427 -0.4541 -0.1126 -0.2694
   42MOL   C33420916   5.574   0.190   3.413  0.3585  0.5964  0.1808
   42MOL   C33520917   5.712   0.182   3.476 -0.2172 -0.2608 -0.2435
   42MOL   H33620918   4.844   0.568   3.366 -1.3271 -0.3073 -1.0933
   42MOL   H33720919   4.855   0.387   3.337  0.7886 -0.7239  1.0510
   42MOL   H33820920   4.938   0.341   3.538  0.0242 -0.6708 -2.2463
   42MOL   H33920921   5.087   0.519   3.307 -1.9938 -0.7012 -0.1105
   42MOL   H34020922   5.089   0.357   3.363  1.0661  0.3574  0.8399
   42MOL   H34120923   5.295   0.521   3.496 -1.4985  1.0279 -0.6947
   42MOL   H34220924   5.327   0.497   3.328  1.1551 -0.5249  1.3673
   42MOL   H34320925   5.302   0.252   3.483 -3.3939 -1.5623 -2.6788
   42MOL   H34420926   5.327   0.265   3.310 -0.3121  2.6861 -1.2052
   42MOL   H34520927   5.544   0.391   3.352  0.9764 -0.1219  0.4705
   42MOL   H34620928   5.524   0.361   3.527  1.7283 -1.0149 -0.3373
   42MOL   H34720929   5.521   0.112   3.468 -0.7323 -0.9020 -2.8518
   42MOL   H34820930   5.585   0.154   3.310 -1.7287  0.7713 -0.1448
   42MOL   H34920931   5.758   0.083   3.463  0.8480 -0.1749  2.4530
   42MOL   H35020932   5.788   0.226   3.411 -0.7630 -0.9315 -1.3475
   42MOL   H35120933   5.728   0.198   3.582  1.0358  0.1952 -0.4935
   42MOL   C35220934   4.880   0.499   3.669  0.0659  0.9110 -0.1243
   42MOL   C35320935   4.920   0.419   3.800  0.0630 -0.7769 -0.3421
   42MOL   O35420936   4.840   0.299   3.796 -0.1183  0.7776  0.3712
   42MOL   C35520937   4.917   0.190   3.860 -0.2400 -0.2969  0.9199
   42MOL   C35620938   4.816   0.082   3.912  0.5516 -0.6564 -0.3403
   42MOL   C35720939   4.886   7.730   3.914  0.5509 -0.6215 -0.8400
   42MOL   C35820940   5.004   7.702   4.010  0.4636  0.1153  0.6341
   42MOL   C35920941   5.056   7.554   4.008  0.5483 -0.4355  0.7239
   42MOL   C36020942   5.162   7.539   4.114  0.1583 -0.3179  0.2948
   42MOL   H36120943   4.908   0.604   3.677 -0.1354  0.9571 -0.0369
   42MOL   H36220944   4.771   0.498   3.667  0.0939 -0.0401 -1.3090
   42MOL   H36320945   5.028   0.404   3.801  0.4219  1.6753  0.4221
   42MOL   H36420946   4.980   0.229   3.940  3.2900 -4.2554  0.1822
   42MOL   H36520947   4.984   0.152   3.784 -0.4772  1.0289  0.0275
   42MOL   H36620948   4.738   0.079   3.836 -0.1018  0.6709  0.2559
   42MOL   H36720949   4.761   0.103   4.004  0.9115  0.3903 -0.3507
   42MOL   H36820950   4.817   7.646   3.932 -0.5008  0.0550 -1.6540
   42MOL   H36920951   4.914   7.716   3.810  1.1154  0.4325 -0.8325
   42MOL   H37020952   5.076   0.003   3.995 -1.8621  1.8981 -1.4397
   42MOL   H37120953   4.969   7.730   4.110  2.7593  1.7602  1.0167
   42MOL   H37220954   4.973   7.489   4.038  0.2138 -0.6103 -0.5722
   42MOL   H37320955   5.090   7.519   3.911  0.7696 -1.5479  1.1968
   42MOL   H37420956   5.144   7.538   4.221  0.2265  2.3990  0.3773
   42MOL   H37520957   5.212   7.444   4.097 -0.7660 -0.7959  0.2041
   42MOL   H37620958   5.244   7.609   4.096 -1.0674  0.9774 -0.2966
   42MOL   C37720959   4.881   0.486   3.933 -0.2984 -0.3008  0.2249
   42MOL   C37820960   4.955   0.623   3.965  0.1513  0.1164  0.3270
   42MOL   O37920961   5.097   0.625   3.956 -0.0557  0.0453  0.3322
   42MOL   C38020962   5.156   0.671   3.831 -0.2223  1.1629 -0.3830
   42MOL   C38120963   5.309   0.694   3.846 -0.2882  0.5369 -0.3529
   42MOL   C38220964   5.397   0.589   3.782 -0.0988  0.6598 -0.3514
   42MOL   C38320965   5.536   0.573   3.855  0.0531  0.2093  1.0777
   42MOL   C38420966   5.624   0.475   3.782  0.3864  0.0196  0.2294
   42MOL   C38520967   5.758   0.437   3.851  0.0599  0.0946  0.2329
   42MOL   H38620968   4.774   0.503   3.924  0.1234  0.6536 -3.5887
   42MOL   H38720969   4.884   0.426   4.024 -1.9124  0.8015  1.0330
   42MOL   H38820970   4.913   0.707   3.910 -3.1848 -0.6307  1.5498
   42MOL   H38920971   5.119   0.773   3.823  0.2320  1.5075  1.5488
   42MOL   H39020972   5.132   0.618   3.739 -1.6698 -0.1943  0.7387
   42MOL   H39120973   5.331   0.709   3.952 -1.9899  0.2337  0.0542
   42MOL   H39220974   5.330   0.792   3.803 -3.0563  1.7389  0.9063
   42MOL   H39320975   5.354   0.489   3.786  0.5000  0.3349 -1.7428
   42MOL   H39420976   5.412   0.605   3.676  1.2701 -0.3352 -0.3214
   42MOL   H39520977   5.589   0.667   3.868  0.3267  0.1075  0.7135
   42MOL   H39620978   5.532   0.525   3.952 -2.5859 -0.4530  0.6967
   42MOL   H39720979   5.570   0.385   3.753  3.1358 -1.6343  0.0947
   42MOL   H39820980   5.658   0.514   3.686 -0.8437 -0.6624 -0.4906
   42MOL   H39920981   5.817   0.365   3.794  0.2653  0.5900 -0.1824
   42MOL   H40020982   5.827   0.521   3.865  0.5777 -0.2403 -0.3145
   42MOL   H40120983   5.747   0.387   3.947  1.2666 -1.6869 -0.5334
   42MOL   C40220984   4.921   0.675   4.111  0.1284  0.6048 -0.0989
   42MOL   C40320985   4.956   0.819   4.140  0.6728 -0.2073  0.3092
   42MOL   O40420986   5.062   0.822   4.238 -0.1870  0.0090  0.4089
   42MOL   C40520987   5.195   0.789   4.188  0.5295 -0.2693 -0.3007
   42MOL   C40620988   5.280   0.808   4.314  0.3649  0.3212 -0.3338
   42MOL   C40720989   5.272   0.694   4.416  0.0159 -0.6525 -0.6696
   42MOL   C40820990   5.314   0.742   4.553 -0.2399 -1.1623 -0.5471
   42MOL   C40920991   5.326   0.623   4.656  0.8717 -0.3878 -0.4670
   42MOL   C41020992   5.310   0.664   4.803  0.0105 -0.4912  0.3728
   42MOL   H41120993   4.986   0.620   4.179 -1.1260 -1.4129 -0.4755
   42MOL   H41220994   4.819   0.650   4.141  0.3909 -0.5090 -0.1002
   42MOL   H41320995   4.966   0.869   4.044 -1.6087 -0.1943  0.0651
   42MOL   H41420996   5.227   0.856   4.108  0.9909 -1.2213 -0.9234
   42MOL   H41520997   5.208   0.683   4.167  0.7956  0.2734 -3.0881
   42MOL   H41620998   5.249   0.907   4.348  0.1066  0.1891 -0.1878
   42MOL   H41720999   5.379   0.843   4.284  0.5707 -1.8514 -2.3202
   42MOL   H41821000   5.170   0.655   4.425  0.7058 -1.8371  2.7208
   42MOL   H41921001   5.331   0.611   4.376  2.4162  0.2109  0.9441
   42MOL   H42021002   5.409   0.795   4.553 -1.0642  0.3241 -0.4423
   42MOL   H42121003   5.236   0.810   4.586  2.5396  3.0674 -2.3950
   42MOL   H42221004   5.252   0.549   4.623 -0.6943  1.6264 -1.5803
   42MOL   H42321005   5.419   0.568   4.646  0.3863 -0.9715 -1.8471
   42MOL   H42421006   5.279   0.579   4.863 -0.9581  1.1810  2.3250
   42MOL   H42521007   5.396   0.714   4.848 -0.7890  0.7553  0.5517
   42MOL   H42621008   5.229   0.738   4.810 -2.4382 -3.0765  0.0908
   42MOL   C42721009   4.834   0.885   4.214 -0.1131 -0.5479 -0.5160
   42MOL   C42821010   4.861   1.026   4.263  0.2933 -0.3781 -0.9533
   42MOL   O42921011   4.890   1.108   4.154 -0.2926  0.6603 -0.0312
   42MOL   C43021012   4.988   1.198   4.184 -0.7112  0.5775 -0.3505
   42MOL   C43121013   5.013   1.299   4.074 -0.1718  0.5315 -0.3750
   42MOL   C43221014   5.106   1.418   4.112 -0.3435 -0.2061  0.5303
   42MOL   C43321015   5.165   1.499   3.994 -0.0401  0.2746  0.4256
   42MOL   C43421016   5.238   1.628   4.035 -0.2592  0.3024 -0.0502
   42MOL   C43521017   5.248   1.722   3.917  0.5560 -0.3736 -0.4938
   42MOL   H43621018   4.754   0.881   4.140 -0.9374 -1.6493  0.4162
   42MOL   H43721019   4.813   0.811   4.291  0.2473 -2.6045 -2.3217
   42MOL   H43821020   4.944   1.011   4.333  1.7116  0.9349 -2.3054
   42MOL   H43921021   5.087   1.159   4.203 -1.5972 -1.4393  0.1777
   42MOL   H44021022   4.954   1.252   4.272  0.8088  1.5158 -0.3273
   42MOL   H44121023   4.915   1.334   4.041 -0.0699 -0.1070 -1.3957
   42MOL   H44221024   5.060   1.255   3.986  1.5100  1.1444  0.2071
   42MOL   H44321025   5.040   1.475   4.176 -1.3847 -0.1382 -0.5902
   42MOL   H44421026   5.182   1.394   4.186 -2.1730  0.8746  2.8314
   42MOL   H44521027   5.234   1.441   3.933 -1.1672 -1.1373  0.4650
   42MOL   H44621028   5.076   1.528   3.937  1.1773  2.3302 -0.4958
   42MOL   H44721029   5.189   1.685   4.114 -0.8569 -0.7626  0.3513
   42MOL   H44821030   5.329   1.604   4.090 -1.4663 -0.9239  1.4740
   42MOL   H44921031   5.147   1.752   3.887  0.9401  0.5255 -0.9043
   42MOL   H45021032   5.303   1.814   3.940 -0.6473  0.3982 -0.6351
   42MOL   H45121033   5.290   1.677   3.828 -1.9548  1.6536 -2.8109
   42MOL   C45221034   4.744   1.075   4.347  0.7002 -0.5928 -0.7846
   42MOL   C45321035   4.744   1.052   4.499  0.1076  0.0459  0.2159
   42MOL   O45421036   4.734   0.913   4.513 -0.4305 -0.4112 -1.0189
   42MOL   C45521037   4.847   0.856   4.569 -0.8472 -0.7630 -0.3742
   42MOL   C45621038   4.853   0.703   4.589  0.2788  0.0881  0.6258
   42MOL   C45721039   4.753   0.663   4.694 -0.5739  0.2128 -0.1357
   42MOL   C45821040   4.796   0.690   4.836 -0.1678  0.1254  0.0975
   42MOL   C45921041   4.694   0.650   4.942  0.5320 -0.4134  0.0217
   42MOL   C46021042   4.752   0.671   5.085 -0.0119  0.4336  0.1667
   42MOL   H46121043   4.751   1.182   4.332  0.9935 -0.3987  0.6968
   42MOL   H46221044   4.648   1.048   4.303  0.0118 -2.9345  2.0079
   42MOL   H46321045   4.844   1.081   4.533  0.6203 -1.8847  0.4765
   42MOL   H46421046   4.865   0.905   4.664  1.5513  2.7889 -2.5215
   42MOL   H46521047   4.932   0.878   4.504  1.3811 -3.3723  1.5500
   42MOL   H46621048   4.956   0.681   4.618  0.9444  2.4975  0.1762
   42MOL   H46721049   4.838   0.651   4.495  2.8402  2.0276 -0.9156
   42MOL   H46821050   4.656   0.708   4.675 -0.8762  0.0767  1.0263
   42MOL   H46921051   4.728   0.562   4.660  1.7390 -0.7360  0.8778
   42MOL   H47021052   4.880   0.624   4.858 -0.7482 -0.4089  0.7074
   42MOL   H47121053   4.827   0.794   4.845  0.6932 -0.0046 -1.1814
   42MOL   H47221054   4.599   0.704   4.934  0.2178 -1.0315 -0.3818
   42MOL   H47321055   4.670   0.546   4.919 -1.0204 -1.0322  3.9630
   42MOL   H47421056   4.847   0.619   5.091 -0.5029 -0.5907 -0.7061
   42MOL   H47521057   4.768   0.776   5.110 -0.0651  0.0656  1.8026
   42MOL   H47621058   4.682   0.632   5.159 -1.1103  0.5558 -0.7902
   42MOL   C47721059   4.629   1.117   4.569  0.3906  0.1854  0.9001
   42MOL   C47821060   4.626   1.084   4.718 -0.1018  0.0421 -0.2142
   42MOL   O47921061   4.727   1.147   4.789  0.6486  0.1163 -0.5441
   42MOL   C48021062   4.714   1.149   4.929  0.3695  0.1943 -0.0222
   42MOL   C48121063   4.851   1.164   4.991 -0.0438  0.6449  0.0338
   42MOL   C48221064   4.943   1.047   4.974 -0.9419  0.2313 -0.2933
   42MOL   C48321065   5.068   1.053   5.065 -0.3050  0.4229  0.3770
   42MOL   C48421066   5.164   0.932   5.037  0.0530 -0.4008  0.2144
   42MOL   C48521067   5.096   0.797   5.064  0.0079 -0.7974  0.6189
   42MOL   H48621068   4.632   1.226   4.557  0.6407  0.2401  1.4617
   42MOL   H48721069   4.535   1.082   4.526  1.2819 -0.7718 -0.3144
   42MOL   H48821070   4.533   1.117   4.764 -0.2144 -1.4323  0.6476
   42MOL   H48921071   4.671   1.053   4.957  0.8780  0.2622  1.0297
   42MOL   H49021072   4.641   1.224   4.959  0.6410  0.2319  0.5714
   42MOL   H49121073   4.846   1.187   5.097 -2.2835 -0.5682  0.2185
   42MOL   H49221074   4.903   1.252   4.953  2.2880 -0.2199  1.1444
   42MOL   H49321075   4.883   0.958   4.992  0.2981 -0.6275 -0.4029
   42MOL   H49421076   4.973   1.054   4.869 -0.9611  2.2188 -0.1936
   42MOL   H49521077   5.142   1.130   5.043  0.3871 -0.0439  1.0486
   42MOL   H49621078   5.048   1.056   5.172  0.4770  0.3386  0.5301
   42MOL   H49721079   5.200   0.944   4.935  0.6472  0.8029  0.5530
   42MOL   H49821080   5.251   0.942   5.103 -0.8045 -1.0543  1.4713
   42MOL   H49921081   5.000   0.784   5.015 -0.4113 -4.1240  2.2009
   42MOL   H50021082   5.148   0.707   5.032 -1.7950 -1.0643 -1.6881
   42MOL   H50121083   5.061   0.786   5.167  0.9466  0.3169  1.0665
   42MOL   H50221084   4.635   0.976   4.730  0.2491  0.3929  3.1929
   43MOL     C121085   6.635   6.216   6.164 -0.6731 -0.4828  0.0006
   43MOL     C221086   6.543   6.096   6.190 -0.4047 -0.5343 -0.1304
   43MOL     O321087   6.437   6.093   6.091 -0.2568 -0.2198  0.1352
   43MOL     C421088   6.463   6.014   5.976 -0.5508  0.2022  0.3223
   43MOL     C521089   6.381   6.063   5.867  0.2517  0.2879 -0.1749
   43MOL     C621090   6.421   6.198   5.802  0.2663 -0.3876  0.6796
   43MOL     C721091   6.361   6.217   5.660 -0.1877  0.0398 -0.1897
   43MOL     C821092   6.410   6.346   5.595 -0.1795  0.6262 -0.5706
   43MOL     C921093   6.338   6.368   5.459  0.1292  0.1029  0.0882
   43MOL    H1021094   6.707   6.226   6.246 -0.5856  0.7004 -0.2131
   43MOL    H1121095   6.688   6.205   6.070 -1.7980 -0.3008 -0.6596
   43MOL    H1221096   6.603   6.006   6.186 -0.9382 -0.8886 -0.2172
   43MOL    H1321097   6.429   5.912   5.992  3.5687 -1.4149 -0.5215
   43MOL    H1421098   6.568   6.009   5.946  0.2720  0.1315  3.0752
   43MOL    H1521099   6.279   6.064   5.907 -0.3671  2.1075 -1.7336
   43MOL    H1621100   6.390   5.992   5.785  1.2154 -0.5067  0.5973
   43MOL    H1721101   6.376   6.274   5.867 -1.7918 -0.3460 -0.7380
   43MOL    H1821102   6.527   6.223   5.808 -0.0658  1.6727 -1.3733
   43MOL    H1921103   6.377   6.132   5.593  1.4643 -1.4719  2.0319
   43MOL    H2021104   6.254   6.232   5.674 -0.2459 -0.2182 -0.3530
   43MOL    H2121105   6.517   6.339   5.573 -0.5705 -1.4127 -1.9547
   43MOL    H2221106   6.392   6.436   5.654  1.3056  1.8130 -1.8741
   43MOL    H2321107   6.380   6.449   5.399  0.7793 -0.0820  0.2815
   43MOL    H2421108   6.332   6.277   5.398  0.8663  0.8952 -1.1994
   43MOL    H2521109   6.235   6.395   5.480 -0.3448  0.2432 -2.1993
   43MOL    H2621110   6.582   6.310   6.149 -0.7851 -0.7709 -1.4597
   43MOL    C2721111   6.470   6.119   6.325 -0.0030 -0.4037 -0.4210
   43MOL    C2821112   6.417   5.982   6.384 -0.6420 -0.1066 -0.0103
   43MOL    O2921113   6.496   5.955   6.506 -0.1866 -0.5620  0.0213
   43MOL    C3021114   6.615   5.884   6.481  0.0504  0.3014  0.8156
   43MOL    C3121115   6.702   5.875   6.604  0.2219 -0.0354  0.4552
   43MOL    C3221116   6.625   5.795   6.721  0.7972 -0.0916  0.4132
   43MOL    C3321117   6.699   5.810   6.850 -0.6019  0.1656  0.0525
   43MOL    C3421118   6.843   5.754   6.852 -0.8195  0.1234  0.5892
   43MOL    C3521119   6.903   5.736   6.994 -0.0648 -0.5092  0.4248
   43MOL    H3621120   6.521   6.170   6.407 -1.2659 -0.3523  0.3362
   43MOL    H3721121   6.389   6.189   6.307 -1.4037 -1.7978  0.3406
   43MOL    H3821122   6.430   5.901   6.312  0.7348  0.4308 -0.3894
   43MOL    H3921123   6.663   5.940   6.401  2.2123 -0.1084  1.7818
   43MOL    H4021124   6.595   5.785   6.440  0.5222 -0.6513  2.8217
   43MOL    H4121125   6.735   5.972   6.644 -1.3859  0.6168  0.2345
   43MOL    H4221126   6.791   5.818   6.578  0.0244  0.3293 -1.0604
   43MOL    H4321127   6.525   5.833   6.741 -0.3984 -3.1537  0.5491
   43MOL    H4421128   6.622   5.690   6.691 -2.5657  0.4345 -1.4274
   43MOL    H4521129   6.700   5.915   6.879  0.5735  1.2048 -3.4212
   43MOL    H4621130   6.636   5.751   6.917 -1.6884  1.1893 -0.0645
   43MOL    H4721131   6.858   5.659   6.802  2.6732  1.0234 -0.2437
   43MOL    H4821132   6.898   5.820   6.785 -0.5150 -0.5558  0.1686
   43MOL    H4921133   7.007   5.710   7.010  0.1959 -0.5669 -1.2822
   43MOL    H5021134   6.898   5.833   7.045 -4.5316  0.1846 -1.1200
   43MOL    H5121135   6.840   5.662   7.044  1.5487 -0.4420  2.6342
   43MOL    C5221136   6.276   5.988   6.428 -0.4303  0.5091 -0.7155
   43MOL    C5321137   6.168   5.985   6.312  0.1945 -0.4767  0.3800
   43MOL    O5421138   6.134   5.846   6.283  0.0796 -0.2952 -0.3787
   43MOL    C5521139   6.164   5.806   6.153  0.3101 -0.1845  0.1243
   43MOL    C5621140   6.106   5.666   6.141 -0.3698 -0.0842  0.7425
   43MOL    C5721141   5.952   5.643   6.138 -0.3384  0.6478 -0.4394
   43MOL    C5821142   5.932   5.499   6.089 -0.0143  0.3608 -0.0570
   43MOL    C5921143   5.976   5.392   6.173  0.4670 -0.2868 -0.4253
   43MOL    C6021144   5.941   5.253   6.116  0.1433 -0.1154 -0.4352
   43MOL    H6121145   6.271   6.079   6.488  2.5018 -0.0978  0.5216
   43MOL    H6221146   6.253   5.908   6.497 -0.1813 -0.7119 -2.0351
   43MOL    H6321147   6.206   6.042   6.226  1.7819 -5.0210 -2.0777
   43MOL    H6421148   6.265   5.820   6.114  0.4969 -4.8304 -1.3230
   43MOL    H6521149   6.107   5.866   6.082 -2.2009 -3.6323 -0.8870
   43MOL    H6621150   6.147   5.601   6.218  0.2574 -2.2709 -1.3609
   43MOL    H6721151   6.150   5.640   6.045 -0.5474  3.6953 -0.4440
   43MOL    H6821152   5.909   5.654   6.238 -3.5983  0.7529 -1.7762
   43MOL    H6921153   5.910   5.718   6.071 -0.2238  1.8663  0.8291
   43MOL    H7021154   5.828   5.497   6.057  0.6319  1.7367 -2.4044
   43MOL    H7121155   5.984   5.471   5.997 -0.9093  0.6610 -0.6591
   43MOL    H7221156   6.076   5.397   6.216  0.0311  1.8494  0.3974
   43MOL    H7321157   5.928   5.401   6.270  1.3451 -0.2754  0.0148
   43MOL    H7421158   5.929   5.185   6.200  0.2784 -0.2121 -0.4948
   43MOL    H7521159   5.844   5.248   6.067 -1.8233 -0.0960  3.2343
   43MOL    H7621160   6.006   5.208   6.041 -1.0670 -1.6035 -0.6071
   43MOL    C7721161   6.039   6.058   6.345  0.2526 -0.0463  0.1854
   43MOL    C7821162   5.935   6.076   6.230  0.0394 -0.1871 -0.1068
   43MOL    O7921163   5.976   6.190   6.161 -0.2395  0.3874 -0.3376
   43MOL    C8021164   6.009   6.165   6.028  0.5166  0.4111 -0.2691
   43MOL    C8121165   6.072   6.298   5.975 -0.7770 -0.0898  0.0323
   43MOL    C8221166   5.954   6.400   5.934  0.2795 -0.3150  0.0522
   43MOL    C8321167   6.002   6.535   5.886 -0.7312  0.1398  0.0025
   43MOL    C8421168   6.067   6.519   5.747 -0.2631 -0.6687 -0.5208
   43MOL    C8521169   5.961   6.511   5.629  0.4543  0.1111  0.3321
   43MOL    H8621170   6.059   6.161   6.374 -2.3168  0.3501  0.6482
   43MOL    H8721171   5.999   6.006   6.432  0.1796  1.0056  0.7961
   43MOL    H8821172   5.932   5.985   6.170 -0.2010  1.1576 -2.1870
   43MOL    H8921173   5.920   6.134   5.973 -0.1551 -0.2788  1.1747
   43MOL    H9021174   6.085   6.089   6.013 -0.2700 -0.7780  1.5331
   43MOL    H9121175   6.141   6.279   5.893  0.5591 -1.1742  1.3959
   43MOL    H9221176   6.134   6.342   6.054  0.5547 -0.5686 -0.7312
   43MOL    H9321177   5.900   6.344   5.857 -2.4065  0.4944  1.2788
   43MOL    H9421178   5.888   6.419   6.019 -0.0104  0.7844 -0.4130
   43MOL    H9521179   5.921   6.608   5.889 -0.3830  0.6879 -2.4073
   43MOL    H9621180   6.078   6.568   5.955  0.2331 -2.3256  0.1637
   43MOL    H9721181   6.119   6.615   5.737 -0.0674 -0.6483  0.6384
   43MOL    H9821182   6.137   6.436   5.739  0.2503 -0.1735 -1.4438
   43MOL    H9921183   5.896   6.424   5.643 -1.8768  1.4699 -1.7056
   43MOL   H10021184   5.914   6.609   5.622  1.1448  0.2636 -2.7048
   43MOL   H10121185   6.018   6.509   5.537 -1.4427 -0.4305 -0.8539
   43MOL   C10221186   5.796   6.101   6.285  0.1439 -0.3238 -0.0916
   43MOL   C10321187   5.693   6.114   6.172  0.0599 -0.5299 -0.2080
   43MOL   O10421188   5.685   5.987   6.105  0.0777 -0.0850 -0.4035
   43MOL   C10521189   5.614   5.992   5.983  0.0038  0.3943  0.6166
   43MOL   C10621190   5.654   5.875   5.891  0.2148 -0.7079 -0.2839
   43MOL   C10721191   5.609   5.743   5.954 -0.9752  0.6002 -0.0484
   43MOL   C10821192   5.655   5.619   5.870 -0.7651 -0.1249  0.0680
   43MOL   C10921193   5.580   5.489   5.905  0.3113  0.4638 -0.7209
   43MOL   C11021194   5.610   5.368   5.820 -1.0445 -0.0745 -0.2111
   43MOL   H11121195   5.761   6.036   6.365  1.6231  1.2580  1.9011
   43MOL   H11221196   5.808   6.195   6.340 -1.3993  0.5343 -1.1605
   43MOL   H11321197   5.721   6.195   6.105 -1.5508  1.5276  1.5403
   43MOL   H11421198   5.641   6.076   5.919  1.3572 -0.0661  0.5769
   43MOL   H11521199   5.512   5.979   6.020  0.0187  0.3337  0.6344
   43MOL   H11621200   5.760   5.892   5.875  0.1312  0.6355  0.5247
   43MOL   H11721201   5.605   5.870   5.794 -0.6912 -0.1411  0.1395
   43MOL   H11821202   5.640   5.738   6.059  1.4829  0.0586 -0.7626
   43MOL   H11921203   5.502   5.756   5.967 -0.4310  3.9172  1.6351
   43MOL   H12021204   5.644   5.635   5.763  1.6107  1.1964 -0.0178
   43MOL   H12121205   5.763   5.617   5.883 -0.7681  3.0992  1.0020
   43MOL   H12221206   5.599   5.453   6.006  0.8307  1.4307 -0.4679
   43MOL   H12321207   5.471   5.503   5.904  0.5657  2.7749 -0.7376
   43MOL   H12421208   5.703   5.318   5.847 -0.8824 -0.6814 -1.8145
   43MOL   H12521209   5.532   5.292   5.825 -0.5228 -0.4844  2.2597
   43MOL   H12621210   5.618   5.407   5.718 -2.2479 -0.8794 -0.6223
   43MOL   C12721211   5.554   6.155   6.236 -0.0925 -0.4257  0.2997
   43MOL   C12821212   5.541   6.305   6.295  0.2240 -0.2638 -0.6531
   43MOL   O12921213   5.407   6.334   6.333  0.1633 -0.3260  0.0537
   43MOL   C13021214   5.382   6.326   6.468 -0.2248  0.1106 -0.3045
   43MOL   C13121215   5.239   6.378   6.496 -0.1698 -0.0505  0.0927
   43MOL   C13221216   5.124   6.278   6.463  0.5734 -0.7635 -0.1273
   43MOL   C13321217   4.979   6.336   6.478 -0.5786  0.3031  0.2539
   43MOL   C13421218   4.942   6.339   6.624  0.1074  1.0498 -0.1420
   43MOL   C13521219   4.802   6.408   6.638  0.8705  0.7456  0.0005
   43MOL   H13621220   5.473   6.145   6.164 -0.5236  1.8537  0.4403
   43MOL   H13721221   5.530   6.085   6.316  1.7590 -1.7537 -0.2782
   43MOL   H13821222   5.611   6.316   6.378 -3.4273  2.4280  2.2726
   43MOL   H13921223   5.453   6.389   6.523  1.5570 -2.1963  0.1558
   43MOL   H14021224   5.376   6.219   6.486  1.1635 -0.3188 -2.1909
   43MOL   H14121225   5.220   6.476   6.451 -1.3155  0.7015  2.1416
   43MOL   H14221226   5.235   6.388   6.604  2.5919  0.3900  0.1953
   43MOL   H14321227   5.135   6.250   6.358  2.9928 -0.9805  0.1398
   43MOL   H14421228   5.138   6.187   6.520 -1.5070 -1.4834 -0.7513
   43MOL   H14521229   4.966   6.436   6.436  2.1239  0.4217 -0.3919
   43MOL   H14621230   4.906   6.279   6.420 -1.1396  2.4638 -1.2161
   43MOL   H14721231   4.941   6.235   6.657  1.4587  1.7632  2.2445
   43MOL   H14821232   5.016   6.384   6.690  0.9326 -0.0278 -0.3274
   43MOL   H14921233   4.729   6.357   6.576  0.7668 -1.4836  1.8786
   43MOL   H15021234   4.759   6.406   6.739  0.4389 -0.7512 -0.1942
   43MOL   H15121235   4.817   6.513   6.613 -1.5230  0.7031 -1.7497
   43MOL   C15221236   5.571   6.412   6.193 -0.4726  0.0471  0.3235
   43MOL   C15321237   5.600   6.551   6.256  0.5187 -0.4504 -0.5896
   43MOL   O15421238   5.709   6.542   6.335  0.3566 -0.1057  0.1175
   43MOL   C15521239   5.709   6.611   6.460  0.2024 -0.3008  0.1506
   43MOL   C15621240   5.841   6.590   6.526  0.0978 -0.8309 -1.0405
   43MOL   C15721241   5.887   6.446   6.541 -0.3234 -0.1520 -0.0841
   43MOL   C15821242   5.818   6.368   6.657 -0.6724  0.4381 -0.0809
   43MOL   C15921243   5.817   6.221   6.610 -0.9234 -0.5308 -0.0426
   43MOL   C16021244   5.804   6.121   6.727  0.4661  0.0684 -0.5341
   43MOL   H16121245   5.658   6.389   6.133 -0.5539  1.2296 -0.2626
   43MOL   H16221246   5.485   6.415   6.125 -2.2878  1.3478  2.5982
   43MOL   H16321247   5.508   6.580   6.307 -0.0199 -1.8696 -0.7291
   43MOL   H16421248   5.632   6.571   6.526  0.3941 -1.1017 -0.1038
   43MOL   H16521249   5.682   6.714   6.435 -2.3037 -0.5089  1.7692
   43MOL   H16621250   5.841   6.649   6.618 -0.5078 -0.8889 -1.0022
   43MOL   H16721251   5.913   6.651   6.472 -1.8902  0.2346 -2.5246
   43MOL   H16821252   5.884   6.399   6.443 -2.7206  0.7688 -0.4921
   43MOL   H16921253   5.993   6.455   6.564 -0.4431 -0.0181  0.4353
   43MOL   H17021254   5.871   6.384   6.752  1.4034 -1.1207 -0.9387
   43MOL   H17121255   5.725   6.420   6.681 -1.9931 -2.0819  0.3527
   43MOL   H17221256   5.727   6.219   6.549 -2.5679 -0.4268  2.2943
   43MOL   H17321257   5.906   6.196   6.553 -0.1450  1.1433  0.4105
   43MOL   H17421258   5.904   6.114   6.769  1.1179 -0.6377 -2.2072
   43MOL   H17521259   5.736   6.156   6.806  0.9121  1.9664 -0.9720
   43MOL   H17621260   5.768   6.023   6.696 -0.0328 -0.2437  0.9727
   43MOL   C17721261   5.631   6.654   6.147  0.1534 -0.5556 -0.4032
   43MOL   C17821262   5.632   6.804   6.184 -0.7805 -0.1350 -0.1457
   43MOL   O17921263   5.666   6.885   6.073 -0.2764  0.1343 -0.5588
   43MOL   C18021264   5.797   6.876   6.025 -0.0885  0.3720  0.3637
   43MOL   C18121265   5.834   6.998   5.946 -0.4662 -0.3569  0.2175
   43MOL   C18221266   5.864   7.129   6.024  0.3995  0.1683  0.0688
   43MOL   C18321267   5.947   7.246   5.948 -0.1903  0.4535  0.2890
   43MOL   C18421268   5.920   7.382   6.019  0.4970 -0.4430 -1.1191
   43MOL   C18521269   6.021   7.490   5.978  0.1023  0.2455  0.6763
   43MOL   H18621270   5.723   6.625   6.096  1.8370 -0.6711  2.6041
   43MOL   H18721271   5.561   6.641   6.064  0.3863 -0.5144 -0.6066
   43MOL   H18821272   5.705   6.823   6.262 -2.1904  1.2885  0.8732
   43MOL   H18921273   5.821   6.796   5.955 -1.2121 -0.3701  0.8247
   43MOL   H19021274   5.861   6.861   6.112  0.1846  0.9944  0.2743
   43MOL   H19121275   5.757   7.017   5.871  0.4006 -3.1869 -1.4733
   43MOL   H19221276   5.923   6.973   5.890 -1.3033 -0.4874 -1.0677
   43MOL   H19321277   5.772   7.185   6.038  0.1992  0.0372 -0.6984
   43MOL   H19421278   5.903   7.107   6.124 -1.3080 -2.7115  0.1671
   43MOL   H19521279   6.052   7.220   5.942 -0.6720 -1.9755  1.9485
   43MOL   H19621280   5.910   7.248   5.845 -1.2935  2.6006  0.6857
   43MOL   H19721281   5.822   7.418   5.989  0.5756 -0.5485 -1.5007
   43MOL   H19821282   5.913   7.378   6.128  0.7245  1.5914 -1.0079
   43MOL   H19921283   6.032   7.500   5.870 -1.6644  1.3211  0.5776
   43MOL   H20021284   6.000   7.592   6.012 -1.9906 -0.3611  1.2255
   43MOL   H20121285   6.114   7.466   6.030  0.8287 -0.6900 -0.9981
   43MOL   C20221286   5.505   6.858   6.242  0.6489  0.3690  0.1963
   43MOL   C20321287   5.521   6.984   6.321 -0.2204  0.9251 -0.2409
   43MOL   O20421288   5.415   6.976   6.413  0.4983  0.3507 -0.3483
   43MOL   C20521289   5.279   6.993   6.364  0.3293  0.4153  0.3418
   43MOL   C20621290   5.180   6.999   6.482 -0.2925  0.0104 -0.3943
   43MOL   C20721291   5.169   7.144   6.532  0.1536 -0.3927  0.3852
   43MOL   C20821292   5.055   7.159   6.636  0.2486 -0.6734 -0.9645
   43MOL   C20921293   4.915   7.166   6.570  0.2869 -0.2286 -0.0833
   43MOL   C21021294   4.802   7.185   6.674  0.1827  0.7315 -0.4688
   43MOL   H21121295   5.424   6.863   6.168  0.9019  1.0615 -0.0408
   43MOL   H21221296   5.452   6.783   6.301  1.2571  0.3787  0.7572
   43MOL   H21321297   5.609   6.956   6.379  0.4776 -1.4990 -2.3507
   43MOL   H21421298   5.247   6.919   6.291 -0.8644 -0.1378  1.3931
   43MOL   H21521299   5.260   7.084   6.307 -1.1806  0.7275  1.3208
   43MOL   H21621300   5.204   6.924   6.558  0.6052  1.2547  0.5723
   43MOL   H21721301   5.083   6.976   6.439 -0.1774 -0.4624 -0.4047
   43MOL   H21821302   5.260   7.189   6.573 -0.9059  1.7502  0.4821
   43MOL   H21921303   5.139   7.208   6.449  2.9862 -0.6652 -0.9135
   43MOL   H22021304   5.064   7.086   6.716  0.1881  0.3504  0.0040
   43MOL   H22121305   5.061   7.256   6.686 -3.2450 -1.1203  0.4849
   43MOL   H22221306   4.914   7.253   6.504  3.6421 -2.2480 -2.9923
   43MOL   H22321307   4.891   7.079   6.509 -0.9434  0.0516 -0.0105
   43MOL   H22421308   4.800   7.275   6.735  0.6511  0.0002  0.6501
   43MOL   H22521309   4.706   7.165   6.626 -0.5405 -0.8426  1.5371
   43MOL   H22621310   4.815   7.104   6.747 -3.2591  0.2886 -0.2730
   43MOL   C22721311   5.528   7.115   6.245  0.4100 -0.3532  0.2474
   43MOL   C22821312   5.525   7.236   6.339  0.1686 -0.2845 -0.0905
   43MOL   O22921313   5.655   7.229   6.405 -0.3703  0.3471  0.3356
   43MOL   C23021314   5.640   7.245   6.542 -0.9735  0.2655 -0.6311
   43MOL   C23121315   5.776   7.249   6.620 -0.0958  0.0929  0.2957
   43MOL   C23221316   5.841   7.115   6.625 -0.7527  0.4955  1.0869
   43MOL   C23321317   5.956   7.115   6.732  0.3952 -0.7269 -0.1599
   43MOL   C23421318   6.012   6.979   6.760 -0.0747  0.2449  0.1189
   43MOL   C23521319   6.108   6.993   6.873  0.4588  0.3345  0.3826
   43MOL   H23621320   5.617   7.106   6.182  0.5255  1.7755  0.0690
   43MOL   H23721321   5.445   7.116   6.175  0.3881 -2.6835  0.2123
   43MOL   H23821322   5.440   7.232   6.406 -0.6727 -0.7042 -1.1754
   43MOL   H23921323   5.579   7.163   6.579 -0.6710  1.7567  3.4347
   43MOL   H24021324   5.589   7.338   6.567 -1.7650  0.0543 -1.4471
   43MOL   H24121325   5.747   7.279   6.721  2.1919  4.1003 -0.1254
   43MOL   H24221326   5.837   7.332   6.584  1.0604  0.3049  2.6214
   43MOL   H24321327   5.775   7.030   6.641  1.1202 -1.4305 -1.0445
   43MOL   H24421328   5.889   7.107   6.528  0.7237  0.7151  1.7886
   43MOL   H24521329   6.040   7.172   6.693 -0.6792  0.7492 -0.3543
   43MOL   H24621330   5.919   7.157   6.826 -0.9819 -1.2646 -0.4476
   43MOL   H24721331   5.929   6.911   6.779 -0.5499  0.7239 -0.2189
   43MOL   H24821332   6.057   6.946   6.666  2.5977 -0.6872  1.6651
   43MOL   H24921333   6.133   6.893   6.909 -1.5340 -1.2179 -2.3707
   43MOL   H25021334   6.198   7.051   6.853  1.1861 -0.5213  1.1383
   43MOL   H25121335   6.058   7.035   6.960  0.8958 -0.7736  1.1854
   43MOL   C25221336   5.525   7.364   6.251  0.1262  0.1605  0.4089
   43MOL   C25321337   5.500   7.506   6.308  0.3108 -0.1242  0.2205
   43MOL   O25421338   5.619   7.557   6.373 -0.8597  0.4599 -0.3225
   43MOL   C25521339   5.724   7.605   6.291 -0.0503 -0.1888 -0.2092
   43MOL   C25621340   5.838   7.666   6.369 -0.0268 -0.8533 -0.5884
   43MOL   C25721341   5.927   7.766   6.281 -0.6303  0.0936 -0.1351
   43MOL   C25821342   6.059   0.025   6.352  0.1897 -0.1705 -0.1544
   43MOL   C25921343   6.164   7.685   6.354  0.2785  0.7148  0.5564
   43MOL   C26021344   6.298   7.745   6.401  0.1148 -0.4653 -0.5662
   43MOL   H26121345   5.626   7.354   6.212  0.5853  0.8588  1.3850
   43MOL   H26221346   5.453   7.352   6.170  2.6325 -1.3768 -1.6873
   43MOL   H26321347   5.474   7.573   6.226  1.1370  2.4628  2.0365
   43MOL   H26421348   5.677   7.682   6.229  1.8112  0.9351 -0.2741
   43MOL   H26521349   5.764   7.525   6.230 -0.5788 -0.8386  0.2968
   43MOL   H26621350   5.888   7.581   6.417 -0.0407 -1.3180 -1.3902
   43MOL   H26721351   5.804   7.721   6.457  1.9051 -1.5220  0.6233
   43MOL   H26821352   5.963   7.715   6.191  0.8046  1.8372 -0.5663
   43MOL   H26921353   5.877   0.081   6.256  0.6467  1.1574  1.1769
   43MOL   H27021354   6.102   0.116   6.310 -1.5477  0.7474  0.0430
   43MOL   H27121355   6.027   0.059   6.450 -2.4697  0.4849 -1.2183
   43MOL   H27221356   6.122   7.612   6.423 -0.4994  1.2666  0.6785
   43MOL   H27321357   6.177   7.636   6.258 -0.5308  2.1161 -0.3024
   43MOL   H27421358   6.294   0.016   6.498  1.7745  0.5544 -0.9978
   43MOL   H27521359   6.381   7.674   6.399  1.2267  0.6457  2.9650
   43MOL   H27621360   6.329   0.037   6.324 -0.9418 -0.5645 -1.0889
   43MOL   C27721361   5.391   7.505   6.421  0.4353 -0.2747  0.7262
   43MOL   C27821362   5.375   7.640   6.493  0.0141 -0.3043 -0.1895
   43MOL   O27921363   5.341   7.737   6.394 -0.2449  0.0422  0.5131
   43MOL   C28021364   5.359   0.089   6.425 -0.3130 -0.6650 -0.0912
   43MOL   C28121365   5.310   0.175   6.312 -0.7188  0.1976 -0.2303
   43MOL   C28221366   5.376   0.149   6.175  0.2291  0.4304  0.2395
   43MOL   C28321367   5.361   0.256   6.070 -0.2443  0.3191 -0.5212
   43MOL   C28421368   5.440   0.221   5.936 -0.0218  0.3230  0.0834
   43MOL   C28521369   5.432   0.328   5.827  0.0247  0.0269  0.3830
   43MOL   H28621370   5.299   7.461   6.381 -0.1803  0.0121  1.8248
   43MOL   H28721371   5.421   7.437   6.500  3.4360 -1.2455 -1.1644
   43MOL   H28821372   5.467   7.671   6.543 -1.2182  1.1338  1.2376
   43MOL   H28921373   5.467   0.089   6.441  0.2127  3.3965 -2.8827
   43MOL   H29021374   5.308   0.117   6.517 -0.1216 -2.0133  0.4483
   43MOL   H29121375   5.339   0.278   6.333 -1.1304  0.1499  0.5917
   43MOL   H29221376   5.202   0.182   6.322 -0.9243 -0.4329 -1.9168
   43MOL   H29321377   5.481   0.126   6.190  0.3958  1.1819  0.2565
   43MOL   H29421378   5.342   0.056   6.130 -1.4152  0.9500  0.3561
   43MOL   H29521379   5.257   0.277   6.045 -0.5145 -1.0528 -0.6329
   43MOL   H29621380   5.383   0.355   6.110  1.8379  0.2033 -1.3693
   43MOL   H29721381   5.543   0.189   5.947  0.4068  1.5576 -0.2232
   43MOL   H29821382   5.387   0.135   5.895 -0.4368  1.0863 -0.9934
   43MOL   H29921383   5.470   0.299   5.729 -0.4936 -3.4432  1.1211
   43MOL   H30021384   5.331   0.349   5.790  0.7101 -0.2452 -1.7069
   43MOL   H30121385   5.478   0.416   5.872  1.1684 -0.4692  0.1931
   43MOL   C30221386   5.273   7.627   6.614  0.3639  0.5397 -0.5494
   43MOL   C30321387   5.294   7.518   6.718  0.0230  0.3222 -0.0589
   43MOL   O30421388   5.177   7.527   6.800  0.3919  0.0193 -0.4479
   43MOL   C30521389   5.167   7.609   6.916  0.3283  0.0067 -0.6743
   43MOL   C30621390   5.022   7.609   6.976 -0.1733  0.0287  0.3834
   43MOL   C30721391   4.955   7.471   6.983 -0.0739 -0.4158  0.5346
   43MOL   C30821392   4.992   7.400   7.117 -0.1815 -0.1803  0.3652
   43MOL   C30921393   4.924   7.258   7.134  0.3498 -0.1683 -0.2136
   43MOL   C31021394   4.988   7.135   7.062 -0.4776 -0.3509  0.1121
   43MOL   H31121395   5.240   7.720   6.660 -1.8105  0.0160 -1.0059
   43MOL   H31221396   5.183   7.596   6.560 -1.0653 -0.2711  2.1554
   43MOL   H31321397   5.303   7.420   6.671  1.1584  0.6202 -0.4625
   43MOL   H31421398   5.196   7.713   6.901 -0.3825  0.7438  2.7477
   43MOL   H31521399   5.230   7.571   6.996 -1.0826 -0.0252  0.4289
   43MOL   H31621400   4.968   7.675   6.909  0.8607 -0.0165 -0.5088
   43MOL   H31721401   5.032   7.649   7.077  0.8294 -0.5255  0.5104
   43MOL   H31821402   4.847   7.470   6.970  0.0048 -1.0803 -0.1319
   43MOL   H31921403   4.986   7.419   6.892  0.2982  0.1690  0.3208
   43MOL   H32021404   5.098   7.400   7.140 -0.3401 -1.0341  1.1414
   43MOL   H32121405   4.956   7.457   7.203 -0.6239  1.7773 -1.0871
   43MOL   H32221406   4.925   7.235   7.241 -2.9229 -0.2214 -0.1407
   43MOL   H32321407   4.824   7.268   7.091  0.3235 -0.2368 -0.1685
   43MOL   H32421408   4.948   7.040   7.098 -0.1649 -0.7871 -0.6952
   43MOL   H32521409   4.981   7.149   6.954  0.3981  0.4242  0.1514
   43MOL   H32621410   5.094   7.138   7.087 -0.7177  1.8257  1.0377
   43MOL   C32721411   5.423   7.525   6.799  0.3449  0.4666  0.1927
   43MOL   C32821412   5.440   7.408   6.889 -0.4381 -0.5832 -0.4313
   43MOL   O32921413   5.463   7.288   6.813 -0.0094  0.2342 -0.2389
   43MOL   C33021414   5.397   7.175   6.872 -0.0489 -0.2457 -0.7204
   43MOL   C33121415   5.458   7.052   6.806 -0.6039  0.0024 -0.4327
   43MOL   C33221416   5.412   6.924   6.874  0.6276  0.2308  0.0200
   43MOL   C33321417   5.463   6.801   6.802  0.8905  0.0165  0.1008
   43MOL   C33421418   5.391   6.672   6.846  0.3335  0.1591  0.7705
   43MOL   C33521419   5.423   6.555   6.763  0.4840 -0.5095 -0.1878
   43MOL   H33621420   5.407   7.618   6.853 -0.9250  0.9825 -1.0300
   43MOL   H33721421   5.512   7.535   6.736  1.0788 -0.3743  1.0740
   43MOL   H33821422   5.360   7.399   6.962 -1.4526 -1.1323 -1.5932
   43MOL   H33921423   5.289   7.179   6.859  0.0076 -1.9792 -1.8476
   43MOL   H34021424   5.415   7.176   6.979  0.9534 -2.5653 -0.8424
   43MOL   H34121425   5.566   7.062   6.807 -0.7986  2.4724  0.4143
   43MOL   H34221426   5.420   7.054   6.704  1.8283 -0.8158 -1.3909
   43MOL   H34321427   5.431   6.909   6.980  0.0652  0.0733  0.0996
   43MOL   H34421428   5.304   6.916   6.867  0.4958  1.2286  0.7551
   43MOL   H34521429   5.442   6.818   6.696 -2.4549 -1.2335  0.4829
   43MOL   H34621430   5.570   6.810   6.815  0.7499 -1.1674  2.2682
   43MOL   H34721431   5.410   6.653   6.952  0.3641  2.6899  1.2360
   43MOL   H34821432   5.285   6.694   6.837  0.6739  1.6060  0.2098
   43MOL   H34921433   5.387   6.575   6.662  2.1077 -0.2080 -0.7252
   43MOL   H35021434   5.531   6.545   6.760  0.6030  0.4561  0.7132
   43MOL   H35121435   5.377   6.465   6.804 -0.4755  0.8075  1.7006
   43MOL   C35221436   5.582   7.433   6.961 -0.3627  0.0796 -0.5371
   43MOL   C35321437   5.605   7.350   7.091 -0.7439  0.0685 -0.2560
   43MOL   O35421438   5.513   7.399   7.183 -0.5474  0.3637 -0.0969
   43MOL   C35521439   5.427   7.306   7.248 -0.4571  0.1051 -0.6092
   43MOL   C35621440   5.336   7.382   7.343 -0.0133  0.3844  0.8973
   43MOL   C35721441   5.247   7.278   7.421  0.6774  0.3760  0.6189
   43MOL   C35821442   5.122   7.333   7.497 -0.0992 -0.6263  0.8737
   43MOL   C35921443   5.042   7.220   7.558  0.3494  0.0536  0.2549
   43MOL   C36021444   4.920   7.274   7.624  0.8131  0.0811  0.3296
   43MOL   H36121445   5.662   7.402   6.893  1.7424 -2.7124  3.0745
   43MOL   H36221446   5.597   7.540   6.977  1.3352 -0.6598  3.1969
   43MOL   H36321447   5.603   7.245   7.062  1.8384 -0.3463  0.9331
   43MOL   H36421448   5.488   7.226   7.289 -1.3143  0.5567  1.6034
   43MOL   H36521449   5.360   7.250   7.183 -3.0098  1.6331  0.6355
   43MOL   H36621450   5.274   7.447   7.283 -0.4258 -2.2845 -1.7015
   43MOL   H36721451   5.391   7.447   7.411 -2.1107  1.7095  1.3640
   43MOL   H36821452   5.202   7.215   7.345  3.5891 -1.1955  0.1725
   43MOL   H36921453   5.311   7.222   7.488  1.9131 -2.5475 -2.8438
   43MOL   H37021454   5.149   7.412   7.568  0.5018  0.7639 -0.8636
   43MOL   H37121455   5.058   7.381   7.423  0.0389 -0.5288  0.8170
   43MOL   H37221456   5.006   7.155   7.477  0.3130  1.5555 -0.9572
   43MOL   H37321457   5.113   7.173   7.626  1.5806  1.3670 -0.1006
   43MOL   H37421458   4.836   7.270   7.554  0.8352 -2.5040  0.3956
   43MOL   H37521459   4.888   7.204   7.701  1.9975 -0.5092  0.2969
   43MOL   H37621460   4.925   7.373   7.668 -1.3605  0.7065 -0.8038
   43MOL   C37721461   5.747   7.382   7.142 -0.0956  0.2392  0.0364
   43MOL   C37821462   5.787   7.307   7.266 -0.4110  0.6826 -0.2263
   43MOL   O37921463   5.723   7.181   7.265 -0.2108  0.8330 -0.0216
   43MOL   C38021464   5.790   7.068   7.218  0.0201  0.0389 -0.2960
   43MOL   C38121465   5.695   6.953   7.196 -0.0667  0.6033  0.2410
   43MOL   C38221466   5.759   6.812   7.201 -0.2688 -0.3138 -0.3040
   43MOL   C38321467   5.672   6.691   7.170  0.3076  0.2128  0.5211
   43MOL   C38421468   5.752   6.565   7.165  0.3721  0.7293  0.2337
   43MOL   C38521469   5.651   6.447   7.155  0.6554  0.3003 -0.3437
   43MOL   H38621470   5.817   7.354   7.064  2.1272 -2.0433  2.7620
   43MOL   H38721471   5.753   7.488   7.166 -1.0061  0.4188 -0.4897
   43MOL   H38821472   5.896   7.297   7.271 -0.4430  0.2410 -0.4353
   43MOL   H38921473   5.858   7.052   7.302 -0.3500 -1.1126 -0.1991
   43MOL   H39021474   5.849   7.101   7.133  2.1797  3.3035  2.3205
   43MOL   H39121475   5.638   6.979   7.106 -1.2234  0.9774  1.0686
   43MOL   H39221476   5.615   6.946   7.270  1.1019  1.2214  1.5964
   43MOL   H39321477   5.837   6.800   7.125 -1.2412  0.7697 -1.5068
   43MOL   H39421478   5.790   6.801   7.304 -1.2160  1.4173  0.1875
   43MOL   H39521479   5.587   6.679   7.238 -2.3755  0.2599 -2.7333
   43MOL   H39621480   5.624   6.687   7.073  0.3427 -2.4791  0.5669
   43MOL   H39721481   5.812   6.554   7.075 -1.0523  2.0731 -0.9032
   43MOL   H39821482   5.819   6.536   7.246  0.3944 -0.3008 -0.1395
   43MOL   H39921483   5.695   6.353   7.121 -0.1914 -0.3525  0.3295
   43MOL   H40021484   5.595   6.441   7.248 -0.3571  0.6800 -0.9161
   43MOL   H40121485   5.576   6.462   7.077 -0.1467  0.2244  0.3972
   43MOL   C40221486   5.754   7.383   7.397 -0.5882 -0.4736 -0.2867
   43MOL   C40321487   5.791   7.307   7.525 -0.0252  0.9462 -1.0125
   43MOL   O40421488   5.696   7.350   7.622  0.1148  0.0848 -0.3807
   43MOL   C40521489   5.567   7.285   7.632  0.1824  0.2379  0.3256
   43MOL   C40621490   5.506   7.338   7.755 -0.3941  0.4437 -0.4746
   43MOL   C40721491   5.567   7.283   0.114  0.3815  0.5280  0.2670
   43MOL   C40821492   5.518   7.354   0.243 -0.3845  0.8895 -0.2799
   43MOL   C40921493   5.599   7.310   0.364  0.0714 -0.1978 -0.4135
   43MOL   C41021494   5.737   7.382   0.360 -0.0364  0.1478  0.0164
   43MOL   H41121495   5.648   7.409   7.395 -0.8923 -1.6356  0.3929
   43MOL   H41221496   5.809   7.475   7.414 -1.2162 -0.4137  1.5619
   43MOL   H41321497   5.778   7.200   7.510  0.1578  0.8561 -0.5335
   43MOL   H41421498   5.579   7.179   7.656  1.7406  0.2926 -0.1229
   43MOL   H41521499   5.506   7.297   7.543 -0.2667  1.4839  0.7817
   43MOL   H41621500   5.401   7.309   7.762 -0.6571  0.5511 -3.3177
   43MOL   H41721501   5.519   7.445   7.738  0.1245  0.2430 -1.3910
   43MOL   H41821502   5.546   7.177   0.130  1.0202  0.6811  2.2264
   43MOL   H41921503   5.676   7.279   0.120  0.3976  1.2983  0.5239
   43MOL   H42021504   5.528   7.462   0.232  1.6163  0.8992  1.3176
   43MOL   H42121505   5.412   7.344   0.268  0.0817 -0.9394  1.0399
   43MOL   H42221506   5.549   7.339   0.456 -1.3508 -1.7456 -0.6778
   43MOL   H42321507   5.600   7.201   0.361 -1.9888 -0.2064 -1.0936
   43MOL   H42421508   5.783   7.357   0.456  0.5690 -0.3874 -0.4097
   43MOL   H42521509   5.816   7.360   0.288  0.4512 -0.7251  0.8149
   43MOL   H42621510   5.729   7.491   0.362  0.3673  0.2937 -3.3949
   43MOL   C42721511   5.939   7.323   7.577  0.2205  0.0806 -0.4214
   43MOL   C42821512   5.973   7.232   7.704  0.3774 -0.6212  0.4922
   43MOL   O42921513   5.991   7.098   7.645  0.0590 -0.4495  0.0028
   43MOL   C43021514   5.892   6.999   7.684 -0.2742  0.6812 -0.0025
   43MOL   C43121515   5.954   6.857   7.655  1.0015 -0.9610 -0.6664
   43MOL   C43221516   5.845   6.743   7.657 -0.2015  0.6718 -0.2089
   43MOL   C43321517   5.891   6.617   7.593 -0.2332 -0.3773 -0.3733
   43MOL   C43421518   5.803   6.496   7.628 -0.4008 -0.4084  0.1185
   43MOL   C43521519   5.685   6.476   7.533  0.4209 -0.0095 -0.2483
   43MOL   H43621520   6.003   7.303   7.491  1.1010 -0.9224  0.4523
   43MOL   H43721521   5.947   7.429   7.601 -0.9943 -0.1534  1.1385
   43MOL   H43821522   5.897   7.231   0.004 -0.6565 -0.5563 -0.4995
   43MOL   H43921523   5.794   7.004   7.636 -1.1836  1.2806  1.8272
   43MOL   H44021524   5.872   7.004   0.013 -1.2396 -0.0819 -0.1402
   43MOL   H44121525   6.042   6.835   7.716  0.7640 -2.6891 -0.9255
   43MOL   H44221526   5.990   6.860   7.553 -1.0999 -1.7208 -1.4551
   43MOL   H44321527   5.825   6.710   7.759  2.0947  0.6693  0.2759
   43MOL   H44421528   5.756   6.790   7.618 -1.4087  0.3576  2.0600
   43MOL   H44521529   5.908   6.605   7.486  1.4537  1.2953 -0.3232
   43MOL   H44621530   5.992   6.595   7.629 -0.1787  0.6479  0.1260
   43MOL   H44721531   5.875   6.416   7.620  1.2204  1.1161 -0.9159
   43MOL   H44821532   5.759   6.492   7.728  1.5389  2.2386  1.1391
   43MOL   H44921533   5.610   6.409   7.575  0.7003  0.2256  0.6381
   43MOL   H45021534   5.631   6.570   7.521  2.4872  1.2637  0.2668
   43MOL   H45121535   5.723   6.440   7.438 -0.4201 -3.1512  0.5535
   43MOL   C45221536   6.109   7.266   7.764 -0.9480 -0.0196  0.0739
   43MOL   C45321537   6.151   7.157   0.088  0.3854 -0.4074 -0.2755
   43MOL   O45421538   6.067   7.165   0.210  0.1545 -0.0175  0.0262
   43MOL   C45521539   6.029   7.045   0.273 -0.1387  0.1654 -0.1322
   43MOL   C45621540   5.977   7.069   0.415  0.1674 -0.7737  0.9284
   43MOL   C45721541   5.898   6.964   0.481  0.2265  0.0080  0.2466
   43MOL   C45821542   5.808   7.013   0.599  0.0082  0.9240  0.1300
   43MOL   C45921543   5.737   6.895   0.669 -0.4355 -0.2262  0.1067
   43MOL   C46021544   5.635   6.939   0.777  0.0726  0.0899 -0.1039
   43MOL   H46121545   6.188   7.272   7.689 -0.0637 -2.0943  0.8114
   43MOL   H46221546   6.104   7.361   0.039  2.6313  0.5006 -0.3735
   43MOL   H46321547   6.134   7.058   0.047 -0.1286 -0.3734 -0.1375
   43MOL   H46421548   6.108   6.970   0.282 -2.2626 -2.1845 -0.5922
   43MOL   H46521549   5.960   6.997   0.205 -0.1516  0.2934 -0.2090
   43MOL   H46621550   5.908   7.151   0.399 -0.1766 -1.2974 -0.3590
   43MOL   H46721551   6.050   7.108   0.486 -1.1075  0.9526  1.3004
   43MOL   H46821552   5.829   6.920   0.409  1.9208 -1.8456 -0.2716
   43MOL   H46921553   5.973   6.892   0.513  1.5312  0.5351 -1.5438
   43MOL   H47021554   5.867   7.079   0.663  2.1030  0.9054 -1.7604
   43MOL   H47121555   5.729   7.083   0.570 -0.6434  0.2585  0.2579
   43MOL   H47221556   5.687   6.839   0.590 -0.5157  0.3911 -0.2820
   43MOL   H47321557   5.813   6.834   0.719 -1.0951 -1.0389  0.1166
   43MOL   H47421558   5.669   7.005   0.856  0.0236 -1.7620  1.5077
   43MOL   H47521559   5.548   6.991   0.735 -1.4255 -1.4245  1.0221
   43MOL   H47621560   5.586   6.851   0.819 -1.2842  1.8538  2.0993
   43MOL   C47721561   6.298   7.146   0.124 -0.5099  0.0055  0.1204
   43MOL   C47821562   6.380   7.041   0.047  0.5885  0.0294  0.8350
   43MOL   O47921563   6.323   6.911   0.079 -0.3699 -0.3297  0.7086
   43MOL   C48021564   6.360   6.800   7.774  0.0101  0.0383 -0.3183
   43MOL   C48121565   6.284   6.673   0.053 -0.0717  0.3089 -0.7542
   43MOL   C48221566   6.275   6.563   7.726  0.3381 -0.2489 -0.0872
   43MOL   C48321567   6.193   6.434   7.776 -0.3236 -0.7877  0.2675
   43MOL   C48421568   6.176   6.326   7.669  0.5929 -0.1391 -0.1997
   43MOL   C48521569   6.108   6.197   7.719 -0.3057 -0.3795 -0.3712
   43MOL   H48621570   6.343   7.242   0.099 -1.2933  0.1697 -0.7035
   43MOL   H48721571   6.311   7.128   0.231  1.4144 -1.5025 -0.3328
   43MOL   H48821572   6.373   7.051   7.717  1.6381  0.2357  0.7886
   43MOL   H48921573   6.467   6.784   0.007 -0.4096 -1.2771  2.2994
   43MOL   H49021574   6.326   6.814   7.671 -1.9632  0.0619  0.3094
   43MOL   H49121575   6.185   6.707   0.083  0.2566 -0.1672  0.9097
   43MOL   H49221576   6.328   6.636   0.145 -4.0661  1.5715  1.8146
   43MOL   H49321577   6.232   6.597   7.632 -0.4586 -1.9749 -0.3811
   43MOL   H49421578   6.375   6.530   7.697  0.8730  2.4993 -1.4921
   43MOL   H49521579   6.254   6.386   0.074  0.9069 -2.9089 -1.9407
   43MOL   H49621580   6.102   6.466   0.048 -0.4822 -2.4618  1.0824
   43MOL   H49721581   6.131   6.368   7.580 -2.6390  1.1653  1.9591
   43MOL   H49821582   6.277   6.301   7.636  0.5400 -0.8532  0.1733
   43MOL   H49921583   6.104   6.184   0.049  1.1648  1.5185 -0.0743
   43MOL   H50021584   6.001   6.213   7.703 -0.1095  1.6359  0.2114
   43MOL   H50121585   6.135   6.106   7.665 -1.3308 -1.4116  0.8021
   43MOL   H50221586   6.481   7.044   0.087  1.6546 -0.0290 -1.7900
   44MOL     C121587   5.510   1.085   2.395 -0.2371  0.1783  0.3765
   44MOL     C221588   5.562   1.155   2.265  0.1657  0.5268  0.3068
   44MOL     O321589   5.490   1.278   2.254 -0.3831 -0.1617 -0.4071
   44MOL     C421590   5.523   1.369   2.364 -0.2455 -0.8271 -0.2627
   44MOL     C521591   5.460   1.500   2.327 -0.8565  0.0591 -0.5315
   44MOL     C621592   5.501   1.560   2.191  0.7325 -0.6100  0.9563
   44MOL     C721593   5.421   1.692   2.147 -0.7468 -0.0624  0.4126
   44MOL     C821594   5.272   1.665   2.108  0.1801  0.4470 -0.0535
   44MOL     C921595   5.209   1.790   2.042 -0.1467 -0.1602 -0.4468
   44MOL    H1021596   5.567   0.992   2.399 -3.4709 -1.8892  0.1495
   44MOL    H1121597   5.522   1.151   2.481 -0.0702  1.3142 -0.5122
   44MOL    H1221598   5.670   1.172   2.268  0.2559  1.0067 -3.4521
   44MOL    H1321599   5.630   1.387   2.372 -0.5569  1.5394 -1.0894
   44MOL    H1421600   5.478   1.340   2.459  0.1692  0.0998  0.2196
   44MOL    H1521601   5.488   1.566   2.410  1.1973  0.4634 -1.5012
   44MOL    H1621602   5.354   1.479   2.321 -1.3938  1.9937  1.7446
   44MOL    H1721603   5.607   1.586   2.197  0.3876  1.3557 -0.9321
   44MOL    H1821604   5.487   1.504   2.098 -0.6247  0.8004  0.2955
   44MOL    H1921605   5.427   1.762   2.230 -0.0830  1.0662 -0.5634
   44MOL    H2021606   5.479   1.742   2.069 -0.1822 -0.6270  0.4759
   44MOL    H2121607   5.214   1.618   2.187  0.6081  0.8740  0.5175
   44MOL    H2221608   5.268   1.596   2.024 -1.0717 -0.8198  1.0150
   44MOL    H2321609   5.110   1.769   2.002 -0.6171 -2.0733  1.6581
   44MOL    H2421610   5.201   1.869   2.116 -0.6873 -0.4375 -0.2049
   44MOL    H2521611   5.271   1.829   1.962  0.7166 -2.6314 -1.0402
   44MOL    H2621612   5.404   1.060   2.392 -0.2975  0.0491  2.4217
   44MOL    C2721613   5.524   1.070   2.140 -0.3129  0.0435 -0.2706
   44MOL    C2821614   5.594   1.131   2.015 -0.1930 -0.0391 -0.9337
   44MOL    O2921615   5.731   1.125   2.033  0.3641 -0.4698 -0.5044
   44MOL    C3021616   5.808   1.225   1.964 -0.0592  0.2622  0.3263
   44MOL    C3121617   5.950   1.195   2.011  0.5162 -0.5120  0.0998
   44MOL    C3221618   6.060   1.300   1.981 -0.1255  0.4039  0.4652
   44MOL    C3321619   6.184   1.245   2.058 -0.2775  0.1379  0.2413
   44MOL    C3421620   6.304   1.340   2.033 -0.1222  0.5179  0.0679
   44MOL    C3521621   6.440   1.294   2.103 -0.3100 -0.1445  0.4646
   44MOL    H3621622   5.544   0.964   2.159  1.0362  0.4797  0.9144
   44MOL    H3721623   5.418   1.068   2.115 -0.2420  0.7332 -0.6304
   44MOL    H3821624   5.562   1.235   2.013  2.6667  0.8879 -0.3296
   44MOL    H3921625   5.781   1.324   2.002  1.3232  0.4911  0.7231
   44MOL    H4021626   5.784   1.217   1.858 -1.8977 -1.5922  0.8482
   44MOL    H4121627   5.971   1.097   1.968 -0.7164 -1.1578  0.9493
   44MOL    H4221628   5.950   1.197   2.120 -1.3269  0.5006  0.1045
   44MOL    H4321629   6.064   1.299   1.872  1.4462  1.9690  0.4902
   44MOL    H4421630   6.033   1.402   2.007 -1.6583  0.5655 -1.7015
   44MOL    H4521631   6.159   1.239   2.164  1.2313 -1.8791  0.5118
   44MOL    H4621632   6.207   1.144   2.025  2.7900  0.5123  0.9973
   44MOL    H4721633   6.316   1.344   1.924 -0.1006 -1.7387 -0.0351
   44MOL    H4821634   6.276   1.436   2.077  0.1379  0.3603  0.5796
   44MOL    H4921635   6.480   1.224   2.029  2.9937  0.2832  1.7633
   44MOL    H5021636   6.511   1.377   2.107 -0.2190 -0.0723 -1.6665
   44MOL    H5121637   6.429   1.247   2.200  0.7485 -1.5106 -0.0545
   44MOL    C5221638   5.551   1.058   1.897 -0.0875  0.5290 -0.5749
   44MOL    C5321639   5.458   1.147   1.813 -0.1780 -0.1711 -0.5686
   44MOL    O5421640   5.533   1.261   1.776 -0.3215 -0.1281 -0.1322
   44MOL    C5521641   5.462   1.388   1.769 -0.6970 -0.1247  0.0276
   44MOL    C5621642   5.539   1.488   1.694 -0.4137  0.0346  0.2283
   44MOL    C5721643   5.465   1.623   1.688 -0.2242  0.2460 -0.1731
   44MOL    C5821644   5.547   1.734   1.626 -0.2002  0.1287 -0.3708
   44MOL    C5921645   5.454   1.849   1.591  0.7814  0.8169  0.3597
   44MOL    C6021646   5.537   1.966   1.519  0.3950  0.5158  0.4134
   44MOL    H6121647   5.499   0.967   1.926 -1.1554  1.4262  0.3181
   44MOL    H6221648   5.638   1.015   1.845 -0.2297 -0.4050 -0.0549
   44MOL    H6321649   5.372   1.182   1.870 -1.2495 -2.6141 -0.6493
   44MOL    H6421650   5.435   1.426   1.867 -1.2788 -1.5603  0.4278
   44MOL    H6521651   5.364   1.375   1.722  0.2944 -0.4405 -2.0008
   44MOL    H6621652   5.560   1.444   1.596  0.9024  0.4157  0.3344
   44MOL    H6721653   5.630   1.511   1.749 -1.1674  0.6477  1.2175
   44MOL    H6821654   5.379   1.608   1.623  0.1997 -0.0316 -0.6705
   44MOL    H6921655   5.435   1.660   1.786 -2.0694  1.5596 -1.1995
   44MOL    H7021656   5.620   1.759   1.703 -0.6496 -1.4561  0.5707
   44MOL    H7121657   5.604   1.694   1.543  1.0184 -0.2395  0.6432
   44MOL    H7221658   5.377   1.812   1.523  1.0026 -1.3373  1.2491
   44MOL    H7321659   5.400   1.887   1.678  1.4162  1.4174  0.4934
   44MOL    H7421660   5.586   2.010   1.606  0.2348  0.6395  0.4397
   44MOL    H7521661   5.614   1.927   1.452 -1.4051 -1.3681 -0.6100
   44MOL    H7621662   5.471   2.039   1.472 -0.5439  0.4592  1.6350
   44MOL    C7721663   5.406   1.092   1.684 -0.1780  0.1372 -0.6016
   44MOL    C7821664   5.269   1.029   1.691 -0.2038 -0.5220 -0.4493
   44MOL    O7921665   5.266   0.932   1.795  0.2243  0.4685  0.6549
   44MOL    C8021666   5.144   0.917   1.870 -0.1249 -0.0662  0.1665
   44MOL    C8121667   5.160   0.834   1.993 -0.4244 -0.6502  0.2634
   44MOL    C8221668   5.164   0.687   1.962  0.2734 -0.5822 -0.3675
   44MOL    C8321669   5.165   0.610   2.094  0.0341  1.2005 -0.8238
   44MOL    C8421670   5.202   0.464   2.069  0.2180 -0.4074 -0.4193
   44MOL    C8521671   5.079   0.383   2.024 -0.3881  0.4336  0.5021
   44MOL    H8621672   5.478   1.026   1.637 -0.5790 -0.5194 -0.2880
   44MOL    H8721673   5.392   1.173   1.612 -1.7726  1.7628  1.4680
   44MOL    H8821674   5.188   1.096   1.720 -0.4061 -1.4299  1.1494
   44MOL    H8921675   5.063   0.877   1.808 -0.4691  0.6850  0.1216
   44MOL    H9021676   5.119   1.021   1.892  1.7983  0.7355 -1.3006
   44MOL    H9121677   5.070   0.858   2.050 -1.0574  1.2419 -1.4722
   44MOL    H9221678   5.241   0.875   2.053 -0.3131  3.0086 -2.2136
   44MOL    H9321679   5.071   0.661   1.912  0.1201  1.6471 -1.3339
   44MOL    H9421680   5.250   0.660   1.901  1.1522 -1.0456  1.0576
   44MOL    H9521681   5.230   0.654   2.169 -0.0206 -0.4149  0.1913
   44MOL    H9621682   5.064   0.605   2.136  0.7804 -1.3442  0.7331
   44MOL    H9721683   5.285   0.444   2.001  0.9829 -3.3418  1.2674
   44MOL    H9821684   5.231   0.417   2.163 -0.4499  0.1343  0.0640
   44MOL    H9921685   5.025   0.430   1.942  0.2770 -1.2672 -0.9448
   44MOL   H10021686   5.101   0.283   1.988  0.6766  1.4455 -1.6931
   44MOL   H10121687   5.017   0.373   2.114 -1.4183  1.6085 -0.0768
   44MOL   C10221688   5.231   0.952   1.564  0.5629 -0.0721 -0.4371
   44MOL   C10321689   5.219   1.041   1.434  0.0151  0.8629 -0.4910
   44MOL   O10421690   5.201   0.949   1.326  0.0276  0.3603  0.0170
   44MOL   C10521691   5.306   0.946   1.224 -0.0691  0.2690 -0.2992
   44MOL   C10621692   5.294   0.837   1.122  0.2583  0.9226 -0.5484
   44MOL   C10721693   5.157   0.836   1.046  0.4342  0.1704  0.5478
   44MOL   C10821694   5.122   0.714   0.956 -0.1505  0.3034 -0.1445
   44MOL   C10921695   5.054   0.595   1.044 -0.6903 -0.3207  0.4283
   44MOL   C11021696   5.003   0.474   0.959 -0.7389 -0.5489 -0.0639
   44MOL   H11121697   5.304   0.873   1.550  2.3515  1.6174 -0.8805
   44MOL   H11221698   5.143   0.890   1.582  0.9112 -0.7461 -1.0637
   44MOL   H11321699   5.306   1.107   1.424  1.4930 -0.8104  0.8081
   44MOL   H11421700   5.394   0.926   1.285  0.0997  0.4055 -0.4967
   44MOL   H11521701   5.324   1.041   1.173  2.4850 -0.7425 -1.3890
   44MOL   H11621702   5.322   0.741   1.165 -2.0620  0.2280 -0.5352
   44MOL   H11721703   5.379   0.854   1.055  1.2568  1.7820  0.9014
   44MOL   H11821704   5.071   0.853   1.111 -0.8361  0.5885 -1.1724
   44MOL   H11921705   5.164   0.923   0.980 -0.3215 -1.5674 -1.9290
   44MOL   H12021706   5.063   0.741   0.869  2.4144  0.7994 -1.7824
   44MOL   H12121707   5.210   0.673   0.907 -1.5948 -1.0413 -1.7045
   44MOL   H12221708   5.131   0.560   1.113  1.4710 -1.0672 -2.2693
   44MOL   H12321709   4.971   0.626   1.108  0.7705 -2.0275  3.2619
   44MOL   H12421710   5.079   0.422   0.901  1.5861  1.0126  1.4692
   44MOL   H12521711   4.953   0.402   1.024 -0.3900  0.4749  1.3609
   44MOL   H12621712   4.938   0.506   0.878 -1.0839 -0.2583  0.3235
   44MOL   C12721713   5.091   1.126   1.430 -0.3400  0.4267 -0.1888
   44MOL   C12821714   5.100   1.248   1.335 -0.9832  0.4864 -0.0070
   44MOL   O12921715   5.209   1.329   1.375 -0.3858 -0.4689  0.1002
   44MOL   C13021716   5.277   1.381   1.257 -0.0230 -0.6233 -0.1529
   44MOL   C13121717   5.388   1.474   1.299  0.1244  0.0648 -0.3777
   44MOL   C13221718   5.489   1.523   1.188  0.9516 -0.0677  0.1860
   44MOL   C13321719   5.586   1.628   1.234 -0.7593 -0.1911  0.1382
   44MOL   C13421720   5.693   1.682   1.132 -0.3113  0.6344 -0.0128
   44MOL   C13521721   5.799   1.774   1.194 -0.2756 -0.6075  0.5492
   44MOL   H13621722   5.010   1.058   1.404 -1.4038  1.5761  0.1108
   44MOL   H13721723   5.065   1.149   1.534 -1.3156 -0.2202 -0.2866
   44MOL   H13821724   5.110   1.212   1.233  1.7261 -2.6205  1.2659
   44MOL   H13921725   5.203   1.433   1.197  0.1090  1.2959  1.2912
   44MOL   H14021726   5.318   1.292   1.209 -1.0528 -0.7064 -0.8820
   44MOL   H14121727   5.460   1.422   1.362  0.0526 -0.9254 -1.1062
   44MOL   H14221728   5.350   1.559   1.356 -1.3715 -1.2948  0.6946
   44MOL   H14321729   5.552   1.438   1.163  0.4703 -0.5042  0.4566
   44MOL   H14421730   5.435   1.544   1.095 -0.1285 -1.4395  0.4943
   44MOL   H14521731   5.537   1.714   1.278 -0.7486 -1.4019  2.6219
   44MOL   H14621732   5.645   1.597   1.321 -0.4725 -0.7806 -0.2622
   44MOL   H14721733   5.735   1.594   1.084  0.5570  1.2595 -0.4055
   44MOL   H14821734   5.641   1.741   1.057 -1.5968 -0.5247 -0.0719
   44MOL   H14921735   5.880   1.794   1.124  0.4285  0.5047  1.6717
   44MOL   H15021736   5.770   1.876   1.218  0.6142 -0.0585 -0.7230
   44MOL   H15121737   5.844   1.723   1.279 -1.4572 -0.4041  1.3189
   44MOL   C15221738   4.977   1.343   1.351  0.0894 -0.2488  0.9827
   44MOL   C15321739   4.867   1.303   1.254  0.4700  0.7064 -0.2541
   44MOL   O15421740   4.809   1.187   1.297  0.3549  0.2478  0.2180
   44MOL   C15521741   4.804   1.088   1.198 -0.4198  0.0085  0.2832
   44MOL   C15621742   4.722   0.970   1.254  0.1505  0.0250  0.4165
   44MOL   C15721743   4.735   0.851   1.157 -0.2533 -0.3441 -0.1117
   44MOL   C15821744   4.648   0.736   1.207  0.8197  0.1105 -0.2780
   44MOL   C15921745   4.657   0.613   1.114 -0.3573  0.4790  0.6967
   44MOL   C16021746   4.551   0.515   1.140  0.2650  0.5512 -0.1768
   44MOL   H16121747   4.949   1.332   1.456 -1.5161  0.1949  0.6198
   44MOL   H16221748   5.009   1.444   1.328  0.7272 -0.5301  0.6105
   44MOL   H16321749   4.903   1.294   1.152 -0.3855  0.6839 -0.5587
   44MOL   H16421750   4.908   1.055   1.195 -0.5906 -0.5391  0.2593
   44MOL   H16521751   4.760   1.119   1.103 -1.5567 -0.6961  0.5710
   44MOL   H16621752   4.618   1.001   1.264  1.3777  3.9438  2.2986
   44MOL   H16721753   4.743   0.949   1.359  1.9587 -0.4525 -0.0288
   44MOL   H16821754   4.715   0.882   1.055  0.0595  0.0098 -0.0668
   44MOL   H16921755   4.839   0.817   1.164 -0.6157 -1.2857  0.8125
   44MOL   H17021756   4.669   0.708   1.310 -1.0628  0.5942  0.2600
   44MOL   H17121757   4.545   0.771   1.201  0.6237 -0.2119  0.9589
   44MOL   H17221758   4.637   0.643   1.011 -0.4125 -1.8994 -0.0024
   44MOL   H17321759   4.754   0.562   1.116  0.9880  2.8961 -0.5772
   44MOL   H17421760   4.574   0.429   1.079 -1.7028 -0.1391  0.0180
   44MOL   H17521761   4.559   0.487   1.245  2.3057 -0.6835 -0.6434
   44MOL   H17621762   4.450   0.554   1.128 -1.0106 -2.4734  0.4204
   44MOL   C17721763   4.760   1.404   1.266  1.3299 -0.6677  0.1054
   44MOL   C17821764   4.635   1.377   1.175 -2.0431  0.4022 -0.3423
   44MOL   O17921765   4.529   1.470   1.200 -0.2796 -0.3144 -0.0972
   44MOL   C18021766   4.446   1.438   1.310 -0.6622  0.0432 -0.0519
   44MOL   C18121767   4.320   1.354   1.275 -1.2649  0.4773 -1.5515
   44MOL   C18221768   4.304   1.215   1.338  0.0070 -0.9029 -0.3957
   44MOL   C18321769   4.182   1.137   1.296 -0.0304 -0.4896  0.3626
   44MOL   C18421770   4.173   0.998   1.347  0.1722 -1.0641  0.7083
   44MOL   C18521771   4.057   0.928   1.284  0.0143 -0.4809 -0.1372
   44MOL   H18621772   4.726   1.417   1.368 -0.6639  0.0398 -0.6298
   44MOL   H18721773   4.796   1.500   1.229 -3.4834  1.6777  1.0447
   44MOL   H18821774   4.599   1.276   1.195  0.2897 -0.7732 -1.9007
   44MOL   H18921775   4.418   1.533   1.355 -0.0380 -0.4031  1.3022
   44MOL   H19021776   4.497   1.389   1.393 -1.5440  0.2142  0.5964
   44MOL   H19121777   4.326   1.338   1.168 -0.6320 -3.7851 -0.9532
   44MOL   H19221778   4.227   1.406   1.296 -0.0338  1.7359  1.1102
   44MOL   H19321779   4.384   1.152   1.299  0.9768 -0.5768  1.0188
   44MOL   H19421780   4.312   1.222   1.447  0.4040 -2.9488 -0.2687
   44MOL   H19521781   4.094   1.181   1.345 -0.6134 -0.7920 -0.4059
   44MOL   H19621782   4.171   1.149   1.188  2.6755 -0.4534  0.0656
   44MOL   H19721783   4.258   0.930   1.342  0.8955 -0.3444  2.5285
   44MOL   H19821784   4.151   1.008   1.454 -2.3425 -0.0553  0.1337
   44MOL   H19921785   4.041   0.832   1.333 -0.4528 -0.1411  0.3740
   44MOL   H20021786   3.965   0.986   1.295  0.5307  0.4958 -0.8378
   44MOL   H20121787   4.079   0.911   1.178 -0.0877  2.3547 -0.6659
   44MOL   C20221788   4.664   1.392   1.023  0.4459  0.9767  0.1608
   44MOL   C20321789   4.547   1.339   0.930 -0.6018 -1.2499 -1.0072
   44MOL   O20421790   4.536   1.209   0.970  0.2288 -0.2723  0.1129
   44MOL   C20521791   4.418   1.141   0.922  0.0220 -0.1815 -0.4410
   44MOL   C20621792   4.404   1.013   1.008 -0.0470 -0.1009 -0.5615
   44MOL   C20721793   4.315   0.908   0.939 -0.9501 -0.2157  0.5778
   44MOL   C20821794   4.319   0.773   1.005 -0.5536  0.3117  0.0015
   44MOL   C20921795   4.228   0.679   0.937  0.4736 -0.4204 -0.3200
   44MOL   C21021796   4.084   0.685   0.985 -0.3552  0.2556 -0.2798
   44MOL   H21121797   4.670   1.498   0.998  0.4058  0.7312 -0.9345
   44MOL   H21221798   4.756   1.340   0.994 -0.6860 -1.1291  0.2267
   44MOL   H21321799   4.461   1.403   0.952  0.5232 -0.6106  1.7083
   44MOL   H21421800   4.424   1.115   0.816  2.0998  2.0372 -0.9052
   44MOL   H21521801   4.324   1.191   0.940 -0.8786 -2.5177  1.6282
   44MOL   H21621802   4.365   1.037   1.107 -0.8915 -1.1601 -0.6312
   44MOL   H21721803   4.503   0.971   1.021 -0.9684 -2.4671 -1.0212
   44MOL   H21821804   4.210   0.936   0.936 -0.3633  2.0721  0.5239
   44MOL   H21921805   4.338   0.893   0.834 -1.7780  2.1899  0.0175
   44MOL   H22021806   4.425   0.745   1.001 -0.2866  1.3224 -0.0595
   44MOL   H22121807   4.294   0.786   1.110 -0.8740 -0.9951  0.1005
   44MOL   H22221808   4.234   0.700   0.830  4.2747 -0.7717 -0.2415
   44MOL   H22321809   4.256   0.576   0.959 -1.1173 -0.8962 -0.4442
   44MOL   H22421810   4.065   0.685   1.092  1.6338 -0.5123  0.0951
   44MOL   H22521811   4.048   0.777   0.939 -2.1147  0.0433  0.6353
   44MOL   H22621812   4.011   0.610   0.958 -0.8959  0.4243  0.6954
   44MOL   C22721813   4.586   1.342   0.780  0.2746  0.1021 -1.0423
   44MOL   C22821814   4.660   1.465   0.720  0.5953 -0.2664  0.4204
   44MOL   O22921815   4.703   1.448   0.588 -0.4009  0.1298 -0.3727
   44MOL   C23021816   4.825   1.513   0.558  0.2808  0.7003  1.0035
   44MOL   C23121817   4.875   1.461   0.419  0.1513 -0.3805 -0.0215
   44MOL   C23221818   4.933   1.319   0.427 -0.7995  0.1508  0.8507
   44MOL   C23321819   4.990   1.262   0.298 -0.1341 -0.3234 -0.1111
   44MOL   C23421820   5.144   1.288   0.283  0.5609  0.0414  0.0661
   44MOL   C23521821   5.235   1.225   0.389  0.5097 -0.1685  0.3542
   44MOL   H23621822   4.646   1.252   0.765  0.8231  0.3534 -0.3563
   44MOL   H23721823   4.492   1.330   0.726 -1.9966  1.7805  2.3841
   44MOL   H23821824   4.746   1.466   0.787  0.9070  1.8953  0.0128
   44MOL   H23921825   4.897   1.504   0.639 -0.1095  0.6441  1.3517
   44MOL   H24021826   4.805   1.619   0.546 -1.8439  0.1576 -0.6386
   44MOL   H24121827   4.942   1.527   0.363  2.5845 -2.2620  0.5698
   44MOL   H24221828   4.785   1.462   0.359 -0.1586  1.1657  0.4410
   44MOL   H24321829   5.013   1.325   0.501  0.5923  1.1146 -0.7177
   44MOL   H24421830   4.850   1.253   0.453 -0.3415 -0.8973 -0.3158
   44MOL   H24521831   4.970   1.156   0.285 -2.4030  0.3648 -2.7513
   44MOL   H24621832   4.940   1.326   0.225  1.2611  2.2029  1.0810
   44MOL   H24721833   5.173   1.244   0.187  1.8478 -0.1093  0.5215
   44MOL   H24821834   5.168   1.393   0.271 -0.5755  0.5437  2.0211
   44MOL   H24921835   5.210   1.125   0.423  0.2683 -0.3471 -0.3386
   44MOL   H25021836   5.340   1.227   0.360 -0.2221  0.6586 -2.4086
   44MOL   H25121837   5.227   1.277   0.485 -3.3857  1.0573 -0.5619
   44MOL   C25221838   4.591   1.605   0.740 -0.1842  0.7002  0.0382
   44MOL   C25321839   4.481   1.640   0.637  0.2310 -0.2374 -0.7210
   44MOL   O25421840   4.471   1.779   0.628  0.0183  0.2186  0.5534
   44MOL   C25521841   4.536   1.843   0.510  0.1371 -0.3909 -0.6614
   44MOL   C25621842   4.540   1.990   0.538 -0.5492  0.2399  0.3269
   44MOL   C25721843   4.405   2.059   0.562  0.5578  0.5405  0.0712
   44MOL   C25821844   4.418   2.216   0.581  0.0997  1.2875 -0.0005
   44MOL   C25921845   4.472   2.246   0.727 -0.1986  0.4922 -0.0318
   44MOL   C26021846   4.420   2.387   0.776  0.0771  0.5345  0.5236
   44MOL   H26121847   4.550   1.628   0.838  1.2015 -0.0179  0.8101
   44MOL   H26221848   4.669   1.680   0.722  0.1380 -0.1260 -2.1958
   44MOL   H26321849   4.521   1.601   0.544 -0.0727 -1.8798 -0.1714
   44MOL   H26421850   4.482   1.825   0.417  0.1825  2.3196 -1.2598
   44MOL   H26521851   4.638   1.804   0.508  0.2722 -0.3282  2.6590
   44MOL   H26621852   4.593   2.048   0.462  0.4531  1.2597  1.7724
   44MOL   H26721853   4.602   2.005   0.627  1.0962 -3.8714 -0.0452
   44MOL   H26821854   4.334   2.031   0.485 -0.9543 -0.8903  1.9510
   44MOL   H26921855   4.348   2.013   0.643 -2.0620  2.0893 -0.8331
   44MOL   H27021856   4.482   2.259   0.504 -2.5164  1.5809 -2.0806
   44MOL   H27121857   4.324   2.265   0.557  0.2122  0.9562 -1.1258
   44MOL   H27221858   4.463   2.169   0.804  2.1700 -0.2369 -0.4398
   44MOL   H27321859   4.578   2.258   0.704 -0.1797  0.2988 -0.0466
   44MOL   H27421860   4.490   2.415   0.855  1.4239 -1.3685  0.0692
   44MOL   H27521861   4.430   2.465   0.701  1.2576  1.2888  1.4421
   44MOL   H27621862   4.322   2.382   0.822 -1.0635  1.0131 -1.7755
   44MOL   C27721863   4.339   1.589   0.670 -0.4329 -0.0881  0.2217
   44MOL   C27821864   4.238   1.592   0.545  0.2338  0.1603 -0.0778
   44MOL   O27921865   4.126   1.510   0.578  0.0103  0.0486 -0.2811
   44MOL   C28021866   4.131   1.371   0.549  0.0038  0.3580 -0.1042
   44MOL   C28121867   4.092   1.323   0.408 -0.0935  0.6875 -0.3001
   44MOL   C28221868   4.077   1.172   0.404  0.0677 -0.3266 -0.1712
   44MOL   C28321869   4.043   1.137   0.252  0.4556 -1.0581 -0.5811
   44MOL   C28421870   4.006   0.990   0.240  0.2660  0.1778 -0.3345
   44MOL   C28521871   3.926   0.979   0.101  0.5456  0.1973 -0.4626
   44MOL   H28621872   4.343   1.486   0.705 -2.9294 -0.2300  0.1678
   44MOL   H28721873   4.301   1.644   0.756  0.3613 -0.4647  0.8277
   44MOL   H28821874   4.293   1.558   0.458  1.4792  1.7003  0.0945
   44MOL   H28921875   4.053   1.323   0.607  1.1901  0.0698  1.2692
   44MOL   H29021876   4.218   1.316   0.585 -0.6281  0.0646  0.9832
   44MOL   H29121877   4.178   1.350   0.347  0.6359  0.5114  0.6282
   44MOL   H29221878   4.000   1.369   0.373 -0.4019 -0.1295 -0.5808
   44MOL   H29321879   4.163   1.115   0.438 -0.5596 -0.1055  1.7974
   44MOL   H29421880   3.992   1.148   0.467  0.3643  2.5284  1.4117
   44MOL   H29521881   3.958   1.201   0.231 -1.3973 -3.2785 -0.0535
   44MOL   H29621882   4.131   1.175   0.199  1.1390  0.7459  1.7849
   44MOL   H29721883   4.097   0.932   0.261  0.5675  0.7261 -0.1243
   44MOL   H29821884   3.939   0.952   0.318  0.6758 -0.9326 -0.5035
   44MOL   H29921885   3.902   0.873   0.094  2.2154 -0.2148 -0.1708
   44MOL   H30021886   3.837   1.041   0.106  0.0018 -0.4115 -2.3206
   44MOL   H30121887   3.995   1.012   0.023  2.6931  1.1977  1.7747
   44MOL   C30221888   4.180   1.729   0.513  0.3667 -0.3028 -0.3017
   44MOL   C30321889   4.099   1.741   0.382  0.0458 -0.0238  0.1213
   44MOL   O30421890   4.123   1.880   0.345 -0.4549 -0.3108  0.4655
   44MOL   C30521891   4.167   1.899   0.209  0.3175 -0.2614 -0.1580
   44MOL   C30621892   4.198   2.040   0.179  0.2225 -0.7578 -0.0524
   44MOL   C30721893   4.102   2.151   0.229 -0.3560 -0.9179  0.2656
   44MOL   C30821894   4.103   2.285   0.147 -0.3485  0.2095 -0.0119
   44MOL   C30921895   4.045   2.268   0.008  0.1098  0.2055 -0.2567
   44MOL   C31021896   4.069   2.397   7.703 -0.0366 -0.3255 -0.9489
   44MOL   H31121897   4.118   1.759   0.598 -0.1006 -0.0055 -0.7434
   44MOL   H31221898   4.261   1.801   0.513  0.5646 -0.5311 -1.1405
   44MOL   H31321899   4.137   1.672   0.308 -2.5616  1.4185 -2.6872
   44MOL   H31421900   4.081   1.877   0.147  0.3773  5.0668 -2.4250
   44MOL   H31521901   4.257   1.841   0.189  0.0506  0.5681 -4.1612
   44MOL   H31621902   4.207   2.042   0.070 -0.0634 -1.3897 -0.0915
   44MOL   H31721903   4.303   2.056   0.205 -0.0368  2.6110 -0.8966
   44MOL   H31821904   4.002   2.109   0.240 -0.3154 -1.2188 -0.5248
   44MOL   H31921905   4.126   2.176   0.332 -1.6578  2.6262 -0.2033
   44MOL   H32021906   4.053   2.365   0.202  0.9541  1.0811 -0.0664
   44MOL   H32121907   4.204   2.320   0.123 -0.1861  0.1026  0.5050
   44MOL   H32221908   4.085   2.175   7.746  3.0274  1.2819  0.0612
   44MOL   H32321909   3.938   2.251   0.021  0.6363 -2.9928  0.4090
   44MOL   H32421910   4.162   2.445   7.736 -1.3470 -0.9658  3.9233
   44MOL   H32521911   4.070   2.382   7.595 -0.0593  3.1791 -1.5023
   44MOL   H32621912   3.996   2.474   7.729  1.6956  1.4936 -1.2806
   44MOL   C32721913   3.946   1.709   0.390  0.0455  0.5407  0.8022
   44MOL   C32821914   3.867   1.694   0.260 -0.0434  0.2604 -0.3321
   44MOL   O32921915   3.911   1.580   0.187 -0.1677  0.2704 -0.6579
   44MOL   C33021916   3.930   1.601   0.045 -0.2284  0.5094  0.0308
   44MOL   C33121917   3.888   1.476   7.760 -0.4677  0.2072 -0.9122
   44MOL   C33221918   4.000   1.367   7.764  0.8909 -0.1232 -0.1697
   44MOL   C33321919   4.080   1.364   7.629  0.9169  0.2682 -0.1206
   44MOL   C33421920   4.168   1.237   7.623 -0.9186  0.3540  0.8592
   44MOL   C33521921   4.245   1.230   7.487  0.7594  0.0890  0.0893
   44MOL   H33621922   3.900   1.782   0.456 -1.7551  0.1518 -0.0090
   44MOL   H33721923   3.940   1.617   0.447  2.3973 -2.0869 -2.9742
   44MOL   H33821924   3.893   1.780   0.198 -4.3284  1.3010 -0.8409
   44MOL   H33921925   4.031   1.637   0.025  0.0987 -0.8451 -0.8502
   44MOL   H34021926   3.870   1.671   7.767  0.0172  0.5210 -0.2202
   44MOL   H34121927   3.870   1.497   7.655 -2.6134 -0.2173 -0.6425
   44MOL   H34221928   3.791   1.442   0.017 -1.7008 -0.0325 -4.3367
   44MOL   H34321929   4.068   1.388   0.068  1.1103 -0.3378 -0.2965
   44MOL   H34421930   3.960   1.270   0.013 -1.7718  0.6085 -1.2614
   44MOL   H34521931   4.005   1.359   7.551 -1.1123  0.3833  1.7679
   44MOL   H34621932   4.145   1.451   7.624  1.2289  0.0454  0.0032
   44MOL   H34721933   4.230   1.243   7.712  1.4950  0.7029 -0.8073
   44MOL   H34821934   4.105   1.149   7.637  1.0058 -0.9849  1.2137
   44MOL   H34921935   4.184   1.200   7.402 -0.4752 -1.4147  1.4730
   44MOL   H35021936   4.292   1.325   7.462  0.3680 -0.0108 -1.0630
   44MOL   H35121937   4.325   1.156   7.493  0.6376 -0.2301 -1.9649
   44MOL   C35221938   3.718   1.691   0.280  0.1929 -0.1797  0.1414
   44MOL   C35321939   3.643   1.817   0.208  0.1232 -0.0984 -0.1055
   44MOL   O35421940   3.677   1.820   0.071 -0.4273 -0.4341  0.6188
   44MOL   C35521941   3.569   1.816   7.764 -0.2102  0.2304 -0.3184
   44MOL   C35621942   3.607   1.851   7.627  0.0268 -0.7081 -0.3098
   44MOL   C35721943   3.681   1.984   7.606 -0.3412 -0.6691 -0.2124
   44MOL   C35821944   3.741   2.007   7.470 -0.1030  0.7991 -0.3761
   44MOL   C35921945   3.852   2.120   7.472  0.1502  0.0653  0.7387
   44MOL   C36021946   3.797   2.261   7.495  0.0380 -0.5338  0.0186
   44MOL   H36121947   3.679   1.596   0.242 -2.8086  0.9958  0.1941
   44MOL   H36221948   3.690   1.691   0.385 -2.5080  3.9010 -0.4706
   44MOL   H36321949   3.537   1.795   0.223  0.0449  0.6271  0.4109
   44MOL   H36421950   3.496   1.890   0.019 -1.4328 -1.5903  1.1378
   44MOL   H36521951   3.516   1.721   7.765  0.4544 -0.1524 -1.2437
   44MOL   H36621952   3.518   1.845   7.564 -0.9402 -0.0675  0.9810
   44MOL   H36721953   3.663   1.767   7.585  1.9015 -0.3637  1.4267
   44MOL   H36821954   3.615   2.066   7.637  2.7321  1.7665  0.1245
   44MOL   H36921955   3.763   1.996   7.677  0.7108 -2.6806 -1.0739
   44MOL   H37021956   3.788   1.914   7.441  1.7465  0.9914  1.8651
   44MOL   H37121957   3.672   2.046   7.394 -0.5052 -2.3623 -1.7027
   44MOL   H37221958   3.931   2.097   7.544 -1.7774  0.0045  2.9004
   44MOL   H37321959   3.893   2.125   7.371  1.8757  0.6931  1.4532
   44MOL   H37421960   3.882   2.323   7.466 -1.6122  1.7604 -0.0567
   44MOL   H37521961   3.725   2.289   7.418 -1.4667 -1.0295  1.2109
   44MOL   H37621962   3.756   2.273   7.596  2.5643  1.4266  0.8598
   44MOL   C37721963   3.656   1.959   0.279 -0.3962  0.7483  0.3120
   44MOL   C37821964   3.555   2.061   0.232  0.8948 -0.1256 -0.1247
   44MOL   O37921965   3.578   2.192   0.286  0.6153 -0.5345 -0.1754
   44MOL   C38021966   3.638   2.286   0.201 -0.2101  0.5231  0.2738
   44MOL   C38121967   3.634   2.428   0.256 -0.5440 -0.1524 -0.0959
   44MOL   C38221968   3.702   2.530   0.160  0.1525 -0.4554  0.2125
   44MOL   C38321969   3.673   2.680   0.183  0.2297  0.2134  0.0472
   44MOL   C38421970   3.708   2.768   0.059 -0.2156  0.4811  0.4157
   44MOL   C38521971   3.673   2.914   0.086 -0.2042  0.4064 -0.5981
   44MOL   H38621972   3.629   1.945   0.384 -2.4433  2.2631  0.0194
   44MOL   H38721973   3.759   1.993   0.268 -0.8005  1.4490 -1.4650
   44MOL   H38821974   3.560   2.060   0.123 -1.7834 -3.6605 -0.3063
   44MOL   H38921975   3.585   2.287   0.105 -0.7009  2.2269  0.5548
   44MOL   H39021976   3.744   2.262   0.189 -0.0102 -0.9692  4.2815
   44MOL   H39121977   3.683   2.418   0.353 -1.2416 -2.3161  0.0556
   44MOL   H39221978   3.535   2.467   0.278  0.2469  1.0008  1.4806
   44MOL   H39321979   3.808   2.504   0.152  0.1561  0.4901 -4.0228
   44MOL   H39421980   3.666   2.499   0.063 -0.4099 -1.4729  0.7428
   44MOL   H39521981   3.567   2.698   0.197 -0.0850 -1.8668  0.4619
   44MOL   H39621982   3.720   2.719   0.273  3.0772 -1.2875 -0.7338
   44MOL   H39721983   3.808   2.762   0.016 -1.3673 -0.2929 -2.3068
   44MOL   H39821984   3.643   2.740   7.754 -1.7603  0.7722  1.5007
   44MOL   H39921985   3.699   2.979   0.003 -0.2806  0.3689 -0.6520
   44MOL   H40021986   3.565   2.919   0.101 -0.5100 -2.7656 -1.5060
   44MOL   H40121987   3.720   2.956   0.175  0.3001 -0.1110 -0.6179
   44MOL   C40221988   3.409   2.026   0.262  0.2613  0.3208 -0.4038
   44MOL   C40321989   3.299   2.118   0.197  0.1703  0.6870  0.3685
   44MOL   O40421990   3.170   2.077   0.239 -0.4321  0.2528 -0.5395
   44MOL   C40521991   3.129   2.135   0.364  0.3162 -0.7884 -0.1170
   44MOL   C40621992   2.991   2.073   0.404  0.2787 -0.8568  0.1624
   44MOL   C40721993   2.926   2.126   0.530 -0.0550 -0.1009 -0.1721
   44MOL   C40821994   2.772   2.127   0.520 -0.0344 -1.0480  0.5539
   44MOL   C40921995   2.701   2.187   0.648 -0.8069 -0.2330  0.5989
   44MOL   C41021996   2.555   2.220   0.635 -0.3957 -0.1396 -0.3830
   44MOL   H41121997   3.396   2.020   0.370  2.1751  0.8545 -0.1302
   44MOL   H41221998   3.382   1.928   0.223 -1.2781  0.6605 -0.2564
   44MOL   H41321999   3.310   2.220   0.234  1.9554  0.2451  1.0878
   44MOL   H41422000   3.113   2.242   0.349 -0.4148 -0.9545 -0.5603
   44MOL   H41522001   3.200   2.121   0.445 -1.4637 -1.6008  1.3502
   44MOL   H41622002   2.996   1.964   0.406 -0.2599 -0.8940 -0.4546
   44MOL   H41722003   2.917   2.089   0.326  1.5500  0.2751 -0.8619
   44MOL   H41822004   2.940   2.055   0.611  0.6633  1.0743  0.7611
   44MOL   H41922005   2.972   2.218   0.567  1.0597  0.6416 -3.2660
   44MOL   H42022006   2.752   2.203   0.444  2.9038 -0.2623  0.4988
   44MOL   H42122007   2.717   2.034   0.505 -2.6443  0.3123  1.2015
   44MOL   H42222008   2.708   2.115   0.730  0.1546 -0.4573  0.3218
   44MOL   H42322009   2.741   2.280   0.688 -1.8964  0.4454  0.1548
   44MOL   H42422010   2.542   2.284   0.548  1.8742  0.4618 -0.3007
   44MOL   H42522011   2.500   2.127   0.618 -0.5787  0.5887 -4.2020
   44MOL   H42622012   2.509   2.270   0.720 -2.6407  0.1723 -1.7505
   44MOL   C42722013   3.290   2.110   0.038 -0.6920 -0.1157 -1.0072
   44MOL   C42822014   3.198   2.217   7.749 -0.1277  0.1431  0.3629
   44MOL   O42922015   3.260   2.338   0.011  0.0062 -0.3036 -0.1037
   44MOL   C43022016   3.175   2.428   0.081  0.0355 -0.3565  0.1702
   44MOL   C43122017   3.238   2.558   0.132  0.2219 -1.1880  0.8237
   44MOL   C43222018   3.259   2.666   0.021 -0.4944 -0.5396  0.3967
   44MOL   C43322019   3.279   2.808   0.068 -0.1567  0.3024  0.4930
   44MOL   C43422020   3.312   2.915   7.737 -0.2615 -0.4063  0.1938
   44MOL   C43522021   3.321   3.056   0.019 -0.0595  1.0805  0.2246
   44MOL   H43622022   3.393   2.132   0.011 -1.0881  1.4895 -1.2512
   44MOL   H43722023   3.260   2.008   0.011  0.7662 -0.7920 -0.1508
   44MOL   H43822024   3.093   2.215   7.777 -0.4878  2.2813 -0.7134
   44MOL   H43922025   3.135   2.367   0.163 -1.2756 -0.4291 -0.4990
   44MOL   H44022026   3.091   2.458   0.018 -0.9584 -3.2197  0.0490
   44MOL   H44122027   3.328   2.561   0.194  0.2654  1.5481  0.6925
   44MOL   H44222028   3.160   2.599   0.196  1.5750  0.3621  1.5276
   44MOL   H44322029   3.335   2.641   7.724  0.4832 -0.5690  1.3816
   44MOL   H44422030   3.168   2.675   7.740 -0.1062 -0.9341 -0.2631
   44MOL   H44522031   3.205   2.855   0.133  0.3073  0.4378  0.9241
   44MOL   H44622032   3.362   2.814   0.137 -0.8983 -0.2982  1.4441
   44MOL   H44722033   3.408   2.885   7.695 -0.6999 -1.9048  0.2265
   44MOL   H44822034   3.238   2.915   7.656 -0.3950  1.2805  0.3099
   44MOL   H44922035   3.378   3.131   7.742  2.1233 -0.8327 -0.1651
   44MOL   H45022036   3.222   3.096   0.040 -0.9287 -0.8042 -0.1749
   44MOL   H45122037   3.367   3.045   0.117  0.3707 -1.7277 -0.2615
   44MOL   C45222038   3.215   2.201   7.598  1.3313  0.4395 -0.3636
   44MOL   C45322039   3.140   2.314   7.521 -0.4632  0.7730 -0.5131
   44MOL   O45422040   3.002   2.284   7.493 -0.2347  0.0110 -0.3338
   44MOL   C45522041   2.908   2.393   7.478 -0.3170 -0.5736  0.2679
   44MOL   C45622042   2.775   2.332   7.447  0.1546 -0.2910 -0.0242
   44MOL   C45722043   2.732   2.257   7.577  0.0734 -0.0087  0.0604
   44MOL   C45822044   2.594   2.186   7.553 -0.0577 -0.0135 -0.2290
   44MOL   C45922045   2.596   2.085   7.439 -0.1221 -0.1277 -0.1437
   44MOL   C46022046   2.717   1.994   7.451 -0.6993 -0.3914  0.1822
   44MOL   H46122047   3.323   2.206   7.582  1.4816 -0.5209  0.2996
   44MOL   H46222048   3.183   2.101   7.569  1.6819 -0.8586  3.4559
   44MOL   H46322049   3.139   2.402   7.585 -2.0733  0.1489  0.3571
   44MOL   H46422050   2.934   2.461   7.397 -0.3521 -1.8403 -0.8374
   44MOL   H46522051   2.893   2.451   7.569 -2.6371 -2.3131  1.0461
   44MOL   H46622052   2.780   2.267   7.360 -0.9402 -1.2438  0.6132
   44MOL   H46722053   2.704   2.413   7.428  0.4576  0.0773  0.3674
   44MOL   H46822054   2.805   2.184   7.613 -0.7555 -1.8837 -1.9581
   44MOL   H46922055   2.712   2.334   7.652  0.8426  0.1713  0.0840
   44MOL   H47022056   2.579   2.132   7.647  0.7141 -1.3245 -0.8332
   44MOL   H47122057   2.515   2.259   7.537  1.4163  1.8296  0.7831
   44MOL   H47222058   2.505   2.025   7.446 -0.4779  0.6515  2.6113
   44MOL   H47322059   2.608   2.133   7.342 -0.4090 -0.0192 -0.1257
   44MOL   H47422060   2.815   2.037   7.433 -0.3616 -0.9575  0.6176
   44MOL   H47522061   2.735   1.967   7.555 -1.9470 -2.2632 -0.0592
   44MOL   H47622062   2.705   1.907   7.387 -2.6166  0.4204 -0.6139
   44MOL   C47722063   3.218   2.352   7.395  0.6078 -0.4468  0.1473
   44MOL   C47822064   3.246   2.236   7.301 -0.8279  0.1956  0.7953
   44MOL   O47922065   3.332   2.286   7.190  0.6125 -0.2438 -0.4483
   44MOL   C48022066   3.403   2.181   7.124  0.5209 -1.0547 -0.2955
   44MOL   C48122067   3.487   2.235   7.003 -0.0277 -0.1985  0.4221
   44MOL   C48222068   3.601   2.333   7.045 -0.5469  0.3144  0.5778
   44MOL   C48322069   3.694   2.392   6.939  0.3519 -0.3373 -0.3582
   44MOL   C48422070   3.800   2.472   7.012  0.0096 -0.2545 -0.3602
   44MOL   C48522071   3.900   2.547   6.923  0.0350 -0.5083 -0.0062
   44MOL   H48622072   3.177   2.438   7.343 -0.2296 -0.6654  0.4258
   44MOL   H48722073   3.311   2.397   7.428  1.1174 -1.4258  0.0501
   44MOL   H48822074   3.288   2.151   7.354  0.4736  0.1700 -0.2493
   44MOL   H48922075   3.332   2.107   7.088  1.1397 -1.5986 -0.4076
   44MOL   H49022076   3.460   2.130   7.202  0.8920 -1.4651 -0.8364
   44MOL   H49122077   3.417   2.291   6.941 -0.0901 -0.4492  0.2645
   44MOL   H49222078   3.542   2.155   6.954  0.9279 -0.4203  1.8109
   44MOL   H49322079   3.570   2.419   7.104 -1.7488  0.1107  0.2657
   44MOL   H49422080   3.669   2.275   7.108  2.6834  2.0283 -1.2423
   44MOL   H49522081   3.745   2.311   6.886  2.7885  0.3954  0.7983
   44MOL   H49622082   3.637   2.445   6.862 -1.1462 -2.0192 -0.4436
   44MOL   H49722083   3.757   2.538   7.087  2.0152 -2.1445  2.5727
   44MOL   H49822084   3.855   2.414   7.085  1.3335 -0.0317 -1.1551
   44MOL   H49922085   3.987   2.588   6.974  0.5103  0.1598 -1.3272
   44MOL   H50022086   3.948   2.478   6.853 -0.6376  0.8575 -1.8710
   44MOL   H50122087   3.860   2.624   6.857 -0.0220 -0.9560 -0.4945
   44MOL   H50222088   3.148   2.211   7.263 -0.2595 -2.9997  1.3248
   45MOL     C122089   1.615   3.471   0.575  0.2017 -0.1001 -0.1296
   45MOL     C222090   1.616   3.357   0.472 -0.7691 -0.4374  0.0357
   45MOL     O322091   1.559   3.404   0.353  0.9669  0.6364  1.0088
   45MOL     C422092   1.646   3.440   0.245 -0.3798  0.4034  0.3148
   45MOL     C522093   1.557   3.489   0.128  0.2961 -0.0415 -0.9040
   45MOL     C622094   1.639   3.508   7.771  1.0303  0.2607 -0.6382
   45MOL     C722095   1.586   3.607   7.668  1.0035  0.1244 -0.6182
   45MOL     C822096   1.645   3.577   7.532  0.7427 -0.7607  0.0311
   45MOL     C922097   1.590   3.449   7.457  0.1680 -0.1993 -0.7827
   45MOL    H1022098   1.669   3.439   0.664 -0.8350 -2.4299 -0.2851
   45MOL    H1122099   1.668   3.555   0.532  1.3797 -0.3798  0.7519
   45MOL    H1222100   1.719   3.327   0.454  0.2321  2.6705  0.2984
   45MOL    H1322101   1.712   3.360   0.210 -1.1250  0.4150 -1.1643
   45MOL    H1422102   1.703   3.530   0.266  2.3856 -1.0629 -0.6801
   45MOL    H1522103   1.530   3.593   0.149  3.3639  0.3144  1.5171
   45MOL    H1622104   1.470   3.425   0.115  0.0677  0.0784 -0.0009
   45MOL    H1722105   1.741   3.542   0.012  0.3833  1.3645  1.0060
   45MOL    H1822106   1.653   3.411   7.724 -1.5620 -0.2694 -0.3966
   45MOL    H1922107   1.477   3.607   7.658  0.8800 -0.9867  0.6617
   45MOL    H2022108   1.616   3.709   7.694 -0.2904  0.0913  1.0904
   45MOL    H2122109   1.754   3.574   7.524  0.8253  1.4314 -0.0113
   45MOL    H2222110   1.621   3.664   7.471  0.0874  0.1244  1.5113
   45MOL    H2322111   1.648   3.427   7.367  1.9630  1.1208  0.0316
   45MOL    H2422112   1.597   3.363   7.524 -1.0662 -0.0893 -0.5097
   45MOL    H2522113   1.483   3.456   7.439 -0.1241  0.2279  1.0546
   45MOL    H2622114   1.515   3.500   0.609  0.5328 -0.2221  0.9644
   45MOL    C2722115   1.548   3.224   0.523 -1.0659 -0.2529 -0.0771
   45MOL    C2822116   1.579   3.094   0.442  0.0143  0.2389 -0.2736
   45MOL    O2922117   1.515   2.986   0.517  0.3467  0.1686  1.0627
   45MOL    C3022118   1.599   2.926   0.615  0.3839 -0.3285  0.3306
   45MOL    C3122119   1.530   2.809   0.691  0.1045 -0.9247  0.2694
   45MOL    C3222120   1.468   2.712   0.595  0.8986 -0.2935  0.0798
   45MOL    C3322121   1.387   2.593   0.659 -0.3203 -0.9793 -0.3102
   45MOL    C3422122   1.297   2.537   0.554  0.0094 -0.2152 -0.3896
   45MOL    C3522123   1.360   2.451   0.443 -0.4431  0.3949 -0.1549
   45MOL    H3622124   1.577   3.210   0.627  1.3313  1.8353 -0.4314
   45MOL    H3722125   1.440   3.240   0.520 -1.3843 -1.9247  1.2109
   45MOL    H3822126   1.686   3.088   0.424  0.0213  1.5654 -0.7007
   45MOL    H3922127   1.618   3.012   0.678  1.5378 -0.8262  0.6798
   45MOL    H4022128   1.692   2.896   0.566  0.2603  0.5896 -0.4850
   45MOL    H4122129   1.453   2.861   0.748 -0.6972 -0.3791 -1.2835
   45MOL    H4222130   1.599   2.768   0.765  1.3876  1.7657  0.6204
   45MOL    H4322131   1.394   2.767   0.536 -0.9995  0.7401  3.2573
   45MOL    H4422132   1.542   2.665   0.531 -0.6810 -1.9669 -0.5613
   45MOL    H4522133   1.452   2.516   0.701  0.5812 -0.7160 -1.1871
   45MOL    H4622134   1.329   2.633   0.742  0.5904  0.5319 -0.3677
   45MOL    H4722135   1.241   2.462   0.609 -0.2203  1.8927  2.3455
   45MOL    H4822136   1.225   2.608   0.514  0.5750  0.8530  0.4603
   45MOL    H4922137   1.277   2.407   0.388 -0.8966 -0.5887  1.2826
   45MOL    H5022138   1.415   2.519   0.378  0.5789 -0.7473 -0.4905
   45MOL    H5122139   1.430   2.377   0.480 -0.3080  0.5952 -0.0066
   45MOL    C5222140   1.511   3.079   0.301 -0.0653 -0.3535  0.5435
   45MOL    C5322141   1.556   2.954   0.216 -0.3841 -0.8731  0.3576
   45MOL    O5422142   1.453   2.891   0.147  0.6491  0.2389  1.0417
   45MOL    C5522143   1.367   2.797   0.220 -0.2772  0.4602  1.2521
   45MOL    C5622144   1.301   2.711   0.119 -0.3336 -0.1141 -0.6028
   45MOL    C5722145   1.210   2.793   0.028 -0.0029 -0.3140 -0.1017
   45MOL    C5822146   1.135   2.704   7.704 -0.1374 -0.2583 -0.4090
   45MOL    C5922147   1.060   2.786   7.603  0.2150 -0.2668  0.0933
   45MOL    C6022148   0.990   2.708   7.493  0.0048  0.0777  0.0139
   45MOL    H6122149   1.526   3.171   0.244  0.9111 -2.1059 -2.1581
   45MOL    H6222150   1.403   3.069   0.307 -0.2482 -1.1255 -2.7282
   45MOL    H6322151   1.593   2.885   0.291  0.1692 -0.9585  0.0125
   45MOL    H6422152   1.286   2.842   0.278 -2.1207 -0.5607 -0.4789
   45MOL    H6522153   1.430   2.734   0.283 -3.9158 -1.6570  2.9161
   45MOL    H6622154   1.232   2.644   0.171 -0.9058 -0.0437 -1.2691
   45MOL    H6722155   1.380   2.646   0.080  1.0293  1.1523  0.0016
   45MOL    H6822156   1.141   2.861   0.078 -0.3368  1.2670 -2.6403
   45MOL    H6922157   1.280   2.856   7.753 -1.6779  1.5658 -0.1455
   45MOL    H7022158   1.211   2.651   7.648  1.1508 -0.6175  1.6220
   45MOL    H7122159   1.075   2.629   7.756  2.9338 -1.3564  1.6967
   45MOL    H7222160   0.990   2.854   7.652  1.4412 -0.0103  1.5583
   45MOL    H7322161   1.137   2.845   7.553 -0.1968 -0.2006 -0.4654
   45MOL    H7422162   0.905   2.649   7.528  1.0958 -1.1354  0.6540
   45MOL    H7522163   0.952   2.776   7.417 -0.7624 -2.0092 -1.5395
   45MOL    H7622164   1.058   2.648   7.432 -0.7656 -0.3358 -0.4518
   45MOL    C7722165   1.667   2.994   0.117  0.4197 -0.2145  0.0317
   45MOL    C7822166   1.802   3.047   0.170  0.5978  0.1288 -0.6070
   45MOL    O7922167   1.887   3.075   0.056  0.0932  0.2026  0.1088
   45MOL    C8022168   1.861   3.200   7.766  0.2385  0.0937 -0.7480
   45MOL    C8122169   1.978   3.222   7.672  0.1199 -0.1426 -0.3329
   45MOL    C8222170   1.960   3.350   7.597 -0.5497  0.6630 -0.2681
   45MOL    C8322171   2.067   3.370   7.490 -0.5878 -0.4011 -0.2346
   45MOL    C8422172   2.069   3.497   7.397  0.3132 -0.2150 -0.2025
   45MOL    C8522173   2.198   3.497   7.309  0.1493  0.4448  0.3361
   45MOL    H8622174   1.625   3.064   0.044  0.5223 -0.0824  0.1006
   45MOL    H8722175   1.690   2.915   0.045 -0.8974  0.9925 -1.7655
   45MOL    H8822176   1.794   3.135   0.234  1.0655  1.4825 -2.3813
   45MOL    H8922177   1.841   3.292   0.043 -0.9095 -0.6717  0.1146
   45MOL    H9022178   1.781   3.184   7.694  0.7418 -0.6692 -1.1473
   45MOL    H9122179   1.993   3.128   7.619  1.1813 -0.0542 -0.2024
   45MOL    H9222180   2.068   3.232   7.733 -1.0784  1.0338  1.2598
   45MOL    H9322181   1.869   3.345   7.537 -2.4027  4.2723  2.0347
   45MOL    H9422182   1.942   3.432   7.667 -1.9365 -1.0774  1.4778
   45MOL    H9522183   2.168   3.369   7.533 -0.1165 -1.4368 -1.3383
   45MOL    H9622184   2.060   3.285   7.422 -0.1011 -0.2873 -0.4280
   45MOL    H9722185   1.972   3.477   7.350 -0.8782 -0.1426  2.1390
   45MOL    H9822186   2.061   3.594   7.446  2.8719  0.3703 -0.8831
   45MOL    H9922187   2.282   3.530   7.370  1.3379 -0.6014 -0.7040
   45MOL   H10022188   2.219   3.398   7.267  1.1938  0.8146 -0.0394
   45MOL   H10122189   2.181   3.565   7.226  0.6233 -0.7576 -0.7668
   45MOL   C10222190   1.877   2.932   0.243 -0.0586  0.0786 -0.2222
   45MOL   C10322191   2.022   2.964   0.286 -1.2781  0.5890  0.1672
   45MOL   O10422192   2.029   3.047   0.400  0.0701 -0.2642 -0.3980
   45MOL   C10522193   2.075   3.179   0.354 -0.3576 -0.1039 -0.2327
   45MOL   C10622194   2.040   3.286   0.454  0.3006 -0.1810  0.0255
   45MOL   C10722195   2.106   3.423   0.414  0.4108  0.5446 -0.1828
   45MOL   C10822196   2.064   3.546   0.510 -0.8144  0.2283 -0.0602
   45MOL   C10922197   2.158   3.674   0.505  0.2281  0.7213  0.2924
   45MOL   C11022198   2.088   3.792   0.573 -0.5252 -0.1246 -0.2943
   45MOL   H11122199   1.824   2.901   0.333  0.4051  0.2506  0.1133
   45MOL   H11222200   1.885   2.842   0.182 -0.0365  0.5192 -0.8767
   45MOL   H11322201   2.080   2.997   0.200  0.8940 -1.1995  0.8880
   45MOL   H11422202   2.035   3.210   0.258 -0.7456 -1.2834 -0.4601
   45MOL   H11522203   2.183   3.180   0.349 -0.2686 -0.4536  1.3204
   45MOL   H11622204   2.073   3.263   0.555  0.4028 -0.6858 -0.1210
   45MOL   H11722205   1.932   3.301   0.453  0.3503  0.1332 -1.3623
   45MOL   H11822206   2.214   3.410   0.413  0.8205  3.4934  0.9989
   45MOL   H11922207   2.080   3.450   0.311  0.3568 -0.9677 -0.5698
   45MOL   H12022208   1.959   3.570   0.489 -0.3046  1.5060 -1.1693
   45MOL   H12122209   2.064   3.494   0.606  1.6196  0.6316  0.1842
   45MOL   H12222210   2.259   3.654   0.542  0.0720 -0.2651  0.2060
   45MOL   H12322211   2.174   3.700   0.400  0.2743 -1.5803 -0.3163
   45MOL   H12422212   2.064   3.767   0.676  2.0833  1.0828  0.6275
   45MOL   H12522213   2.157   3.874   0.591  0.7115 -0.8544 -1.6051
   45MOL   H12622214   1.998   3.831   0.524 -0.0436  1.5113  0.1046
   45MOL   C12722215   2.082   2.832   0.338 -0.0984  0.6292 -0.3459
   45MOL   C12822216   2.237   2.831   0.350  0.3273  0.0546  0.0244
   45MOL   O12922217   2.296   2.817   0.221 -0.4350  0.2971  0.3748
   45MOL   C13022218   2.407   2.897   0.195 -0.7200 -0.1858  0.4008
   45MOL   C13122219   2.367   3.042   0.166 -0.3324 -0.0767  0.3354
   45MOL   C13222220   2.479   3.124   0.093  0.3360  0.5727  0.6648
   45MOL   C13322221   2.426   3.255   0.042 -0.6269 -0.4370 -0.5678
   45MOL   C13422222   2.522   3.330   7.715 -0.0166  0.8538  0.2322
   45MOL   C13522223   2.474   3.460   7.646 -0.5881 -0.1835  0.3072
   45MOL   H13622224   2.036   2.794   0.429  0.3926  0.0543 -0.3349
   45MOL   H13722225   2.060   2.747   0.273  0.0883 -0.4756  1.0098
   45MOL   H13822226   2.262   2.917   0.412 -0.2405 -0.1595  0.5593
   45MOL   H13922227   2.453   2.852   0.108 -2.6038  1.5173 -1.5214
   45MOL   H14022228   2.478   2.900   0.278 -1.6305  2.2041  1.1614
   45MOL   H14122229   2.348   3.098   0.258  0.8364  1.9476 -0.6299
   45MOL   H14222230   2.279   3.043   0.101 -0.0890 -1.0104 -0.0051
   45MOL   H14322231   2.566   3.128   0.160  1.6289  1.3185 -1.0302
   45MOL   H14422232   2.528   3.064   0.017 -0.7203 -1.4720  1.5452
   45MOL   H14522233   2.327   3.252   7.776 -0.4711 -2.7089 -0.8246
   45MOL   H14622234   2.417   3.330   0.120  0.1039 -1.5673  0.6516
   45MOL   H14722235   2.616   3.346   7.767 -0.1901 -1.4463  1.3073
   45MOL   H14822236   2.537   3.266   7.629 -4.1297 -0.9247  0.7174
   45MOL   H14922237   2.453   3.545   7.712 -1.4738 -0.9092  0.9792
   45MOL   H15022238   2.544   3.490   7.568 -0.1607 -0.0820  0.7280
   45MOL   H15122239   2.384   3.442   7.586 -1.7999 -2.1200  2.6040
   45MOL   C15222240   2.287   2.697   0.418  0.1292 -0.6872 -0.4852
   45MOL   C15322241   2.303   2.712   0.573  0.1820 -0.1470  0.7921
   45MOL   O15422242   2.169   2.720   0.631  0.5099  0.0099 -1.0095
   45MOL   C15522243   2.141   2.842   0.706 -0.6428 -0.2661  0.2175
   45MOL   C15622244   1.990   2.846   0.745 -0.5024  0.6402 -0.1180
   45MOL   C15722245   1.939   2.968   0.821 -0.5764  0.5183  0.2462
   45MOL   C15822246   1.973   3.104   0.762 -1.3641 -0.0380  0.2196
   45MOL   C15922247   1.898   3.220   0.841 -0.6917  0.0349  0.1698
   45MOL   C16022248   1.979   3.260   0.965 -0.3517  1.1254  0.0563
   45MOL   H16122249   2.231   2.607   0.396 -0.2182 -0.0047 -2.4822
   45MOL   H16222250   2.391   2.679   0.392  0.3098  0.1788 -0.3754
   45MOL   H16322251   2.347   2.811   0.591  0.9553 -0.2334 -0.5902
   45MOL   H16422252   2.166   2.929   0.645  0.2719  0.1922  1.2344
   45MOL   H16522253   2.202   2.845   0.796  1.0991  1.3140 -0.9783
   45MOL   H16622254   1.963   2.761   0.808  1.0425 -0.4730 -0.9323
   45MOL   H16722255   1.921   2.838   0.661  2.0757  0.4718 -2.3046
   45MOL   H16822256   1.834   2.970   0.851 -0.8598  1.9416 -0.7993
   45MOL   H16922257   1.994   2.967   0.915  0.5295 -2.0791 -0.3711
   45MOL   H17022258   2.078   3.128   0.750 -1.0215  0.1759  3.1132
   45MOL   H17122259   1.936   3.105   0.660 -0.5648  1.4793 -0.0540
   45MOL   H17222260   1.892   3.308   0.777 -0.4659 -0.4498 -0.5138
   45MOL   H17322261   1.797   3.185   0.860 -1.0729  0.4275 -1.0848
   45MOL   H17422262   2.086   3.277   0.956 -0.3596  0.2943 -1.7823
   45MOL   H17522263   1.933   3.346   1.014  1.5220  1.8397  0.5759
   45MOL   H17622264   1.973   3.174   1.031 -0.2428 -1.6799 -3.4395
   45MOL   C17722265   2.382   2.589   0.647 -0.0321 -0.3737 -0.0657
   45MOL   C17822266   2.531   2.618   0.691 -0.9875  0.0441 -0.0823
   45MOL   O17922267   2.577   2.538   0.792 -0.3037 -0.0175 -0.4430
   45MOL   C18022268   2.593   2.618   0.914 -0.3427  0.4832  0.7137
   45MOL   C18122269   2.662   2.531   1.020  0.2098  0.2824  0.1996
   45MOL   C18222270   2.555   2.441   1.087  0.5459 -0.0587 -0.2400
   45MOL   C18322271   2.606   2.313   1.146  0.2559 -0.5196  0.0098
   45MOL   C18422272   2.661   2.214   1.036  0.0858  0.3426 -0.5209
   45MOL   C18522273   2.687   2.069   1.073 -0.1460  0.7199 -0.3048
   45MOL   H18622274   2.332   2.564   0.740 -0.3751 -1.3602 -0.5136
   45MOL   H18722275   2.357   2.500   0.589 -2.0636  0.7691 -1.0493
   45MOL   H18822276   2.546   2.721   0.722  0.8081 -0.7305  1.6812
   45MOL   H18922277   2.499   2.651   0.959 -0.6034  1.5121 -0.5666
   45MOL   H19022278   2.664   2.697   0.893  1.9832 -1.8001 -0.2145
   45MOL   H19122279   2.720   2.584   1.095  0.2502 -1.1667  1.2172
   45MOL   H19222280   2.731   2.463   0.969  1.3067  1.5353  0.0066
   45MOL   H19322281   2.504   2.489   1.170 -0.5566  1.7830 -1.9284
   45MOL   H19422282   2.476   2.412   1.017 -0.1602 -0.8839  0.8817
   45MOL   H19522283   2.681   2.336   1.221 -1.2192  1.7750  0.8295
   45MOL   H19622284   2.532   2.255   1.202 -1.3041  0.9677 -0.4685
   45MOL   H19722285   2.583   2.208   0.960  0.8300  1.2289 -1.3642
   45MOL   H19822286   2.749   2.251   0.982  0.6944 -0.9511 -0.4236
   45MOL   H19922287   2.585   2.031   1.086 -0.4948  2.1115  1.2835
   45MOL   H20022288   2.757   2.034   0.998 -0.6895 -0.0450 -0.4677
   45MOL   H20122289   2.738   2.068   1.170 -0.2864 -0.9767 -0.2251
   45MOL   C20222290   2.623   2.582   0.564 -0.5675 -0.2246  1.0695
   45MOL   C20322291   2.770   2.633   0.586 -0.9995 -0.2967  0.2962
   45MOL   O20422292   2.821   2.710   0.475  0.2746  0.6242  0.0186
   45MOL   C20522293   2.812   2.854   0.482 -1.1534 -0.6679 -0.2558
   45MOL   C20622294   2.832   2.910   0.343  0.2534 -0.2525  0.5319
   45MOL   C20722295   2.816   3.064   0.333  0.5368  0.4777 -0.8931
   45MOL   C20822296   2.842   3.116   0.189 -0.0692  0.3930 -0.1064
   45MOL   C20922297   2.823   3.264   0.188 -0.4998  0.6500  0.0201
   45MOL   C21022298   2.885   3.335   0.064  0.4059 -0.0035  0.6805
   45MOL   H21122299   2.620   2.476   0.541 -0.8647  0.1270 -0.5580
   45MOL   H21222300   2.595   2.636   0.474  1.5053 -1.1865 -0.1768
   45MOL   H21322301   2.770   2.690   0.679 -2.3567 -1.2866  0.9262
   45MOL   H21422302   2.895   2.887   0.544 -0.3064 -1.6134 -0.8678
   45MOL   H21522303   2.717   2.887   0.526 -0.3678 -0.3127  1.2130
   45MOL   H21622304   2.762   2.848   0.288 -1.0733 -0.4693  2.4196
   45MOL   H21722305   2.932   2.885   0.308 -0.0788  0.6472 -1.1084
   45MOL   H21822306   2.716   3.097   0.361  0.0173  1.4569 -3.6791
   45MOL   H21922307   2.883   3.114   0.403 -0.8755  0.3807  0.5635
   45MOL   H22022308   2.946   3.096   0.164 -0.1620  0.6796 -0.7431
   45MOL   H22122309   2.772   3.069   0.120  1.5328 -0.7745 -0.9798
   45MOL   H22222310   2.718   3.296   0.187 -1.2483 -1.6738 -2.4815
   45MOL   H22322311   2.867   3.301   0.281 -2.4202  2.3982  0.2716
   45MOL   H22422312   2.994   3.338   0.054  0.2963 -0.7324 -0.8763
   45MOL   H22522313   2.839   3.306   7.748  1.6346 -0.3727  0.1761
   45MOL   H22622314   2.871   3.443   0.067  0.9177  0.0940 -0.3514
   45MOL   C22722315   2.870   2.517   0.611 -1.3977 -0.9585  0.0139
   45MOL   C22822316   3.012   2.569   0.639 -1.6767  0.1381 -0.4516
   45MOL   O22922317   3.058   2.518   0.763  0.0102  0.5897  0.3486
   45MOL   C23022318   3.028   2.599   0.879 -0.0698  0.3429 -0.0868
   45MOL   C23122319   3.076   2.519   0.997  0.2396  0.7403 -1.1936
   45MOL   C23222320   3.016   2.380   1.008 -0.2076  0.9965 -0.1706
   45MOL   C23322321   3.111   2.286   1.082  0.8640 -0.0067 -0.3714
   45MOL   C23422322   3.041   2.146   1.077 -0.0028  0.3876 -0.3130
   45MOL   C23522323   3.039   2.089   0.931 -0.1615  0.3922  0.0255
   45MOL   H23622324   2.835   2.457   0.695 -2.3249 -0.2341  0.1577
   45MOL   H23722325   2.886   2.451   0.526  0.7520 -1.0497  0.4517
   45MOL   H23822326   3.018   2.677   0.652  0.5715 -0.1148  0.9412
   45MOL   H23922327   2.925   2.627   0.897  0.0930  0.7456  0.2309
   45MOL   H24022328   3.083   2.692   0.861 -1.1545  0.9354 -0.3702
   45MOL   H24122329   3.058   2.569   1.093  0.5242  2.8391 -2.1877
   45MOL   H24222330   3.184   2.515   0.985  0.1848 -0.7663 -1.2155
   45MOL   H24322331   2.922   2.395   1.062  0.0738  2.0810  0.0241
   45MOL   H24422332   2.993   2.347   0.906 -0.8587 -0.1582  0.3414
   45MOL   H24522333   3.209   2.292   1.033  0.2362 -0.5552 -1.6978
   45MOL   H24622334   3.131   2.324   1.182 -0.4540 -0.5198  0.0913
   45MOL   H24722335   3.114   2.086   1.131 -0.5983 -0.0326  0.0230
   45MOL   H24822336   2.938   2.152   1.112 -0.2321  0.6495 -1.0141
   45MOL   H24922337   2.977   2.151   0.867  1.1303  0.6646 -0.9681
   45MOL   H25022338   3.133   2.099   0.878  0.0205 -1.7038 -0.1197
   45MOL   H25122339   3.011   1.984   0.918 -0.8213  0.5847 -0.1354
   45MOL   C25222340   3.118   2.511   0.532 -0.1945  0.3939  0.3894
   45MOL   C25322341   3.257   2.577   0.541  0.3668  0.0822 -0.3035
   45MOL   O25422342   3.326   2.531   0.665  0.0534  0.1734  0.2847
   45MOL   C25522343   3.372   2.396   0.654  0.9523  0.1041  0.6192
   45MOL   C25622344   3.439   2.366   0.794 -0.2430  0.7628  0.3698
   45MOL   C25722345   3.565   2.446   0.835  0.0177 -0.1090  0.6363
   45MOL   C25822346   3.593   2.448   0.982 -0.4176  0.9254 -0.2687
   45MOL   C25922347   3.732   2.502   1.020 -0.1267  0.1544 -0.1264
   45MOL   C26022348   3.766   2.500   1.172  0.0011  0.5101 -0.2278
   45MOL   H26122349   3.119   2.402   0.535 -0.3316  0.3906  0.3197
   45MOL   H26222350   3.075   2.533   0.434 -0.6526  1.5393  0.8347
   45MOL   H26322351   3.303   2.533   0.453  0.0759  0.8188 -0.8206
   45MOL   H26422352   3.451   2.386   0.580  0.2306  2.1048 -0.4847
   45MOL   H26522353   3.302   2.319   0.621  1.3235  0.3973 -0.9133
   45MOL   H26622354   3.467   2.261   0.798  1.0054  0.9582 -2.0847
   45MOL   H26722355   3.361   2.369   0.869 -1.1587  1.6268 -0.5963
   45MOL   H26822356   3.657   2.413   0.787 -0.2641  0.9103 -0.6553
   45MOL   H26922357   3.547   2.548   0.801 -0.2059 -0.7375 -1.1980
   45MOL   H27022358   3.527   2.512   1.041 -2.2572  0.4029 -1.7282
   45MOL   H27122359   3.598   2.345   1.016 -0.0813  0.3297 -2.0781
   45MOL   H27222360   3.813   2.450   0.969 -1.6109 -1.5705 -0.7853
   45MOL   H27322361   3.717   2.605   0.986 -2.7337 -1.0164 -2.7954
   45MOL   H27422362   3.677   2.533   1.227  0.8664  1.0607  0.8559
   45MOL   H27522363   3.808   2.403   1.200 -0.9458  0.3612  0.7260
   45MOL   H27622364   3.835   2.579   1.200  0.0443 -0.1157  1.5289
   45MOL   C27722365   3.252   2.731   0.532  0.1387 -0.1863 -0.2002
   45MOL   C27822366   3.390   2.804   0.502  0.5194  0.2361 -0.1805
   45MOL   O27922367   3.357   2.939   0.517 -0.6796  0.5256 -0.1108
   45MOL   C28022368   3.301   2.994   0.399 -0.3774  0.2284  0.2066
   45MOL   C28122369   3.264   3.138   0.419  0.4554  0.1995 -0.2756
   45MOL   C28222370   3.163   3.154   0.530  0.0112  0.6577  0.2321
   45MOL   C28322371   3.115   3.295   0.541 -0.8627 -0.1019  0.3789
   45MOL   C28422372   2.996   3.299   0.641 -0.0635  0.5361  0.0005
   45MOL   C28522373   2.937   3.432   0.677 -0.4535  0.1091 -0.2845
   45MOL   H28622374   3.186   2.733   0.445 -0.7041  0.0732  0.4445
   45MOL   H28722375   3.198   2.783   0.610 -1.3683  0.3016 -1.5372
   45MOL   H28822376   3.433   2.775   0.406 -0.6548 -0.9998 -0.3462
   45MOL   H28922377   3.212   2.945   0.360 -1.4797  0.3358  2.4832
   45MOL   H29022378   3.381   2.995   0.325  0.1467  0.6149  0.7761
   45MOL   H29122379   3.234   3.190   0.327 -2.2671  1.5321  1.3056
   45MOL   H29222380   3.350   3.201   0.445 -1.1829  2.4894 -0.2641
   45MOL   H29322381   3.083   3.085   0.503 -0.1438  0.8364  0.2358
   45MOL   H29422382   3.211   3.116   0.620 -0.2337  0.6305  0.3490
   45MOL   H29522383   3.191   3.363   0.577 -0.4585 -0.1193 -0.4541
   45MOL   H29622384   3.087   3.334   0.444  3.3807  0.6355 -0.6393
   45MOL   H29722385   2.913   3.238   0.605  1.0262 -2.1171  1.8048
   45MOL   H29822386   3.042   3.256   0.730 -1.2093 -1.2435 -0.2353
   45MOL   H29922387   3.017   3.505   0.674 -2.6146  2.4999 -1.5299
   45MOL   H30022388   2.868   3.458   0.597 -0.1557  1.8397  0.0108
   45MOL   H30122389   2.880   3.436   0.770  0.5335 -2.0983  0.4537
   45MOL   C30222390   3.491   2.772   0.610  0.3110  0.4307 -0.1123
   45MOL   C30322391   3.615   2.857   0.626 -0.6504  0.2721  0.0968
   45MOL   O30422392   3.707   2.779   0.699  0.5364 -0.0967  0.0636
   45MOL   C30522393   3.847   2.813   0.695  0.0930 -0.3877 -0.2095
   45MOL   C30622394   3.930   2.720   0.780 -0.5222  0.2369 -0.3075
   45MOL   C30722395   4.074   2.776   0.799 -0.1087 -0.5309 -0.4533
   45MOL   C30822396   4.153   2.698   0.906 -0.0463  0.0774 -0.5833
   45MOL   C30922397   4.093   2.695   1.054 -0.0106 -0.1761 -0.1536
   45MOL   C31022398   4.148   2.587   1.148  0.1238  0.4363  0.1584
   45MOL   H31122399   3.462   2.749   0.712 -0.0800 -0.5549 -0.4405
   45MOL   H31222400   3.524   2.670   0.586  3.4873  0.7218  2.5071
   45MOL   H31322401   3.660   2.875   0.528 -0.5972 -0.6974 -0.0596
   45MOL   H31422402   3.870   2.916   0.722  0.2039 -0.4905  0.0926
   45MOL   H31522403   3.880   2.798   0.593 -0.3542  1.9282 -0.7183
   45MOL   H31622404   3.936   2.627   0.723 -1.7263 -0.6566  0.9930
   45MOL   H31722405   3.865   2.699   0.865  1.1561 -0.7923  0.7559
   45MOL   H31822406   4.133   2.780   0.707  0.3622  0.4263 -0.1119
   45MOL   H31922407   4.067   2.879   0.834 -1.1005 -0.4372 -0.9153
   45MOL   H32022408   4.143   2.598   0.863 -1.0965  0.6357 -1.6744
   45MOL   H32122409   4.254   2.736   0.921 -0.4210  0.5761  0.7244
   45MOL   H32222410   4.123   2.788   1.101  0.7557 -1.4766  2.0093
   45MOL   H32322411   3.986   2.680   1.039 -0.3617  0.3976  1.7262
   45MOL   H32422412   4.257   2.584   1.148  0.1682  1.3155 -2.6446
   45MOL   H32522413   4.108   2.603   1.248 -1.1595  1.9895 -0.5829
   45MOL   H32622414   4.111   2.490   1.114  2.3707 -0.3091 -0.2389
   45MOL   C32722415   3.600   2.998   0.692  0.0030 -0.7590  0.4734
   45MOL   C32822416   3.540   2.999   0.836  0.3789  0.1119  0.4921
   45MOL   O32922417   3.616   3.093   0.919  0.5865 -0.2571 -0.2947
   45MOL   C33022418   3.736   3.036   0.968  0.1426 -0.3340 -0.6624
   45MOL   C33122419   3.794   3.125   1.081 -0.1429  0.5918 -0.3369
   45MOL   C33222420   3.909   3.049   1.145  0.4054  0.2949 -0.3079
   45MOL   C33322421   3.980   3.126   1.256 -0.2910  0.2354 -1.0403
   45MOL   C33422422   4.101   3.043   1.313 -0.2856  0.1537 -0.0809
   45MOL   C33522423   4.055   2.935   1.413  0.4768 -0.4357 -0.1870
   45MOL   H33622424   3.544   3.059   0.621  1.4059 -0.7617 -0.6513
   45MOL   H33722425   3.696   3.049   0.699 -0.8955  0.7212  2.4399
   45MOL   H33822426   3.541   2.901   0.882 -4.2624  1.4686  3.8812
   45MOL   H33922427   3.813   3.035   0.892  2.0529  1.2678  1.1886
   45MOL   H34022428   3.717   2.935   1.003 -4.3065  0.5054 -0.3067
   45MOL   H34122429   3.718   3.143   1.157 -1.2113 -1.7673 -0.8018
   45MOL   H34222430   3.834   3.219   1.043  1.2967 -0.3025 -1.1173
   45MOL   H34322431   3.857   2.960   1.182  0.1641 -0.2071 -1.8489
   45MOL   H34422432   3.990   3.018   1.079  0.3861  0.5421 -0.4482
   45MOL   H34522433   4.013   3.220   1.213 -0.9819  0.8116 -0.3292
   45MOL   H34622434   3.909   3.170   1.326 -1.6036 -1.5235 -1.2476
   45MOL   H34722435   4.159   2.994   1.235  1.4317  0.1601  1.1594
   45MOL   H34822436   4.172   3.105   1.367 -0.8181 -0.5001  1.4071
   45MOL   H34922437   4.044   2.841   1.361  1.6011 -1.0996  0.7399
   45MOL   H35022438   4.138   2.931   1.484  0.6339  2.1907 -0.1684
   45MOL   H35122439   3.970   2.967   1.473 -0.1784 -0.5507 -1.0491
   45MOL   C35222440   3.395   3.065   0.842  0.7189  0.3528 -0.0973
   45MOL   C35322441   3.311   3.063   0.975  0.0456  0.4633 -0.4851
   45MOL   O35422442   3.278   2.929   1.009 -0.3094 -0.7603  0.2774
   45MOL   C35522443   3.355   2.872   1.120 -0.6522  0.2621  0.8445
   45MOL   C35622444   3.319   2.722   1.132  0.3645 -0.0086 -0.0847
   45MOL   C35722445   3.362   2.661   1.261 -0.5815 -0.3643 -0.2317
   45MOL   C35822446   3.327   2.511   1.284  0.5565 -0.1741  0.0855
   45MOL   C35922447   3.400   2.445   1.401 -0.0392  1.1909  0.1351
   45MOL   C36022448   3.392   2.294   1.419 -0.0428 -0.2960 -0.3166
   45MOL   H36122449   3.412   3.171   0.823 -0.6578  0.1465 -2.8129
   45MOL   H36222450   3.335   3.024   0.760  1.2349 -0.4324 -0.0889
   45MOL   H36322451   3.363   3.106   1.060 -0.5283 -1.0879  0.6842
   45MOL   H36422452   3.337   2.932   1.209 -2.8310 -1.4058  1.5860
   45MOL   H36522453   3.461   2.872   1.095 -0.6367  2.5475  0.8422
   45MOL   H36622454   3.363   2.667   1.048 -0.3513 -1.6272  0.5693
   45MOL   H36722455   3.211   2.708   1.136  0.4682 -0.6000  1.1337
   45MOL   H36822456   3.470   2.672   1.264 -0.6153  0.4473 -1.4358
   45MOL   H36922457   3.321   2.719   1.343  0.0615 -1.0808  0.6042
   45MOL   H37022458   3.221   2.490   1.277  0.1675  1.1359  1.7695
   45MOL   H37122459   3.352   2.456   1.193  0.8013  0.3138 -0.1419
   45MOL   H37222460   3.507   2.462   1.397 -0.0208  1.3655  1.2015
   45MOL   H37322461   3.368   2.486   1.497 -2.9850  2.4397 -1.3235
   45MOL   H37422462   3.328   2.266   1.502 -1.0650 -1.1281 -1.3611
   45MOL   H37522463   3.355   2.246   1.328 -0.9249  1.0752 -0.6981
   45MOL   H37622464   3.492   2.260   1.444 -0.1656 -1.4166 -1.3131
   45MOL   C37722465   3.186   3.142   0.963  0.5254 -0.6337  0.0013
   45MOL   C37822466   3.088   3.125   1.085 -0.1255  0.3350 -0.1041
   45MOL   O37922467   2.952   3.130   1.042 -0.3126 -0.9398 -0.2144
   45MOL   C38022468   2.899   3.017   0.971 -0.1767 -0.0830  0.2089
   45MOL   C38122469   2.753   2.997   0.988 -0.0928 -0.0657  0.4162
   45MOL   C38222470   2.668   3.067   0.885  0.0625 -0.1108  0.5335
   45MOL   C38322471   2.515   3.034   0.894 -0.2997 -0.0558 -0.0932
   45MOL   C38422472   2.427   3.113   0.999  0.8002  0.3444  0.4564
   45MOL   C38522473   2.280   3.049   0.995 -0.6281  0.1114  0.3088
   45MOL   H38622474   3.203   3.247   0.939  1.0436 -0.6807  0.1673
   45MOL   H38722475   3.134   3.101   0.876 -0.6336 -1.3100  1.0040
   45MOL   H38822476   3.115   3.039   1.145 -0.6913  0.6838  0.6634
   45MOL   H38922477   2.954   2.926   0.996 -1.2895 -0.6866  0.4902
   45MOL   H39022478   2.921   3.029   0.865 -0.1653  0.8734  0.3178
   45MOL   H39122479   2.726   3.021   1.091  1.2834  2.2484  0.2727
   45MOL   H39222480   2.731   2.890   0.983  0.2005 -0.1445  0.7906
   45MOL   H39322481   2.690   3.174   0.893 -1.6047  0.2993 -0.1900
   45MOL   H39422482   2.694   3.041   0.782 -1.0230  1.6029 -0.1977
   45MOL   H39522483   2.480   3.044   0.791 -0.9417  0.1250  0.1444
   45MOL   H39622484   2.508   2.926   0.909 -1.1940 -0.3151 -2.1654
   45MOL   H39722485   2.470   3.094   1.098  0.6151 -0.8848  0.3077
   45MOL   H39822486   2.428   3.221   0.985 -1.1400  0.2951 -0.1205
   45MOL   H39922487   2.237   3.071   0.898  0.8749  1.6555 -0.0298
   45MOL   H40022488   2.280   2.940   0.998 -0.3227  0.0638 -1.2498
   45MOL   H40122489   2.219   3.088   1.077 -0.4368  1.2022 -0.0596
   45MOL   C40222490   3.086   3.241   1.195 -0.8333 -0.7554 -0.2765
   45MOL   C40322491   3.217   3.270   1.270 -0.5365 -0.0624 -0.2355
   45MOL   O40422492   3.200   3.334   1.391 -0.0189  0.1320 -0.2198
   45MOL   C40522493   3.144   3.260   1.497  0.3384 -0.2283  0.3687
   45MOL   C40622494   3.175   3.331   1.618  0.4900  0.3468  0.2540
   45MOL   C40722495   3.091   3.463   1.615 -0.2625  1.0156 -0.5904
   45MOL   C40822496   3.123   3.562   1.727 -0.0649 -0.1842 -0.2515
   45MOL   C40922497   3.248   3.650   1.696 -0.2848 -0.3827 -0.2345
   45MOL   C41022498   3.276   3.764   1.799 -0.1729 -0.1633  0.2046
   45MOL   H41122499   3.018   3.206   1.274 -2.0599 -1.9154 -1.8194
   45MOL   H41222500   3.049   3.338   1.163 -0.3956 -0.5079 -0.0463
   45MOL   H41322501   3.262   3.175   1.296 -2.1070 -1.0540 -1.0466
   45MOL   H41422502   3.166   3.153   1.494 -0.4573 -0.3518 -1.9504
   45MOL   H41522503   3.036   3.273   1.488  0.4920  2.1687  1.5200
   45MOL   H41622504   3.278   3.366   1.619  1.6457 -2.9530  1.0388
   45MOL   H41722505   3.177   3.268   1.707  0.5988  0.3303  0.2397
   45MOL   H41822506   3.102   3.511   1.518  1.0404  0.8676 -0.5251
   45MOL   H41922507   2.988   3.427   1.618 -0.6468  2.0799 -0.7946
   45MOL   H42022508   3.043   3.631   1.750 -1.0169 -1.9677  2.0079
   45MOL   H42122509   3.146   3.506   1.818 -1.5019  1.5678  1.2204
   45MOL   H42222510   3.333   3.581   1.690  0.9703  1.0268  1.0363
   45MOL   H42322511   3.235   3.693   1.597 -1.5410  0.5577  0.3405
   45MOL   H42422512   3.369   3.815   1.774 -1.5517  2.0629 -0.5244
   45MOL   H42522513   3.199   3.841   1.800 -0.8583 -0.7464 -2.6654
   45MOL   H42622514   3.294   3.736   1.903  0.0621  3.0146  1.0618
   45MOL   C42722515   3.314   3.360   1.191  0.0848 -0.5041 -0.5093
   45MOL   C42822516   3.445   3.410   1.267  0.5591 -0.4299 -0.4206
   45MOL   O42922517   3.530   3.294   1.291  0.3692 -0.2596  0.1791
   45MOL   C43022518   3.561   3.278   1.435 -0.0500 -0.1462  0.2342
   45MOL   C43122519   3.638   3.152   1.457  0.3326 -0.3266  0.1821
   45MOL   C43222520   3.545   3.032   1.479 -0.5039  0.0991 -0.4472
   45MOL   C43322521   3.616   2.893   1.466 -0.3050  0.3893 -1.0526
   45MOL   C43422522   3.585   2.776   1.561 -0.2484  0.8538  0.5979
   45MOL   C43522523   3.683   2.657   1.536  0.0470  0.9529 -0.5566
   45MOL   H43622524   3.344   3.326   1.092  1.3354 -1.8426  0.3121
   45MOL   H43722525   3.255   3.450   1.179  0.1020 -0.6321 -1.5806
   45MOL   H43822526   3.438   3.462   1.363  0.3855 -0.6312 -0.3226
   45MOL   H43922527   3.465   3.273   1.485  0.2378 -1.5428  0.6595
   45MOL   H44022528   3.623   3.359   1.474  0.3008 -0.9203  1.3141
   45MOL   H44122529   3.720   3.148   1.529 -0.6344 -1.0728  1.2481
   45MOL   H44222530   3.694   3.145   1.364 -1.3656  0.0960 -0.8955
   45MOL   H44322531   3.507   3.047   1.580  1.6162 -3.7937  1.0658
   45MOL   H44422532   3.458   3.035   1.414 -0.6566  0.3636 -0.2310
   45MOL   H44522533   3.604   2.844   1.369  0.4514 -1.1385 -0.4024
   45MOL   H44622534   3.721   2.919   1.478  0.3785 -1.5294 -2.5517
   45MOL   H44722535   3.597   2.791   1.669 -1.1050 -1.4401  1.0347
   45MOL   H44822536   3.484   2.750   1.528  0.3274  0.8461 -1.2180
   45MOL   H44922537   3.692   2.579   1.611 -0.7711  0.8885 -0.5208
   45MOL   H45022538   3.673   2.603   1.442 -0.8687 -0.8158  0.5361
   45MOL   H45122539   3.783   2.701   1.538  1.2192 -1.6719  1.1988
   45MOL   C45222540   3.519   3.515   1.182  0.3962  0.1661  0.8307
   45MOL   C45322541   3.631   3.592   1.252 -0.1975 -0.0732  0.1100
   45MOL   O45422542   3.583   3.681   1.344  0.0447 -0.4030 -0.3039
   45MOL   C45522543   3.663   3.699   1.459 -0.2601 -0.1312 -0.2459
   45MOL   C45622544   3.610   3.831   1.529  0.7723  0.7122  0.1640
   45MOL   C45722545   3.693   3.890   1.640 -0.1806  0.1741 -0.0213
   45MOL   C45822546   3.627   4.008   1.716  0.8943  0.1095 -0.2416
   45MOL   C45922547   3.598   4.128   1.634 -0.6431  0.3118  0.6094
   45MOL   C46022548   3.546   4.254   1.708 -0.5785 -0.1153  0.0398
   45MOL   H46122549   3.552   3.474   1.087 -0.6454  1.6902 -0.2044
   45MOL   H46222550   3.441   3.586   1.154 -0.2166 -1.0748 -0.6770
   45MOL   H46322551   3.696   3.521   1.303 -2.3252 -0.4712  2.3993
   45MOL   H46422552   3.771   3.702   1.440  0.3183 -0.1262  2.7942
   45MOL   H46522553   3.650   3.618   1.532  3.2325 -0.9409 -0.4146
   45MOL   H46622554   3.507   3.825   1.563  0.4791 -0.2338 -0.8486
   45MOL   H46722555   3.606   3.899   1.444  1.5862 -0.8263 -1.1320
   45MOL   H46822556   3.713   3.808   1.709 -0.3434  2.3467  2.6681
   45MOL   H46922557   3.782   3.930   1.591 -0.4764 -0.6001 -1.2177
   45MOL   H47022558   3.531   3.981   1.761  0.2075 -1.1899 -2.4152
   45MOL   H47122559   3.699   4.025   1.796  2.9655  1.2419 -2.2871
   45MOL   H47222560   3.683   4.149   1.570 -1.2142  0.4401 -0.1127
   45MOL   H47322561   3.526   4.098   1.558  0.4963  1.7671 -1.0662
   45MOL   H47422562   3.618   4.277   1.787  0.3384  1.0223 -1.1058
   45MOL   H47522563   3.564   4.338   1.641 -0.5552  0.9590  1.3572
   45MOL   H47622564   3.443   4.250   1.744 -0.6826  0.9985 -0.1225
   45MOL   C47722565   3.705   3.689   1.153  0.5329 -0.6205  0.0445
   45MOL   C47822566   3.790   3.636   1.042  0.1857  0.1764 -0.0061
   45MOL   O47922567   3.922   3.616   1.095 -0.0522  0.1075 -0.1211
   45MOL   C48022568   4.023   3.587   1.003 -0.5810 -0.6847  0.6232
   45MOL   C48122569   4.036   3.435   0.993  0.3484 -0.4673  0.1299
   45MOL   C48222570   4.154   3.393   0.911 -0.1179 -0.7860  0.5737
   45MOL   C48322571   4.178   3.248   0.916  0.1806 -0.0884 -0.5438
   45MOL   C48422572   4.278   3.224   0.794 -0.0261 -0.1503 -0.1233
   45MOL   C48522573   4.323   3.077   0.779  0.3667 -0.1206  0.5142
   45MOL   H48622574   3.625   3.736   1.095  0.3874  0.4862  1.1231
   45MOL   H48722575   3.766   3.767   1.197  1.8479 -1.1219 -0.8773
   45MOL   H48822576   3.750   3.543   1.002 -0.5053 -0.6201  2.4127
   45MOL   H48922577   4.116   3.629   1.040  0.0836 -0.0446 -1.7162
   45MOL   H49022578   4.008   3.634   0.906  0.0822  2.1400  1.8373
   45MOL   H49122579   3.942   3.394   0.957 -0.0580  1.3939 -1.0011
   45MOL   H49222580   4.049   3.398   1.095  1.0629 -0.6723 -0.0316
   45MOL   H49322581   4.148   3.430   0.809 -1.5190 -0.8791  0.6025
   45MOL   H49422582   4.235   3.457   0.943 -1.0622 -0.2805  2.0286
   45MOL   H49522583   4.218   3.215   1.012 -1.1272 -0.2374 -0.0439
   45MOL   H49622584   4.092   3.187   0.890  0.2239 -0.9732  1.3053
   45MOL   H49722585   4.224   3.249   0.703  0.1919 -0.2842 -0.2910
   45MOL   H49822586   4.361   3.292   0.811 -0.9744  0.9789  0.0516
   45MOL   H49922587   4.344   3.025   0.872 -0.7668  0.2506  0.9828
   45MOL   H50022588   4.229   3.032   0.746  0.7904 -0.2882 -0.4971
   45MOL   H50122589   4.398   3.056   0.702 -0.7003  0.0477 -0.5964
   45MOL   H50222590   3.804   3.709   0.962 -2.0922  3.3947  2.4014
   46MOL     C122591   2.105   7.671   1.217 -0.3171 -0.1734  0.5345
   46MOL     C222592   2.044   0.021   1.273 -0.1309  0.2966 -0.1741
   46MOL     O322593   1.904   0.008   1.245 -0.5215  0.1018  0.4408
   46MOL     C422594   1.822   7.747   1.358 -0.5765 -0.7364  0.1220
   46MOL     C522595   1.682   7.735   1.304  0.1303  0.4752 -0.0149
   46MOL     C622596   1.672   7.600   1.235 -0.0840 -0.0231  0.2876
   46MOL     C722597   1.543   7.582   1.155  0.2503  0.1177  0.1987
   46MOL     C822598   1.553   7.466   1.054  0.2235 -0.1383  0.3093
   46MOL     C922599   1.434   7.476   0.957  0.4169 -0.2732 -0.2747
   46MOL    H1022600   2.214   7.672   1.219 -0.3158 -1.1491  2.0884
   46MOL    H1122601   2.078   7.588   1.283 -1.2246  0.2764  0.7523
   46MOL    H1222602   2.072   0.033   1.378 -0.6898  0.5500 -0.0547
   46MOL    H1322603   1.832   0.042   1.437  2.6454 -1.0287  0.0619
   46MOL    H1422604   1.842   7.649   1.402  0.9122 -0.6582 -0.3343
   46MOL    H1522605   1.662   0.041   1.238 -0.1807  0.7828  0.4741
   46MOL    H1622606   1.617   7.737   1.391 -0.3437  1.1950 -0.3795
   46MOL    H1722607   1.751   7.591   1.161 -0.6092 -0.2367 -0.2546
   46MOL    H1822608   1.682   7.527   1.316  1.5745  0.2961  0.3782
   46MOL    H1922609   1.454   7.558   1.213 -0.1208  1.9105  0.4022
   46MOL    H2022610   1.517   7.671   1.097  0.0844 -0.3147 -0.3925
   46MOL    H2122611   1.547   7.368   1.101  1.2959 -0.1563  0.4039
   46MOL    H2222612   1.647   7.464   0.999 -0.1628  0.6756 -0.3917
   46MOL    H2322613   1.445   7.563   0.893  1.3974  0.3877  0.7595
   46MOL    H2422614   1.420   7.396   0.884  3.8623  0.8934 -2.3165
   46MOL    H2522615   1.341   7.495   1.010 -0.1508 -3.0658 -0.1685
   46MOL    H2622616   2.070   7.655   1.115  0.7478 -1.4317  0.3548
   46MOL    C2722617   2.092   0.148   1.206  0.1977  0.2480 -0.3012
   46MOL    C2822618   2.040   0.278   1.282  0.0004  0.2466  0.2770
   46MOL    O2922619   2.141   0.378   1.254 -0.5557  0.1962 -0.6853
   46MOL    C3022620   2.188   0.458   1.369  0.8151  0.4035  0.1938
   46MOL    C3122621   2.284   0.574   1.315  0.5830  0.3209  0.1152
   46MOL    C3222622   2.434   0.535   1.300 -0.1587 -0.3517  0.0450
   46MOL    C3322623   2.511   0.663   1.289 -0.4749  0.7142  0.5170
   46MOL    C3422624   2.651   0.629   1.234 -0.0530 -0.1432 -0.0343
   46MOL    C3522625   2.736   0.747   1.196  0.0006  0.4372  0.5244
   46MOL    H3622626   2.201   0.151   1.201  0.1670  2.2375 -0.1168
   46MOL    H3722627   2.056   0.159   1.103  2.8946 -2.1878 -1.5880
   46MOL    H3822628   2.029   0.250   1.387 -2.6163  0.7878  0.1761
   46MOL    H3922629   2.243   0.392   1.436 -1.6762 -1.1414  0.7849
   46MOL    H4022630   2.101   0.497   1.422  1.6095 -1.5195  3.0785
   46MOL    H4122631   2.284   0.651   1.393  0.7476  0.2395  0.1953
   46MOL    H4222632   2.257   0.626   1.224  0.9067 -0.2306 -0.2954
   46MOL    H4322633   2.471   0.491   1.393 -1.1296  0.1863  0.6947
   46MOL    H4422634   2.430   0.468   1.215  1.9625 -1.6053  0.9040
   46MOL    H4522635   2.466   0.730   1.215  0.9559  2.0876  0.8811
   46MOL    H4622636   2.516   0.712   1.386  6.2218 -1.0539  1.2911
   46MOL    H4722637   2.706   0.580   1.315  0.2349 -0.3621 -0.3627
   46MOL    H4822638   2.641   0.565   1.146  1.5070  1.0735 -1.1053
   46MOL    H4922639   2.829   0.709   1.154 -0.4893 -0.9362  0.6835
   46MOL    H5022640   2.682   0.815   1.129  0.2525  1.5358  1.4057
   46MOL    H5122641   2.742   0.816   1.281 -0.0642 -0.2610  1.1020
   46MOL    C5222642   1.915   0.327   1.217  0.4406 -0.1203 -0.0426
   46MOL    C5322643   1.842   0.445   1.290 -0.2974  0.3141  0.1720
   46MOL    O5422644   1.737   0.494   1.209 -0.4905  0.5582  0.3384
   46MOL    C5522645   1.766   0.571   1.098  0.4269 -0.5602 -0.0476
   46MOL    C5622646   1.644   0.641   1.055  0.4529 -0.5060 -0.3140
   46MOL    C5722647   1.666   0.750   0.951 -0.8120 -0.4644 -0.5303
   46MOL    C5822648   1.542   0.825   0.903 -0.1629  0.1692  0.2128
   46MOL    C5922649   1.568   0.923   0.780  0.2841  0.4616 -0.1143
   46MOL    C6022650   1.445   1.002   0.734  0.4851  0.0390  0.7690
   46MOL    H6122651   1.839   0.250   1.218  1.2665 -0.9432  0.5066
   46MOL    H6222652   1.928   0.348   1.110  1.3037 -1.3187 -0.1819
   46MOL    H6322653   1.914   0.523   1.314 -0.7885  1.0439 -0.7254
   46MOL    H6422654   1.799   0.496   1.026 -0.3092 -0.7438 -0.1961
   46MOL    H6522655   1.840   0.646   1.128  2.5702 -1.5498 -2.6988
   46MOL    H6622656   1.598   0.681   1.145  1.7491  0.4338 -0.0398
   46MOL    H6722657   1.571   0.576   1.007 -1.1055  0.7119  0.3643
   46MOL    H6822658   1.725   0.834   0.987  0.0991 -1.4933  0.4213
   46MOL    H6922659   1.721   0.704   0.869 -0.6025 -1.0610 -0.0621
   46MOL    H7022660   1.457   0.759   0.884 -0.3867  0.8928 -1.4530
   46MOL    H7122661   1.503   0.888   0.983  0.4796  3.0758 -1.6440
   46MOL    H7222662   1.647   0.995   0.801 -0.2123  1.7946 -2.6355
   46MOL    H7322663   1.615   0.866   0.700  1.0844  1.3616 -0.2983
   46MOL    H7422664   1.469   1.070   0.652 -1.2112 -0.1065  0.1089
   46MOL    H7522665   1.375   0.928   0.695 -0.2921  0.3337  1.5915
   46MOL    H7622666   1.396   1.045   0.821  0.0045  0.1259  0.4609
   46MOL    C7722667   1.790   0.396   1.424 -0.1921 -0.7404 -0.1373
   46MOL    C7822668   1.693   0.492   1.502 -0.0607 -0.3565 -0.7161
   46MOL    O7922669   1.769   0.614   1.503  0.0446 -0.2339  0.0590
   46MOL    C8022670   1.700   0.735   1.469 -0.3495  0.6689 -0.1907
   46MOL    C8122671   1.797   0.854   1.492  0.0674 -0.0893 -0.3336
   46MOL    C8222672   1.910   0.855   1.395 -0.7761 -0.1213  0.0481
   46MOL    C8322673   2.006   0.981   1.395 -0.3388 -0.1755  0.5435
   46MOL    C8422674   2.130   0.974   1.304  0.5364  0.3931 -0.3552
   46MOL    C8522675   2.202   1.110   1.289  0.6548 -0.3198  0.1322
   46MOL    H8622676   1.869   0.382   1.497 -0.1610  1.9891  0.3973
   46MOL    H8722677   1.751   0.294   1.417 -1.2565 -0.2792 -1.0403
   46MOL    H8822678   1.600   0.506   1.447 -0.5081 -1.0675 -0.1435
   46MOL    H8922679   1.618   0.758   1.537 -0.4902  1.1404 -0.5191
   46MOL    H9022680   1.666   0.732   1.366 -1.3048  0.8717  0.1132
   46MOL    H9122681   1.845   0.858   1.590 -0.6970  0.0973  0.0386
   46MOL    H9222682   1.740   0.947   1.487 -1.1586 -0.6020  2.7699
   46MOL    H9322683   1.976   0.769   1.404  0.6913  0.5323 -3.6220
   46MOL    H9422684   1.879   0.850   1.291  0.1123 -0.8479 -0.1835
   46MOL    H9522685   1.956   1.070   1.358  0.7522  1.5952  3.1335
   46MOL    H9622686   2.039   1.013   1.494  2.0035  1.5024 -0.7487
   46MOL    H9722687   2.198   0.895   1.336  0.7272  0.5266 -0.4264
   46MOL    H9822688   2.088   0.960   1.205  0.3293  3.2919 -0.7184
   46MOL    H9922689   2.143   1.196   1.259 -0.9522 -0.8235  1.7201
   46MOL   H10022690   2.252   1.135   1.382  2.4024 -1.6244 -0.4309
   46MOL   H10122691   2.290   1.109   1.226 -0.2271  0.6151 -1.1349
   46MOL   C10222692   1.663   0.447   1.651  0.0432 -0.2979  0.0571
   46MOL   C10322693   1.579   0.319   1.666  0.2611 -0.3223  0.2641
   46MOL   O10422694   1.534   0.324   1.799  1.1707  0.4150  0.3404
   46MOL   C10522695   1.635   0.290   1.894  0.3500  0.2437 -0.4551
   46MOL   C10622696   1.598   0.349   2.036 -0.1857  0.1260  0.6517
   46MOL   C10722697   1.710   0.315   2.139 -0.4567 -0.4280 -0.0558
   46MOL   C10822698   1.664   0.353   2.283 -0.4162 -1.1212  0.4761
   46MOL   C10922699   1.614   0.239   2.367 -0.4443  0.1436  0.6665
   46MOL   C11022700   1.585   0.284   2.508 -0.1949  0.6507 -0.2241
   46MOL   H11122701   1.761   0.441   1.699  1.3958 -1.9349 -2.7707
   46MOL   H11222702   1.597   0.523   1.691  1.4334 -0.0069  1.8852
   46MOL   H11322703   1.629   0.225   1.643 -2.7806 -1.7528 -0.7429
   46MOL   H11422704   1.734   0.327   1.868  0.7090 -1.3666 -1.3923
   46MOL   H11522705   1.631   0.183   1.914  0.6465  0.3782  0.3600
   46MOL   H11622706   1.509   0.296   2.072  0.5132 -2.7952 -1.6537
   46MOL   H11722707   1.571   0.454   2.032  2.3814  0.8664  2.1333
   46MOL   H11822708   1.746   0.212   2.131  2.2713  0.5101 -0.3198
   46MOL   H11922709   1.797   0.376   2.114 -0.6930 -0.9963 -2.4524
   46MOL   H12022710   1.756   0.383   2.333  0.7649 -2.1170 -1.0749
   46MOL   H12122711   1.597   0.439   2.284  0.7616 -0.1851  1.0303
   46MOL   H12222712   1.526   0.192   2.323  0.4126 -1.8719  1.0410
   46MOL   H12322713   1.691   0.161   2.367 -0.8860 -0.3008  1.1358
   46MOL   H12422714   1.504   0.357   2.512 -0.0779  0.7596  0.3101
   46MOL   H12522715   1.563   0.199   2.572 -0.4190  0.2730 -0.8059
   46MOL   H12622716   1.678   0.327   2.547  0.8437 -1.8608  0.1608
   46MOL   C12722717   1.451   0.316   1.580 -0.9521 -1.0179  0.6289
   46MOL   C12822718   1.351   0.210   1.616  0.1447 -0.7945 -1.0032
   46MOL   O12922719   1.406   0.082   1.596 -0.4511  0.5044  0.7224
   46MOL   C13022720   1.433   0.017   1.721 -0.1374 -0.0347  0.3325
   46MOL   C13122721   1.521   7.676   1.687 -0.3358 -0.4202 -0.0421
   46MOL   C13222722   1.478   7.575   1.578 -0.0737 -0.3969  0.4268
   46MOL   C13322723   1.391   7.459   1.624 -0.3114 -0.3320  0.2505
   46MOL   C13422724   1.350   7.367   1.508  0.2989  0.1081  0.7877
   46MOL   C13522725   1.282   7.236   1.563  0.0037 -0.2352 -1.0593
   46MOL   H13622726   1.401   0.413   1.580  0.1861 -0.4266  0.9463
   46MOL   H13722727   1.485   0.303   1.477 -1.4032  1.2050  0.1715
   46MOL   H13822728   1.324   0.229   1.720  0.4278 -1.2230 -0.8499
   46MOL   H13922729   1.340   7.768   1.771  0.0357  0.4322  0.9138
   46MOL   H14022730   1.484   0.073   1.799 -0.9844 -0.0822  0.9343
   46MOL   H14122731   1.536   7.622   1.780  0.3545 -1.2169 -0.6102
   46MOL   H14222732   1.619   7.702   1.649 -1.2853  2.3940 -0.6414
   46MOL   H14322733   1.439   7.628   1.492  1.1379 -1.3365 -0.7112
   46MOL   H14422734   1.564   7.522   1.536 -0.4892 -1.2825  0.6786
   46MOL   H14522735   1.455   7.398   1.689  0.9776  0.0790 -0.6121
   46MOL   H14622736   1.299   7.502   1.663  0.5131  1.8940 -0.1733
   46MOL   H14722737   1.289   7.431   1.444 -1.5020 -0.2790  2.0618
   46MOL   H14822738   1.427   7.334   1.439 -0.5828 -0.2388 -0.0486
   46MOL   H14922739   1.257   7.163   1.485  2.9627 -1.0619 -1.3015
   46MOL   H15022740   1.339   7.180   1.637  0.6933  0.4912 -1.0283
   46MOL   H15122741   1.189   7.256   1.616  0.4218 -0.4446 -0.2452
   46MOL   C15222742   1.237   0.215   1.523 -0.1896 -0.1591 -0.5445
   46MOL   C15322743   1.101   0.159   1.581 -0.7282  0.0292  0.1511
   46MOL   O15422744   1.062   0.244   1.687  0.0604 -0.2709  0.1716
   46MOL   C15522745   0.997   0.176   1.790 -0.6230 -0.7058  0.2523
   46MOL   C15622746   0.958   0.282   1.900  0.3704  0.5614 -0.2151
   46MOL   C15722747   0.898   0.200   2.016  0.2278 -0.1668 -0.5189
   46MOL   C15822748   0.822   0.294   2.107 -0.5522 -0.3371  0.0701
   46MOL   C15922749   0.742   0.207   2.201 -0.5284 -0.1708 -0.4896
   46MOL   C16022750   0.674   0.280   2.315  0.3321  0.4592  0.8439
   46MOL   H16122751   1.211   0.315   1.490  0.0219 -0.0359 -0.3368
   46MOL   H16222752   1.253   0.154   1.434  2.0910 -1.5393  0.7541
   46MOL   H16322753   1.133   0.066   1.629 -0.8322  0.5507  1.2393
   46MOL   H16422754   1.062   0.101   1.834 -0.0492 -0.5814 -0.3715
   46MOL   H16522755   0.908   0.125   1.754  0.7545 -2.4946 -0.7292
   46MOL   H16622756   0.889   0.359   1.867 -0.2943 -0.2869 -0.8505
   46MOL   H16722757   1.048   0.338   1.925  0.9682  0.6744 -2.5736
   46MOL   H16822758   0.828   0.126   1.978 -2.5966  0.4157  3.2500
   46MOL   H16922759   0.974   0.152   2.077 -0.3211 -2.5112 -1.6212
   46MOL   H17022760   0.892   0.362   2.157 -0.6463 -0.9790  1.0838
   46MOL   H17122761   0.753   0.360   2.054 -0.4956 -0.9306 -0.7354
   46MOL   H17222762   0.661   0.165   2.141 -1.3852  0.8527 -0.0813
   46MOL   H17322763   0.804   0.126   2.239  2.2016  1.2856 -1.7338
   46MOL   H17422764   0.636   0.210   2.389 -0.6575 -1.0771 -1.0834
   46MOL   H17522765   0.746   0.343   2.369  1.1467 -0.5111  0.9143
   46MOL   H17622766   0.586   0.337   2.287 -1.3343 -2.4323  0.1498
   46MOL   C17722767   0.997   0.159   1.472  0.0941 -0.0105 -0.8713
   46MOL   C17822768   1.002   0.046   1.374  0.4573  1.0054 -0.2309
   46MOL   O17922769   0.956   7.701   1.430  0.0820 -0.9621 -0.4585
   46MOL   C18022770   1.061   7.612   1.458 -0.6131  0.8453 -0.1728
   46MOL   C18122771   0.990   7.496   1.527 -0.5317  0.4830  0.3170
   46MOL   C18222772   0.990   7.517   1.681 -0.6204  1.2288  0.0977
   46MOL   C18322773   0.898   7.416   1.761  0.3037 -0.0121  0.4385
   46MOL   C18422774   0.899   7.439   1.916 -0.0295 -0.0974  0.2152
   46MOL   C18522775   0.816   7.555   1.967 -0.4385  0.0051 -0.3394
   46MOL   H18622776   0.900   0.148   1.520 -0.5088  1.8875 -1.6039
   46MOL   H18722777   1.004   0.256   1.423  0.5278 -0.2415 -1.2749
   46MOL   H18822778   1.104   0.030   1.339  0.9393  2.8065  0.3110
   46MOL   H18922779   1.147   7.649   1.514 -0.8949  0.6147  0.4139
   46MOL   H19022780   1.102   7.563   1.369  1.6368  0.6539  0.9381
   46MOL   H19122781   1.040   7.402   1.503 -1.9451 -0.1975 -0.0835
   46MOL   H19222782   0.895   7.482   1.475 -1.0520  3.0369  0.5271
   46MOL   H19322783   1.092   7.513   1.720 -0.5036  0.3936 -0.2810
   46MOL   H19422784   0.946   7.616   1.689 -0.0271  1.4950  0.0574
   46MOL   H19522785   0.799   7.408   1.716  0.1298 -0.4491  0.8882
   46MOL   H19622786   0.936   7.314   1.748 -1.0772 -0.4450 -0.3136
   46MOL   H19722787   0.849   7.358   1.971 -0.7409  0.5851  0.5956
   46MOL   H19822788   1.004   7.442   1.946 -0.4020  0.6824  1.5000
   46MOL   H19922789   0.867   7.643   1.929 -1.1168 -0.1196 -1.5573
   46MOL   H20022790   0.710   7.549   1.940 -0.4726 -0.0160 -0.2038
   46MOL   H20122791   0.819   7.562   2.076  1.0378 -2.5848 -0.1916
   46MOL   C20222792   0.901   0.066   1.263  0.4503 -0.7200 -0.6721
   46MOL   C20322793   0.886   7.730   1.155  0.1347 -0.2431  0.9187
   46MOL   O20422794   0.963   7.778   1.043 -0.0697 -0.8718  0.3583
   46MOL   C20522795   1.064   7.687   0.995 -1.0050 -0.1630  0.0091
   46MOL   C20622796   1.184   7.770   0.940 -0.2190  0.0977  0.0145
   46MOL   C20722797   1.257   0.080   1.051  0.0828  0.1309  0.2250
   46MOL   C20822798   1.382   0.149   1.006  0.0691  0.0882  0.0870
   46MOL   C20922799   1.453   0.229   1.118 -0.1059 -0.4180 -0.5365
   46MOL   C21022800   1.382   0.368   1.144  0.2346  0.2723 -0.0698
   46MOL   H21122801   0.806   0.082   1.313 -0.8661 -0.5387 -3.1513
   46MOL   H21222802   0.932   0.154   1.206  1.2708 -1.9910 -2.2229
   46MOL   H21322803   0.930   7.645   1.208 -0.7226 -1.1132  0.2409
   46MOL   H21422804   1.022   7.624   0.916  0.0896 -0.1658 -0.5792
   46MOL   H21522805   1.102   7.625   1.076 -1.4646 -0.9481 -0.3689
   46MOL   H21622806   1.143   0.049   0.857  0.3683  0.3428 -0.1086
   46MOL   H21722807   1.250   7.699   0.890  0.0586 -0.2815  0.9078
   46MOL   H21822808   1.190   0.158   1.086 -0.3500 -0.2730  0.3065
   46MOL   H21922809   1.284   0.024   1.141 -0.2366  0.3693  0.4664
   46MOL   H22022810   1.457   0.079   0.968  0.2612 -1.1129  2.5722
   46MOL   H22122811   1.361   0.208   0.916  0.7988  1.3183  0.7009
   46MOL   H22222812   1.446   0.169   1.209  1.9650  2.4375  1.5835
   46MOL   H22322813   1.559   0.237   1.091 -0.0589 -1.6537 -0.7493
   46MOL   H22422814   1.283   0.349   1.185  0.2512 -1.3700 -0.7774
   46MOL   H22522815   1.440   0.429   1.214  0.7941  0.6171 -0.8286
   46MOL   H22622816   1.350   0.423   1.055  1.5849  0.8309 -0.2245
   46MOL   C22722817   0.742   7.701   1.113 -0.7940  0.3951  0.6496
   46MOL   C22822818   0.707   7.585   1.022 -0.4807 -0.5197 -0.7531
   46MOL   O22922819   0.723   7.470   1.100  0.5178  0.1641 -0.4476
   46MOL   C23022820   0.773   7.359   1.025 -0.0652 -0.0248 -0.2598
   46MOL   C23122821   0.927   7.348   1.054 -0.1397  0.0115  0.6510
   46MOL   C23222822   0.953   7.301   1.192  0.2296 -0.3672  0.2374
   46MOL   C23322823   1.102   7.265   1.234  0.3273 -0.3047  0.4914
   46MOL   C23422824   1.149   7.143   1.137 -0.3886 -0.0890 -0.3349
   46MOL   C23522825   1.305   7.127   1.143  0.0334 -0.5756  0.4583
   46MOL   H23622826   0.687   7.683   1.205  0.6027 -2.0367  1.0471
   46MOL   H23722827   0.716   0.024   1.081 -0.3678 -0.2824 -1.9445
   46MOL   H23822828   0.775   7.597   0.938  0.2831  2.3713  0.2355
   46MOL   H23922829   0.766   7.358   0.916 -0.4839  2.9552 -0.3008
   46MOL   H24022830   0.719   7.269   1.056  0.2708 -0.0263  0.3127
   46MOL   H24122831   0.975   7.445   1.038  0.1417 -0.1787  0.3426
   46MOL   H24222832   0.967   7.271   0.989 -0.8897  2.1377 -2.4590
   46MOL   H24322833   0.918   7.382   1.256 -0.2513  0.0328 -0.5246
   46MOL   H24422834   0.886   7.215   1.205 -1.1909  0.7346  0.4057
   46MOL   H24522835   1.160   7.357   1.228 -0.5246  0.1778 -0.5262
   46MOL   H24622836   1.092   7.226   1.335  0.9523 -0.3755  0.5306
   46MOL   H24722837   1.100   7.050   1.163 -0.1137  0.3345  1.8611
   46MOL   H24822838   1.129   7.166   1.033 -4.3442 -0.7405  0.2095
   46MOL   H24922839   1.334   7.061   1.224 -0.7324  0.9306  1.9996
   46MOL   H25022840   1.336   7.076   1.052  0.4298 -1.3442  1.0201
   46MOL   H25122841   1.357   7.222   1.156 -0.4833  0.0102 -1.6388
   46MOL   C25222842   0.562   7.610   0.982 -0.9609 -0.2243  0.6896
   46MOL   C25322843   0.508   7.514   0.876 -0.3639  0.1161 -0.7876
   46MOL   O25422844   0.580   7.539   0.756 -0.2526 -1.0107  0.8438
   46MOL   C25522845   0.600   7.426   0.679 -0.1271  1.0128  0.1101
   46MOL   C25622846   0.720   7.436   0.583  0.1895 -0.5478  0.2447
   46MOL   C25722847   0.858   7.448   0.643 -0.5415  0.4824  0.3068
   46MOL   C25822848   0.966   7.459   0.528  0.0065  0.2325 -0.0202
   46MOL   C25922849   1.110   7.494   0.580  0.1840 -0.3445 -0.3915
   46MOL   C26022850   1.210   7.559   0.481  0.4342 -0.1624 -0.4783
   46MOL   H26122851   0.498   7.600   1.070 -0.0387  1.1904  1.5460
   46MOL   H26222852   0.557   7.711   0.940  1.0957 -0.4851 -0.2191
   46MOL   H26322853   0.501   7.413   0.916 -1.0487  1.1369  1.7557
   46MOL   H26422854   0.508   7.410   0.622  0.3518 -1.4909 -0.0249
   46MOL   H26522855   0.603   7.335   0.739  0.0268  0.1816 -1.1310
   46MOL   H26622856   0.702   7.523   0.519  2.1337  0.3974  0.9541
   46MOL   H26722857   0.724   7.354   0.513  2.7276 -0.5307  0.3544
   46MOL   H26822858   0.860   7.524   0.721  1.4337 -1.1252  1.8451
   46MOL   H26922859   0.883   7.357   0.696 -1.4393  1.4017  2.3574
   46MOL   H27022860   0.957   7.373   0.463  1.8985  0.0721 -0.1065
   46MOL   H27122861   0.940   7.538   0.456  0.0943 -0.8035 -1.2070
   46MOL   H27222862   1.103   7.550   0.673  0.7770 -2.3824  0.9121
   46MOL   H27322863   1.157   7.413   0.636  0.9112  0.9075  0.8369
   46MOL   H27422864   1.207   7.668   0.488  0.6273 -0.1965  0.1979
   46MOL   H27522865   1.310   7.522   0.502  0.2995 -1.2694 -1.7340
   46MOL   H27622866   1.184   7.531   0.379 -0.9833 -1.3031  0.1676
   46MOL   C27722867   0.361   7.556   0.846  0.1059 -0.0647 -0.2196
   46MOL   C27822868   0.256   7.494   0.946 -0.7669  0.1196 -0.3435
   46MOL   O27922869   0.247   7.586   1.054  0.1071 -0.3479  0.6425
   46MOL   C28022870   0.273   7.526   1.179 -0.9561 -0.3851 -0.4888
   46MOL   C28122871   0.295   7.649   1.266  0.6020 -0.0587  0.5041
   46MOL   C28222872   0.154   7.719   1.283  0.0918 -0.3221  0.1109
   46MOL   C28322873   0.150   0.067   1.379  0.8003 -0.4520 -0.0095
   46MOL   C28422874   0.220   0.187   1.324  0.2679  0.5719 -0.3495
   46MOL   C28522875   0.230   0.309   1.417  0.6195 -0.3446 -0.3772
   46MOL   H28622876   0.362   7.665   0.849  1.7820 -0.0827  1.1134
   46MOL   H28722877   0.343   7.540   0.740 -1.7599  0.2850  0.0273
   46MOL   H28822878   0.290   7.398   0.984 -0.7946 -0.6205 -2.1376
   46MOL   H28922879   0.355   7.456   1.167  0.1719  1.0738 -1.4962
   46MOL   H29022880   0.186   7.466   1.205 -1.2079  0.4600  0.6650
   46MOL   H29122881   0.381   7.712   1.241  1.5836 -1.8588 -0.7373
   46MOL   H29222882   0.320   7.603   1.361 -1.7025 -0.2806  1.0320
   46MOL   H29322883   0.124   7.754   1.184  2.7180  0.9501 -0.2657
   46MOL   H29422884   0.069   7.660   1.318 -0.7500 -0.3591 -1.9259
   46MOL   H29522885   0.047   0.095   1.401  0.0281 -2.5986 -0.7621
   46MOL   H29622886   0.183   0.040   1.479  1.0461 -0.8130 -0.1855
   46MOL   H29722887   0.317   0.164   1.280  1.4043  1.5193  1.5697
   46MOL   H29822888   0.157   0.223   1.243 -0.6474  1.1741  0.6116
   46MOL   H29922889   0.134   0.335   1.461  0.6016  1.6415 -1.5319
   46MOL   H30022890   0.296   0.294   1.503 -0.1473  1.5550  0.5596
   46MOL   H30122891   0.277   0.393   1.366  0.7323 -0.0842  0.1544
   46MOL   C30222892   0.121   7.480   0.868 -0.3443 -0.1333 -0.0849
   46MOL   C30322893   0.011   7.407   0.948 -0.1820 -0.5713  0.6005
   46MOL   O30422894   0.044   7.269   0.945  0.6382 -0.3159 -0.1016
   46MOL   C30522895   7.745   7.193   1.039 -0.2876  0.2450 -0.4117
   46MOL   C30622896   7.778   7.047   1.013 -0.4094 -0.1491 -0.3510
   46MOL   C30722897   7.686   6.945   1.081  0.2636  0.5195 -0.7423
   46MOL   C30822898   7.715   6.793   1.054 -0.0147 -0.1464  0.4902
   46MOL   C30922899   7.642   6.687   1.130  0.1021 -0.7930  0.1627
   46MOL   C31022900   7.492   6.679   1.099  0.4477 -0.1387 -0.1248
   46MOL   H31122901   0.085   7.579   0.839  0.5940  0.4825  0.8021
   46MOL   H31222902   0.137   7.422   0.777 -2.8545  1.3198 -1.5413
   46MOL   H31322903   0.017   7.449   1.048 -1.4410  0.2282  0.3550
   46MOL   H31422904   7.637   7.206   1.026 -0.4729 -1.1321 -0.2715
   46MOL   H31522905   7.763   7.221   1.143  0.4429 -0.2368 -0.4092
   46MOL   H31622906   0.092   7.035   1.070 -0.9658  2.4634  1.2375
   46MOL   H31722907   0.013   7.027   0.907 -0.0724  2.6163 -0.8770
   46MOL   H31822908   7.690   6.963   1.189  0.6400 -1.2595 -0.4495
   46MOL   H31922909   7.584   6.965   1.048 -0.0409  0.7211  0.3064
   46MOL   H32022910   7.692   6.780   0.948  0.2677  3.8111 -0.1429
   46MOL   H32122911   0.043   6.775   1.065  0.1631  0.6524  0.1099
   46MOL   H32222912   7.685   6.589   1.114 -0.2148 -1.0988  1.1214
   46MOL   H32322913   7.663   6.701   1.236 -2.5893  0.5807  0.5834
   46MOL   H32422914   7.485   6.629   1.003 -0.6052 -0.6386  0.2097
   46MOL   H32522915   7.435   6.620   1.171  0.6402 -1.0060 -0.6747
   46MOL   H32622916   7.428   6.767   1.100 -0.0948 -0.5041 -1.6797
   46MOL   C32722917   7.653   7.450   0.893 -0.1975 -0.2146  0.0973
   46MOL   C32822918   7.586   7.578   0.963 -0.1225  0.1907  0.1118
   46MOL   O32922919   7.469   7.624   0.889 -0.3437 -0.1506 -0.4515
   46MOL   C33022920   7.479   7.762   0.857  0.3609  0.7330 -0.4021
   46MOL   C33122921   7.386   0.019   0.744  0.2421  0.1936 -0.0759
   46MOL   C33222922   7.375   0.172   0.712 -0.4522 -0.2368 -0.2508
   46MOL   C33322923   7.270   0.213   0.611 -0.2038  0.3821 -0.0816
   46MOL   C33422924   7.313   0.187   0.464  0.8470  0.3891 -0.1302
   46MOL   C33522925   7.197   0.211   0.360 -0.2959 -0.1353  0.0516
   46MOL   H33622926   7.584   7.367   0.908 -1.5987  1.1036  1.1779
   46MOL   H33722927   7.665   7.475   0.788  0.6923  0.3866  0.3406
   46MOL   H33822928   7.668   7.645   0.987 -0.2530 -0.2425  1.7835
   46MOL   H33922929   7.581   0.013   0.832  0.6443  0.0611 -0.0361
   46MOL   H34022930   7.444   0.028   0.951 -0.8342  2.5969 -1.6964
   46MOL   H34122931   7.289   7.759   0.776  0.3786  0.7836  1.0995
   46MOL   H34222932   7.432   7.753   0.656  2.0841 -0.3462  1.0989
   46MOL   H34322933   7.356   0.230   0.802  0.0634  2.4436 -1.7895
   46MOL   H34422934   7.479   0.189   0.684 -0.3462  1.0151  0.8458
   46MOL   H34522935   7.170   0.185   0.643 -0.6501  0.2018 -1.5897
   46MOL   H34622936   7.267   0.322   0.613  0.7694  0.4007  1.0070
   46MOL   H34722937   7.390   0.261   0.446  0.9149 -0.1297 -2.1009
   46MOL   H34822938   7.355   0.087   0.453  1.6593  0.4330  2.3312
   46MOL   H34922939   7.162   0.313   0.378  2.1245  0.7376 -0.0861
   46MOL   H35022940   7.227   0.209   0.256  0.6403  1.2087  0.2904
   46MOL   H35122941   7.113   0.142   0.372  0.4902 -1.0571  0.3248
   46MOL   C35222942   7.541   7.540   1.100  0.6130 -0.5858 -0.2035
   46MOL   C35322943   7.441   7.628   1.182 -0.6224  0.4446 -0.0392
   46MOL   O35422944   7.508   7.741   1.228  0.3242  0.1381 -0.2121
   46MOL   C35522945   7.421   0.079   1.228 -0.9529 -0.2833  0.2021
   46MOL   C35622946   7.509   0.188   1.271 -0.1623  0.0912  0.1069
   46MOL   C35722947   7.603   0.233   1.156 -0.5814  0.8389  0.1181
   46MOL   C35822948   7.666   0.372   1.184  0.2421  0.8190 -0.3589
   46MOL   C35922949   7.776   0.406   1.091  0.1511 -0.0897  0.2664
   46MOL   C36022950   0.068   0.535   1.128 -0.3476  0.3641  0.7309
   46MOL   H36122951   7.484   7.447   1.096 -0.1319 -0.1080 -0.8620
   46MOL   H36222952   7.624   7.523   1.169 -1.9854  3.8998  4.3403
   46MOL   H36322953   7.359   7.658   1.117  0.4827  2.5909 -0.4769
   46MOL   H36422954   7.339   0.057   1.296 -0.3459 -1.6946  0.5190
   46MOL   H36522955   7.381   0.107   1.131 -2.0581 -2.7433 -0.0900
   46MOL   H36622956   7.560   0.152   1.361 -1.2471 -0.1155  0.6500
   46MOL   H36722957   7.452   0.279   1.292 -3.1971 -1.2259 -2.1469
   46MOL   H36822958   7.677   0.154   1.144 -1.2306  0.1735  0.4608
   46MOL   H36922959   7.562   0.229   1.055  0.7744 -4.6973 -0.3442
   46MOL   H37022960   7.589   0.450   1.185 -3.3086 -2.5386 -0.7445
   46MOL   H37122961   7.703   0.368   1.286 -0.2441  2.8929 -0.0649
   46MOL   H37222962   0.067   0.324   1.071 -0.2903 -0.3031 -0.4173
   46MOL   H37322963   7.724   0.420   0.996  0.0932 -1.1706  0.1277
   46MOL   H37422964   0.001   0.613   1.163  0.2732 -0.5904  4.2635
   46MOL   H37522965   0.119   0.530   1.224 -1.9797 -0.9325  1.5503
   46MOL   H37622966   0.147   0.566   1.059  0.7155 -2.6206  0.5186
   46MOL   C37722967   7.378   7.558   1.307 -0.2650 -0.7267 -0.3366
   46MOL   C37822968   7.477   7.538   1.428  0.1102  0.7825  0.2157
   46MOL   O37922969   7.468   7.405   1.483 -0.0357 -0.0363 -0.3081
   46MOL   C38022970   7.538   7.311   1.402 -0.8025 -0.2502  0.1385
   46MOL   C38122971   7.509   7.176   1.475 -0.1442  0.0083 -0.2072
   46MOL   C38222972   7.365   7.128   1.456  0.0686  0.2159 -0.9882
   46MOL   C38322973   7.334   6.995   1.526 -0.1069  0.0792  0.0889
   46MOL   C38422974   7.414   6.886   1.454  0.8152  0.2678 -0.0007
   46MOL   C38522975   7.370   6.748   1.510  0.0214 -0.2210  0.0547
   46MOL   H38622976   7.278   7.594   1.333 -0.3748  0.4418 -2.2767
   46MOL   H38722977   7.342   7.458   1.281 -1.5456 -0.7338  1.3680
   46MOL   H38822978   7.579   7.554   1.393 -0.0270 -2.4736 -1.9659
   46MOL   H38922979   7.644   7.337   1.399 -0.9997  0.5631  0.3760
   46MOL   H39022980   7.490   7.306   1.304  0.8504  2.1603 -0.8590
   46MOL   H39122981   7.538   7.174   1.580  1.8734  1.1652 -0.7189
   46MOL   H39222982   7.562   7.100   1.418 -0.0406 -0.9196  1.0827
   46MOL   H39322983   7.305   7.198   1.514  0.9713  0.9544 -0.9278
   46MOL   H39422984   7.339   7.127   1.350 -0.5697 -0.3842 -0.8281
   46MOL   H39522985   7.355   7.001   1.632  0.1325  2.4252 -0.0694
   46MOL   H39622986   7.226   6.984   1.521 -0.1792  1.1979 -1.0725
   46MOL   H39722987   7.392   6.890   1.347 -0.4357 -0.6671  0.2059
   46MOL   H39822988   7.522   6.894   1.465  0.9518  0.4054 -1.3698
   46MOL   H39922989   7.390   6.674   1.433  0.4219  0.6774 -0.7297
   46MOL   H40022990   7.431   6.727   1.598 -2.1590 -0.0052  1.6571
   46MOL   H40122991   7.267   6.756   1.544  0.8547  0.8394  2.4702
   46MOL   C40222992   7.438   7.637   1.543 -0.4021 -0.0196  0.4161
   46MOL   C40322993   7.556   7.657   1.643  0.1384 -0.1735 -0.2976
   46MOL   O40422994   7.504   7.689   1.770  0.0211  0.4509  0.2038
   46MOL   C40522995   7.464   7.579   1.854  0.3636 -0.7754 -0.1933
   46MOL   C40622996   7.416   7.632   1.993 -0.6138 -0.1999  0.1458
   46MOL   C40722997   7.526   7.704   2.065  0.9529 -0.2576  0.2455
   46MOL   C40822998   7.484   7.754   2.201 -0.3784 -0.8983 -0.2947
   46MOL   C40922999   7.606   0.041   2.270 -0.6948  0.1451  0.0160
   46MOL   C41023000   7.700   7.702   2.328  0.6546  0.1405  0.6029
   46MOL   H41123001   7.350   7.599   1.594 -1.0432  0.0597 -0.5995
   46MOL   H41223002   7.406   7.732   1.499  2.5068  2.0892  2.6216
   46MOL   H41323003   7.617   7.567   1.646 -2.0065 -1.6765 -0.8016
   46MOL   H41423004   7.549   7.514   1.875  2.0575  1.3166 -0.4449
   46MOL   H41523005   7.382   7.519   1.814  0.2600 -2.1625  1.9778
   46MOL   H41623006   7.370   7.552   2.051 -0.1948 -0.1339  0.5669
   46MOL   H41723007   7.328   7.693   1.968 -0.4883 -0.7316 -1.6951
   46MOL   H41823008   7.599   7.624   2.081  0.9703 -0.2112  0.3994
   46MOL   H41923009   7.567   0.008   2.006 -0.7254  0.2451 -0.2307
   46MOL   H42023010   7.414   0.058   2.188  0.4282 -0.2615 -0.6034
   46MOL   H42123011   7.431   7.686   2.267 -2.4734 -0.2529 -1.2610
   46MOL   H42223012   7.668   0.090   2.195 -1.5138 -0.3844 -1.0036
   46MOL   H42323013   7.587   0.118   2.345 -1.6494  2.7922 -2.8553
   46MOL   H42423014   7.767   7.735   2.407  0.0679 -0.3321  1.3049
   46MOL   H42523015   7.633   7.641   2.389  0.0178  0.2353  0.0058
   46MOL   H42623016   7.763   7.643   2.262 -1.8106 -1.0483 -0.7529
   46MOL   C42723017   7.650   7.771   1.610  0.2033  0.1915  0.2266
   46MOL   C42823018   7.751   0.025   1.718  0.3418  0.2423  0.2768
   46MOL   O42923019   0.088   7.721   1.698 -0.6031 -0.1010 -0.2723
   46MOL   C43023020   0.138   7.661   1.813  0.1426  0.4133  0.5657
   46MOL   C43123021   0.278   7.596   1.787 -0.1099  0.1818  0.4414
   46MOL   C43223022   0.332   7.520   1.912 -0.1857 -0.4428  0.1414
   46MOL   C43323023   0.431   7.411   1.872  0.1467 -0.2202 -0.9062
   46MOL   C43423024   0.477   7.343   2.005 -0.4367 -0.3134 -0.7942
   46MOL   C43523025   0.572   7.229   1.986 -0.9876 -0.4389 -0.2720
   46MOL   H43623026   7.704   7.744   1.519  1.2508 -0.9259  1.1618
   46MOL   H43723027   7.585   0.074   1.578  2.2945  0.7220 -2.9762
   46MOL   H43823028   7.705   0.010   1.816  1.1974  0.3127  0.6875
   46MOL   H43923029   0.059   7.602   1.859 -0.6723 -0.7894 -2.2576
   46MOL   H44023030   0.164   7.743   1.880  1.3650  1.6119 -1.3279
   46MOL   H44123031   0.357   7.661   1.751 -0.6282 -1.2456 -3.6249
   46MOL   H44223032   0.267   7.520   1.708 -0.4911 -1.4421  2.0181
   46MOL   H44323033   0.374   7.593   1.982 -0.3276  0.5220 -0.7648
   46MOL   H44423034   0.243   7.483   1.965 -0.3246  1.2292  1.1242
   46MOL   H44523035   0.376   7.333   1.820 -0.3906 -0.2805 -0.2540
   46MOL   H44623036   0.510   7.442   1.803  2.0026  1.4204  1.8564
   46MOL   H44723037   0.519   7.420   2.068  0.3231 -0.6243 -0.9174
   46MOL   H44823038   0.390   7.311   2.064  0.1414 -1.6907 -0.6530
   46MOL   H44923039   0.644   7.249   1.907 -0.6164  1.5149  0.5292
   46MOL   H45023040   0.621   7.212   2.082 -0.5383  0.9260 -0.2488
   46MOL   H45123041   0.513   7.138   1.969 -2.9299  0.9913 -1.2946
   46MOL   C45223042   0.020   0.173   1.712 -0.3140 -0.5556  0.2036
   46MOL   C45323043   7.686   0.268   1.760 -0.3401  0.7123  0.3779
   46MOL   O45423044   7.698   0.397   1.702 -0.3108  0.4582  0.5238
   46MOL   C45523045   7.611   0.430   1.590 -0.9071 -0.9312  0.3296
   46MOL   C45623046   7.640   0.578   1.571 -0.0355 -0.3081  0.1844
   46MOL   C45723047   0.010   0.604   1.532  0.4267 -0.4676  0.0523
   46MOL   C45823048   0.051   0.747   1.534 -0.1227 -0.1925  0.4503
   46MOL   C45923049   0.002   0.837   1.419 -0.1827  0.3152 -0.1431
   46MOL   C46023050   0.071   0.975   1.422 -0.7266 -0.7307  0.6249
   46MOL   H46123051   0.120   0.189   1.754  0.7813 -3.9191 -0.9226
   46MOL   H46223052   0.037   0.200   1.608  1.5490  0.4865  0.7505
   46MOL   H46323053   7.584   0.235   1.740  0.0552 -0.0976 -0.3315
   46MOL   H46423054   7.507   0.408   1.614 -1.3263  2.7475  2.1952
   46MOL   H46523055   7.644   0.378   1.500 -1.6332  0.7541 -0.9422
   46MOL   H46623056   7.616   0.633   1.663 -1.4593 -2.2479  1.0109
   46MOL   H46723057   7.578   0.625   1.494 -0.0287 -0.1532  0.2714
   46MOL   H46823058   0.060   0.562   1.619  1.5841  0.9478  0.0849
   46MOL   H46923059   0.038   0.545   1.445 -3.5112 -1.4474 -0.6451
   46MOL   H47023060   0.002   0.792   1.621 -0.7439 -0.1390  0.0723
   46MOL   H47123061   0.157   0.754   1.559  0.1552  0.6929 -0.9320
   46MOL   H47223062   0.027   0.791   1.323 -0.6996 -1.8376  0.7261
   46MOL   H47323063   7.672   0.846   1.421 -0.3443 -1.7342  0.6403
   46MOL   H47423064   0.179   0.966   1.407 -1.0430 -1.7744 -1.1824
   46MOL   H47523065   0.045   1.048   1.345 -1.0263  0.2494  1.6414
   46MOL   H47623066   0.061   1.033   1.513 -1.4614  1.5351 -0.8452
   46MOL   C47723067   7.706   0.280   1.911  0.1120 -0.1473 -0.6343
   46MOL   C47823068   7.583   0.328   1.987 -0.1751  1.0259 -0.7459
   46MOL   O47923069   7.612   0.332   2.125 -0.3836  0.2397  0.2392
   46MOL   C48023070   7.507   0.374   2.210 -0.2468  0.0026 -0.4362
   46MOL   C48123071   7.504   0.527   2.221  0.7729 -0.7161  0.5378
   46MOL   C48223072   7.387   0.575   2.306  0.0261 -0.7707  0.3659
   46MOL   C48323073   7.401   0.722   2.352 -0.4405  0.0355 -0.8580
   46MOL   C48423074   7.258   0.768   2.404 -0.0863  0.4597  0.9861
   46MOL   C48523075   7.263   0.906   2.463 -0.5909 -0.3167  0.2408
   46MOL   H48623076   7.736   0.183   1.950 -1.0431  0.3259  1.4827
   46MOL   H48723077   0.013   0.340   1.940  0.6690 -1.0539 -0.3895
   46MOL   H48823078   7.555   0.426   1.949  0.4917  1.4029 -0.2793
   46MOL   H48923079   7.528   0.324   2.305 -1.6643  1.0529  0.4467
   46MOL   H49023080   7.410   0.330   2.185 -0.1353 -0.7540  0.4318
   46MOL   H49123081   7.498   0.574   2.123 -1.3344 -3.7034 -0.8591
   46MOL   H49223082   7.596   0.563   2.267  0.8955  0.5083 -0.6252
   46MOL   H49323083   7.302   0.576   2.238  0.1851 -0.6277  0.1659
   46MOL   H49423084   7.351   0.508   2.383 -0.4422 -1.0093 -0.0591
   46MOL   H49523085   7.473   0.727   2.434 -1.1695 -2.6001  0.0025
   46MOL   H49623086   7.431   0.784   2.267  0.6778  1.5555  0.6326
   46MOL   H49723087   7.199   0.779   2.313 -0.2274 -1.8943  0.7635
   46MOL   H49823088   7.211   0.707   2.481  0.7677  2.4146  3.1286
   46MOL   H49923089   7.301   0.905   2.565 -0.4998 -0.0053  0.2095
   46MOL   H50023090   7.307   0.982   2.399 -1.0373  0.0746  0.3918
   46MOL   H50123091   7.161   0.942   2.479 -0.8672 -0.9825 -0.0157
   46MOL   H50223092   7.496   0.265   1.971 -0.6711  1.9011 -1.5392
   47MOL     C123093   1.117   6.558   3.171  0.3744  0.3692  1.5254
   47MOL     C223094   0.991   6.553   3.272  0.3181 -0.9046 -0.4281
   47MOL     O323095   1.012   6.461   3.386 -0.5450 -0.1299 -0.4946
   47MOL     C423096   1.125   6.497   3.462 -0.5204  0.5265 -0.0631
   47MOL     C523097   1.142   6.399   3.578 -0.1323  0.0797 -0.3028
   47MOL     C623098   1.032   6.415   3.687 -0.0721  0.0616  0.5450
   47MOL     C723099   1.035   6.300   3.788  1.0270  0.4644  0.0280
   47MOL     C823100   0.921   6.313   3.887 -0.0072  0.6981 -0.2359
   47MOL     C923101   0.911   6.201   3.990 -0.1325  0.2575  0.1480
   47MOL    H1023102   1.202   6.619   3.202  2.1267 -1.5554  0.5919
   47MOL    H1123103   1.154   6.458   3.150 -0.5445  0.2621  0.4021
   47MOL    H1223104   0.970   6.655   3.304  0.0557 -0.8145 -0.8768
   47MOL    H1323105   1.131   6.601   3.495  1.7927  0.8563 -1.3845
   47MOL    H1423106   1.217   6.484   3.405  0.1733  1.9496  0.6852
   47MOL    H1523107   1.238   6.414   3.626 -0.0287  0.6248 -0.6805
   47MOL    H1623108   1.150   6.297   3.542 -1.0300  0.2531 -1.0379
   47MOL    H1723109   1.045   6.512   3.734 -0.1150  0.4026 -0.1332
   47MOL    H1823110   0.936   6.424   3.637 -0.1519  0.0282  0.6921
   47MOL    H1923111   1.041   6.201   3.743  1.2735  0.6893 -0.4436
   47MOL    H2023112   1.132   6.308   3.838  1.6037  0.7699 -1.1142
   47MOL    H2123113   0.830   6.309   3.828 -0.7694  1.3704  0.8761
   47MOL    H2223114   0.926   6.406   3.944 -3.2994  0.3829  0.6251
   47MOL    H2323115   0.938   6.103   3.950  1.2324 -0.8466  3.6206
   47MOL    H2423116   0.986   6.209   4.068  1.9591  1.0233 -1.8841
   47MOL    H2523117   0.812   6.202   4.035 -0.1530  2.2005  0.1002
   47MOL    H2623118   1.078   6.612   3.085 -0.2638 -1.9383  0.3359
   47MOL    C2723119   0.861   6.502   3.206  0.1571  0.4014  0.0709
   47MOL    C2823120   0.737   6.514   3.293 -0.2889  0.2652 -0.0026
   47MOL    O2923121   0.634   6.543   3.198  0.0368 -0.1352 -0.2115
   47MOL    C3023122   0.563   6.666   3.221  0.1165 -0.2340 -0.2241
   47MOL    C3123123   0.468   6.697   3.105 -0.8047 -0.2035  0.6768
   47MOL    C3223124   0.407   6.839   3.102 -0.1583 -0.0884 -0.0943
   47MOL    C3323125   0.315   6.880   2.984 -0.2582  0.1265  0.2706
   47MOL    C3423126   0.284   7.028   2.957 -0.0152 -0.5055  0.0651
   47MOL    C3523127   0.201   7.065   2.837  0.0886  0.5232  0.2777
   47MOL    H3623128   0.841   6.568   3.121 -3.0716 -0.4544  0.0983
   47MOL    H3723129   0.873   6.403   3.161 -2.5483  1.3706 -3.0277
   47MOL    H3823130   0.753   6.588   3.371 -2.3106 -0.2591  0.9308
   47MOL    H3923131   0.633   6.749   3.234  0.1953  0.1370 -2.6894
   47MOL    H4023132   0.510   6.654   3.315 -0.3632  0.9332 -0.3362
   47MOL    H4123133   0.392   6.620   3.116 -1.9390  0.5103 -1.8639
   47MOL    H4223134   0.517   6.667   3.012 -1.5775 -2.1392  0.8687
   47MOL    H4323135   0.354   6.849   3.196  1.0408 -0.4769  0.6406
   47MOL    H4423136   0.488   6.912   3.114 -0.8823  0.6772  0.1531
   47MOL    H4523137   0.370   6.845   2.897 -0.7591 -0.6172  0.2491
   47MOL    H4623138   0.218   6.831   2.987 -0.2124  0.0550  0.5975
   47MOL    H4723139   0.233   7.053   3.050  1.4814 -0.5997  0.9294
   47MOL    H4823140   0.374   7.088   2.958 -1.4527  1.7097 -0.1984
   47MOL    H4923141   0.114   7.000   2.830 -0.0185  0.6559  0.3961
   47MOL    H5023142   0.178   7.171   2.827  0.2548  0.6202  0.9568
   47MOL    H5123143   0.267   7.031   2.756 -0.8895 -1.3952  0.2545
   47MOL    C5223144   0.703   6.378   3.362  0.1734 -0.1350  0.5440
   47MOL    C5323145   0.559   6.367   3.427 -0.3377  0.2801 -0.2294
   47MOL    O5423146   0.525   6.226   3.457  0.3179  0.6434  0.0397
   47MOL    C5523147   0.468   6.154   3.349 -0.1102  0.0249 -0.3250
   47MOL    C5623148   0.411   6.018   3.395  0.1264 -0.4073 -0.2276
   47MOL    C5723149   0.284   6.034   3.472 -0.0418 -0.1272 -0.5157
   47MOL    C5823150   0.224   5.906   3.534  0.4232 -0.0477 -0.1079
   47MOL    C5923151   0.304   5.870   3.657 -0.4083 -0.5974  0.1845
   47MOL    C6023152   0.270   5.726   3.697 -0.6230  0.0593  0.0600
   47MOL    H6123153   0.779   6.364   3.439  0.4125 -4.3260 -0.3595
   47MOL    H6223154   0.723   6.294   3.296 -0.5762 -0.2287  0.4277
   47MOL    H6323155   0.486   6.408   3.357 -0.1783 -1.3139 -1.3789
   47MOL    H6423156   0.546   6.148   3.273  0.2549 -2.0236  0.1909
   47MOL    H6523157   0.387   6.218   3.314  0.0672  0.9500  0.9226
   47MOL    H6623158   0.483   5.981   3.467 -0.2341  1.1464  0.9615
   47MOL    H6723159   0.411   5.954   3.307  1.4135  0.7934 -1.1355
   47MOL    H6823160   0.315   6.091   3.560 -1.0534  1.9906 -1.5004
   47MOL    H6923161   0.216   6.091   3.409 -0.2480 -0.5229 -0.6533
   47MOL    H7023162   0.122   5.924   3.567  0.9054  0.2772  1.2085
   47MOL    H7123163   0.210   5.832   3.454  0.6803 -0.6042  0.3577
   47MOL    H7223164   0.410   5.853   3.640 -0.0333  0.5785  1.2544
   47MOL    H7323165   0.289   5.947   3.733  1.6679  0.5342 -0.5014
   47MOL    H7423166   0.327   5.695   3.784 -0.4783 -1.1228 -0.4380
   47MOL    H7523167   0.167   5.703   3.727 -0.1793  0.3613  1.8407
   47MOL    H7623168   0.289   5.651   3.620 -0.4632 -1.8000  1.8607
   47MOL    C7723169   0.563   6.437   3.558 -0.3861 -0.1353  0.0315
   47MOL    C7823170   0.424   6.442   3.626 -0.0160  0.3520 -0.5266
   47MOL    O7923171   0.328   6.531   3.571 -0.0482 -0.1748 -0.2621
   47MOL    C8023172   0.232   6.467   3.494  0.1089 -0.4334  0.2578
   47MOL    C8123173   0.176   6.569   3.392  0.4213 -0.4134  0.0702
   47MOL    C8223174   0.097   6.506   3.272  0.3714 -0.0820  0.8129
   47MOL    C8323175   0.078   6.601   3.154 -0.5721  0.2350  0.3031
   47MOL    C8423176   7.759   6.714   3.186 -0.2598  0.2640  0.4952
   47MOL    C8523177   7.722   6.809   3.072 -0.3166 -0.4474  0.3219
   47MOL    H8623178   0.601   6.539   3.561  5.0975 -1.9255 -2.7859
   47MOL    H8723179   0.631   6.380   3.621 -1.2271 -0.0284  1.0419
   47MOL    H8823180   0.376   6.345   3.623 -1.1863  0.9239 -0.3039
   47MOL    H8923181   0.162   6.412   3.557 -1.6523  0.7067 -0.6592
   47MOL    H9023182   0.272   6.381   3.441 -3.1422 -0.7448 -1.8654
   47MOL    H9123183   0.257   6.621   3.340  1.2561  0.1619  1.8995
   47MOL    H9223184   0.118   6.641   3.450 -0.0830  0.4254 -1.4476
   47MOL    H9323185   0.157   6.427   3.225 -2.7614 -1.3221 -1.2336
   47MOL    H9423186   0.007   6.456   3.308  0.5096  1.1648  2.9407
   47MOL    H9523187   0.173   6.649   3.130 -0.2736  0.6001  2.1978
   47MOL    H9623188   0.036   6.552   3.066  2.5139 -0.5534 -0.7671
   47MOL    H9723189   7.661   6.675   3.213 -0.4037  1.2277  1.4126
   47MOL    H9823190   0.001   6.774   3.274 -0.6456  0.7155  0.2758
   47MOL    H9923191   7.773   6.905   3.065 -2.3026  0.6342  0.3014
   47MOL   H10023192   7.714   6.770   2.971 -1.5793 -1.6658  0.8855
   47MOL   H10123193   7.622   6.850   3.088 -0.6804 -1.1895 -0.0652
   47MOL   C10223194   0.433   6.489   3.773 -0.1052 -0.2909 -0.0716
   47MOL   C10323195   0.472   6.378   3.879  0.1928  0.5224  0.7697
   47MOL   O10423196   0.490   6.438   4.009  0.3621  0.2387 -0.1298
   47MOL   C10523197   0.616   6.495   4.021 -0.5917  0.1696  0.0086
   47MOL   C10623198   0.634   6.552   4.167 -0.2630 -0.3304 -0.0344
   47MOL   C10723199   0.766   6.620   4.195  0.3381 -0.0894  0.2334
   47MOL   C10823200   0.767   6.702   4.330  0.7198  0.0817 -0.5773
   47MOL   C10923201   0.806   6.629   4.456  0.0590 -0.1083 -0.5282
   47MOL   C11023202   0.792   6.704   4.595  0.4558 -0.1136 -0.6675
   47MOL   H11123203   0.499   6.576   3.767 -1.2155  0.6116  0.4512
   47MOL   H11223204   0.337   6.529   3.805 -0.1529  0.9667 -1.7481
   47MOL   H11323205   0.552   6.314   3.842 -1.1177 -0.4975 -0.3710
   47MOL   H11423206   0.644   6.562   3.940  1.8499 -0.4139  0.3169
   47MOL   H11523207   0.690   6.415   4.014  1.1835  1.6557  1.3757
   47MOL   H11623208   0.606   6.477   4.240  1.1065 -0.1061  0.7379
   47MOL   H11723209   0.556   6.628   4.175  1.8440  2.1199 -1.5800
   47MOL   H11823210   0.850   6.551   4.179 -0.2524 -0.6638 -0.3997
   47MOL   H11923211   0.782   6.701   4.124 -0.1082 -0.1302  0.0900
   47MOL   H12023212   0.829   6.792   4.322 -1.7753  1.7653 -1.5670
   47MOL   H12123213   0.671   6.752   4.343  0.9861  1.0138 -2.0373
   47MOL   H12223214   0.747   6.538   4.464  2.6278 -1.7247  0.3388
   47MOL   H12323215   0.908   6.592   4.453 -0.1773 -0.7303 -1.0935
   47MOL   H12423216   0.843   6.800   4.604  0.1884  0.0160 -0.5189
   47MOL   H12523217   0.688   6.733   4.609  0.7149  0.5836 -0.1392
   47MOL   H12623218   0.824   6.648   4.682  0.8542 -0.0753 -0.7858
   47MOL   C12723219   0.353   6.287   3.893  0.0671 -0.2397 -0.4659
   47MOL   C12823220   0.391   6.161   3.966  0.3178 -0.4902  0.4980
   47MOL   O12923221   0.462   6.083   3.875  0.1280 -0.1477  0.5427
   47MOL   C13023222   0.592   6.038   3.928 -0.0568  0.2201  0.4866
   47MOL   C13123223   0.652   5.931   3.834 -0.2432 -0.4491 -0.2709
   47MOL   C13223224   0.674   5.994   3.698 -0.3720  0.3524 -0.2269
   47MOL   C13323225   0.736   5.905   3.591  0.1950  0.2383  0.2017
   47MOL   C13423226   0.779   5.969   3.457  1.1003 -0.7682  0.0337
   47MOL   C13523227   0.921   6.020   3.470 -0.1361 -0.4461  0.5320
   47MOL   H13623228   0.276   6.342   3.947  1.1527  1.2726 -0.4126
   47MOL   H13723229   0.313   6.260   3.796 -4.3365  1.4304  0.7677
   47MOL   H13823230   0.451   6.178   4.055 -0.5174 -1.6483  1.3096
   47MOL   H13923231   0.588   6.002   4.031 -0.3855  0.0504  0.4161
   47MOL   H14023232   0.654   6.127   3.928 -0.3308  0.4590  3.4691
   47MOL   H14123233   0.588   5.843   3.827 -0.5531 -0.2975  0.5851
   47MOL   H14223234   0.748   5.899   3.875  0.2165 -0.1206 -1.1004
   47MOL   H14323235   0.581   6.027   3.651 -1.0285 -0.1116  0.7156
   47MOL   H14423236   0.737   6.083   3.700  0.4352 -0.2376  1.1564
   47MOL   H14523237   0.827   5.857   3.628  0.4905 -0.4557 -1.3933
   47MOL   H14623238   0.663   5.825   3.582 -0.2389  1.0465 -4.6163
   47MOL   H14723239   0.773   5.895   3.378 -0.7549 -0.3660 -0.2390
   47MOL   H14823240   0.711   6.046   3.421  0.1412 -2.8849 -2.8039
   47MOL   H14923241   1.001   5.952   3.497 -0.4820 -1.4916 -0.9997
   47MOL   H15023242   0.947   6.072   3.377 -0.2503 -1.0711  0.1484
   47MOL   H15123243   0.921   6.098   3.546 -0.1063 -1.8635  2.0109
   47MOL   C15223244   0.265   6.088   4.015  0.2360 -0.4799 -0.7896
   47MOL   C15323245   0.284   5.967   4.112  0.4094 -0.5032  0.2617
   47MOL   O15423246   0.150   5.943   4.161 -0.3901 -0.5114  0.0610
   47MOL   C15523247   0.127   5.952   4.304 -0.0718  0.1711  0.1012
   47MOL   C15623248   7.770   5.907   4.345  0.5676 -0.5396 -0.1644
   47MOL   C15723249   7.737   5.963   4.486 -0.5005  0.1367  0.4970
   47MOL   C15823250   7.591   5.916   4.516  0.2213  0.1166 -0.0990
   47MOL   C15923251   7.557   5.946   4.668 -0.5368 -1.3989  0.1183
   47MOL   C16023252   7.527   6.103   4.681 -0.1272 -0.4374  0.0908
   47MOL   H16123253   0.201   6.160   4.066  1.4077  0.2794 -0.3541
   47MOL   H16223254   0.208   6.064   3.926  0.5965  0.0673 -1.1730
   47MOL   H16323255   0.354   5.992   4.192  2.2040 -0.1651 -1.3808
   47MOL   H16423256   0.145   6.056   4.332  0.3911 -0.2603  1.4127
   47MOL   H16523257   0.205   5.902   4.361  0.2801  2.0049  1.2640
   47MOL   H16623258   7.773   5.798   4.341  1.4858 -0.4520 -3.1893
   47MOL   H16723259   7.697   5.933   4.269  1.1979 -2.7366 -1.5681
   47MOL   H16823260   0.030   5.917   4.554 -0.3722 -0.8331 -0.2903
   47MOL   H16923261   7.742   6.072   4.485  0.6790  0.0852 -0.6062
   47MOL   H17023262   7.520   5.966   4.450  1.1371  1.2801 -0.2286
   47MOL   H17123263   7.573   5.810   4.498 -1.1208  0.1314  1.0627
   47MOL   H17223264   7.469   5.888   4.696 -1.0169  0.3511  2.4039
   47MOL   H17323265   7.634   5.902   4.731 -1.3850 -1.2223  1.3007
   47MOL   H17423266   7.476   6.145   4.595 -2.1874 -1.6374  0.6893
   47MOL   H17523267   7.482   6.124   4.778  0.4201 -1.0753  0.4915
   47MOL   H17623268   7.620   6.161   4.682  0.2932 -1.0692 -1.2140
   47MOL   C17723269   0.324   5.842   4.030  0.4906 -0.2167  0.2792
   47MOL   C17823270   0.400   5.734   4.109 -0.4434 -0.2508 -0.6257
   47MOL   O17923271   0.511   5.796   4.170 -0.2485  0.0635  0.7534
   47MOL   C18023272   0.629   5.716   4.171 -0.3635  0.2091 -0.3170
   47MOL   C18123273   0.743   5.784   4.261 -0.0797  0.6346  0.7339
   47MOL   C18223274   0.764   5.930   4.226 -0.3112 -0.3184  0.2899
   47MOL   C18323275   0.867   6.003   4.312 -0.5528  0.2518  0.9830
   47MOL   C18423276   0.830   6.143   4.341  0.1944 -0.1938 -0.2701
   47MOL   C18523277   0.929   6.218   4.437 -0.2105 -0.0587  0.0589
   47MOL   H18623278   0.238   5.810   3.972  2.1064 -1.7393 -1.3847
   47MOL   H18723279   0.395   5.871   3.952 -0.4271  2.9261  0.5555
   47MOL   H18823280   0.439   5.666   4.034  0.1834 -0.6543  0.0517
   47MOL   H18923281   0.669   5.693   4.073  0.1675  0.2317 -0.1111
   47MOL   H19023282   0.617   5.618   4.218  2.4247  0.0876  0.2440
   47MOL   H19123283   0.823   5.715   4.234 -0.2779  0.9633 -0.7313
   47MOL   H19223284   0.710   5.778   4.364 -1.0575 -1.6078  0.3049
   47MOL   H19323285   0.783   5.945   4.120  0.0134  0.2338  0.4230
   47MOL   H19423286   0.668   5.978   4.247 -0.7445 -0.9598 -0.2351
   47MOL   H19523287   0.884   5.942   4.400 -0.3358 -2.6865 -1.0177
   47MOL   H19623288   0.961   5.986   4.259 -2.6506  0.2567 -2.9044
   47MOL   H19723289   0.790   6.195   4.253 -1.0599 -1.3187 -0.3694
   47MOL   H19823290   0.734   6.148   4.392  1.2851  1.4420  1.6975
   47MOL   H19923291   1.031   6.226   4.399 -0.3422 -0.9615 -0.4926
   47MOL   H20023292   0.899   6.322   4.453 -0.3639  0.1056 -1.2340
   47MOL   H20123293   0.942   6.183   4.539  0.0178  2.0058  0.7609
   47MOL   C20223294   0.323   5.643   4.206  0.6356 -0.6036  0.0399
   47MOL   C20323295   0.208   5.557   4.150 -0.0180  0.2290 -0.1932
   47MOL   O20423296   0.158   5.482   4.258  0.3671  0.3864 -0.9919
   47MOL   C20523297   0.025   5.517   4.304  0.4476  0.4832  0.0700
   47MOL   C20623298   7.743   5.402   4.389 -0.1165 -0.3938  0.3359
   47MOL   C20723299   0.036   5.357   4.515 -0.2411 -0.8333 -0.0214
   47MOL   C20823300   7.778   5.220   4.565  0.4660  0.6716  0.5134
   47MOL   C20923301   7.643   5.203   4.632 -0.0706 -0.0475 -0.2978
   47MOL   C21023302   7.603   5.053   4.634 -1.1778  0.0264  0.0038
   47MOL   H21123303   0.390   5.568   4.250 -1.1502 -1.4563  1.3912
   47MOL   H21223304   0.281   5.703   4.287  1.4289  0.3987 -0.2854
   47MOL   H21323305   0.131   5.618   4.103  0.7252 -0.1200 -1.9052
   47MOL   H21423306   7.742   5.544   4.218 -1.5209 -0.5482  1.1098
   47MOL   H21523307   0.036   5.596   4.379 -2.1739 -0.6558  1.7431
   47MOL   H21623308   7.742   5.314   4.325 -0.4502 -1.1152  1.3029
   47MOL   H21723309   7.640   5.421   4.420 -0.0263  2.1271 -0.7637
   47MOL   H21823310   0.144   5.366   4.505 -0.1497 -1.5509  0.3267
   47MOL   H21923311   0.017   5.429   4.595  1.2237  1.4326 -1.6302
   47MOL   H22023312   7.776   5.157   4.476  2.3974  2.6474 -0.9875
   47MOL   H22123313   0.077   5.172   4.625  0.2489 -1.0423 -0.5491
   47MOL   H22223314   7.646   5.247   4.732  1.3892 -2.9203  0.9777
   47MOL   H22323315   7.569   5.248   4.567  0.0698  0.9406  0.2024
   47MOL   H22423316   7.592   5.013   4.533  0.7032 -0.6073  0.0452
   47MOL   H22523317   7.679   4.995   4.686 -0.6331  1.5808  0.9753
   47MOL   H22623318   7.512   5.030   4.690 -0.8220 -2.7528 -0.4757
   47MOL   C22723319   0.262   5.456   4.051  0.6085  0.8950  0.5450
   47MOL   C22823320   0.146   5.388   3.970 -0.0320  0.6986  0.2607
   47MOL   O22923321   0.102   5.477   3.871  0.4152  0.5355 -0.5186
   47MOL   C23023322   7.739   5.470   3.859 -0.4217 -0.2081  0.0565
   47MOL   C23123323   7.704   5.579   3.752  0.4262  0.5570  0.2472
   47MOL   C23223324   7.733   5.534   3.608 -0.0340  0.3543  0.2585
   47MOL   C23323325   7.685   5.615   3.483 -0.1600 -0.2005 -0.4114
   47MOL   C23423326   7.743   5.576   3.346 -0.5575 -0.6741  0.6448
   47MOL   C23523327   7.717   5.437   3.298  0.3478 -0.0036  0.0986
   47MOL   H23623328   0.348   5.482   3.990  1.3206 -0.4951  0.9244
   47MOL   H23723329   0.314   5.374   4.100  1.3731  0.3865 -1.0848
   47MOL   H23823330   0.066   5.348   4.032  0.9396  0.1501  1.1738
   47MOL   H23923331   7.679   5.485   3.948  2.2381 -0.2010  1.9035
   47MOL   H24023332   7.713   5.372   3.818  0.4323 -0.3315 -0.2038
   47MOL   H24123333   7.742   5.673   3.793 -0.0427  0.9795 -0.2681
   47MOL   H24223334   7.596   5.597   3.748  0.0933 -1.1114  1.4188
   47MOL   H24323335   0.063   5.527   3.596 -0.3103 -0.2040 -2.2783
   47MOL   H24423336   7.706   5.431   3.586 -2.0585  0.6495  1.2197
   47MOL   H24523337   7.576   5.622   3.477 -0.1502 -0.7559 -1.2123
   47MOL   H24623338   7.718   5.719   3.491  0.2765 -0.3954  0.3686
   47MOL   H24723339   7.689   5.635   3.272  0.4939 -1.3238 -0.6709
   47MOL   H24823340   0.072   5.597   3.341 -0.7973  0.0774 -2.2151
   47MOL   H24923341   7.615   5.407   3.325  1.0198  0.0392  2.8492
   47MOL   H25023342   7.733   5.426   3.191 -0.6130  2.9323 -0.3959
   47MOL   H25123343   0.016   5.380   3.349  1.0038 -0.7155 -1.6891
   47MOL   C25223344   0.199   5.263   3.892  0.7799  0.1828 -0.0368
   47MOL   C25323345   0.270   5.141   3.963  0.5571  0.1103  0.1143
   47MOL   O25423346   0.297   5.030   3.882  0.2152 -0.5623 -0.3825
   47MOL   C25523347   0.388   5.050   3.777 -0.1029  0.9319 -0.0187
   47MOL   C25623348   0.462   4.914   3.772  0.3949 -0.2474  0.8927
   47MOL   C25723349   0.577   4.924   3.663 -0.7889 -0.5061 -0.3398
   47MOL   C25823350   0.608   4.788   3.594 -0.5814 -0.5635  0.0703
   47MOL   C25923351   0.722   4.796   3.497  0.5546 -0.3715  0.4279
   47MOL   C26023352   0.756   4.652   3.439 -0.4446 -0.5974  0.0214
   47MOL   H26123353   0.115   5.224   3.835  1.3346  1.0255 -1.4512
   47MOL   H26223354   0.275   5.296   3.821  1.3940 -1.2954 -0.0879
   47MOL   H26323355   0.368   5.171   4.000  0.2807  0.6776  0.4007
   47MOL   H26423356   0.471   5.114   3.809 -0.6498  1.2089  0.8735
   47MOL   H26523357   0.340   5.071   3.682  0.9185 -0.1788 -0.7941
   47MOL   H26623358   0.392   4.837   3.740 -1.9612  1.9478  0.6558
   47MOL   H26723359   0.501   4.871   3.864  1.4487  0.8168  0.9460
   47MOL   H26823360   0.570   5.005   3.590  0.5075  0.9464  1.0822
   47MOL   H26923361   0.677   4.945   3.702 -1.2762  4.2693 -1.3263
   47MOL   H27023362   0.641   4.704   3.654  0.2862  1.0518  1.8848
   47MOL   H27123363   0.517   4.766   3.539 -0.8575 -1.8356  1.0218
   47MOL   H27223364   0.701   4.857   3.409  0.9259  1.5296  1.6302
   47MOL   H27323365   0.810   4.841   3.542  2.0236 -3.1387  0.4758
   47MOL   H27423366   0.795   4.594   3.523 -1.9647 -1.2934  0.2488
   47MOL   H27523367   0.670   4.597   3.402 -0.6736 -0.2995  0.1086
   47MOL   H27623368   0.840   4.657   3.368  2.7175 -1.1472  3.5674
   47MOL   C27723369   0.196   5.085   4.088  0.5630  0.3790 -0.3705
   47MOL   C27823370   0.279   5.005   4.187  0.4989  0.3418  0.2281
   47MOL   O27923371   0.403   5.065   4.227 -0.3643 -0.1210  0.2392
   47MOL   C28023372   0.387   5.178   4.315 -0.2897  0.6631 -0.2224
   47MOL   C28123373   0.522   5.233   4.350 -0.2246  0.6002 -0.8061
   47MOL   C28223374   0.598   5.299   4.233  0.8533  0.2573 -0.4502
   47MOL   C28323375   0.753   5.335   4.271  0.1299  0.2400  0.1210
   47MOL   C28423376   0.815   5.394   4.145  0.7121  0.8886 -0.2375
   47MOL   C28523377   0.949   5.454   4.170 -0.8132 -0.0640 -0.1331
   47MOL   H28623378   0.144   5.157   4.151 -1.4977  0.3998 -2.0350
   47MOL   H28723379   0.110   5.031   4.048  2.7359 -0.7145 -3.8232
   47MOL   H28823380   0.313   4.918   4.131 -0.0373  1.3319 -1.6579
   47MOL   H28923381   0.328   5.152   4.403 -0.7713 -1.3297 -1.1084
   47MOL   H29023382   0.330   5.264   4.280  0.6898  0.9827 -1.0657
   47MOL   H29123383   0.582   5.161   4.405 -1.6766 -1.2545 -1.5869
   47MOL   H29223384   0.502   5.311   4.424 -1.1289  0.0280 -0.4399
   47MOL   H29323385   0.590   5.228   4.151  2.0692 -0.1590 -0.2243
   47MOL   H29423386   0.536   5.386   4.212 -3.0457 -1.6468  2.6391
   47MOL   H29523387   0.759   5.406   4.353 -1.3862  0.3755  0.1364
   47MOL   H29623388   0.803   5.246   4.309 -0.4558  0.7986  2.2333
   47MOL   H29723389   0.822   5.314   4.071 -0.6702 -0.1071  0.6640
   47MOL   H29823390   0.752   5.476   4.111  1.3832  2.1033  1.3983
   47MOL   H29923391   0.985   5.489   4.074  1.0062 -2.1050 -0.2363
   47MOL   H30023392   0.956   5.540   4.237  1.7531  0.0298 -0.4755
   47MOL   H30123393   1.010   5.371   4.207  0.8521  2.0407  2.0107
   47MOL   C30223394   0.195   4.940   4.299 -0.0251  0.0881  0.3536
   47MOL   C30323395   0.264   4.840   4.397  0.1364  0.2788 -0.3576
   47MOL   O30423396   0.314   4.720   4.334 -0.6691  0.3269 -0.4271
   47MOL   C30523397   0.444   4.725   4.276  0.1653 -0.4122  1.0633
   47MOL   C30623398   0.526   4.603   4.303 -0.0142 -0.0930 -0.3512
   47MOL   C30723399   0.540   4.559   4.451 -0.4571  0.4607  0.6033
   47MOL   C30823400   0.597   4.422   4.472 -0.3267 -0.3319 -0.2962
   47MOL   C30923401   0.640   4.398   4.612 -0.0698  0.4231 -0.2871
   47MOL   C31023402   0.695   4.253   4.621 -0.0329 -0.8602 -0.3515
   47MOL   H31123403   0.139   5.016   4.352 -0.3700 -0.1695  0.3578
   47MOL   H31223404   0.118   4.876   4.257 -1.1149  0.2769  2.0041
   47MOL   H31323405   0.347   4.894   4.442 -1.1662  0.8260  1.4528
   47MOL   H31423406   0.496   4.816   4.306 -0.5278  1.1242 -2.1902
   47MOL   H31523407   0.443   4.728   4.167 -2.0254  2.7921  1.0995
   47MOL   H31623408   0.626   4.597   4.260  0.6259  1.7392  0.8284
   47MOL   H31723409   0.472   4.525   4.248  2.7767 -1.7972 -0.7712
   47MOL   H31823410   0.585   4.639   4.510 -0.0522  1.2245 -0.7322
   47MOL   H31923411   0.443   4.554   4.500  0.4522 -1.7959  2.2599
   47MOL   H32023412   0.519   4.348   4.454  1.6408 -3.0716  2.0420
   47MOL   H32123413   0.678   4.409   4.401  0.7402  2.0394  0.4192
   47MOL   H32223414   0.725   4.462   4.636 -1.1944  1.9842 -0.3527
   47MOL   H32323415   0.565   4.418   4.688  0.5436  1.0637  0.1566
   47MOL   H32423416   0.615   4.192   4.663 -2.2730  0.8344 -2.0197
   47MOL   H32523417   0.712   4.218   4.520 -2.2795 -1.8559 -0.4071
   47MOL   H32623418   0.786   4.243   4.681 -0.4313 -0.0220  0.4178
   47MOL   C32723419   0.165   4.805   4.509  0.5881  0.3787  0.4020
   47MOL   C32823420   0.244   4.776   4.641  0.2311  0.4043  0.3161
   47MOL   O32923421   0.276   4.897   4.715 -0.8190  0.5245  0.5873
   47MOL   C33023422   0.414   4.935   4.728  0.2575 -0.2118 -0.5939
   47MOL   C33123423   0.433   5.054   4.817 -0.1038  0.0482 -0.1829
   47MOL   C33223424   0.569   5.129   4.787 -0.9231  0.9480 -0.0319
   47MOL   C33323425   0.592   5.226   4.897 -0.0516 -0.2649 -0.9700
   47MOL   C33423426   0.735   5.279   4.884 -0.2039  0.5041 -0.0550
   47MOL   C33523427   0.775   5.392   4.982 -0.5637 -0.1351 -0.1315
   47MOL   H33623428   0.101   4.727   4.469 -0.5282  1.0047  0.9134
   47MOL   H33723429   0.099   4.887   4.537 -1.4548 -1.2587  0.4811
   47MOL   H33823430   0.337   4.723   4.619 -0.5273 -0.5256 -0.6850
   47MOL   H33923431   0.460   4.946   4.630 -1.7287 -0.0331 -1.5315
   47MOL   H34023432   0.464   4.852   4.778 -2.9047 -1.1889  1.0600
   47MOL   H34123433   0.420   5.023   4.921 -0.8626  1.3609  0.1239
   47MOL   H34223434   0.348   5.120   4.803 -0.5754 -0.6532 -0.5975
   47MOL   H34323435   0.649   5.056   4.782  0.8261  2.8893 -0.8356
   47MOL   H34423436   0.562   5.181   4.692 -2.0241  0.9788  0.0527
   47MOL   H34523437   0.527   5.314   4.891  2.3759  1.7988  1.6311
   47MOL   H34623438   0.585   5.180   4.995  0.6801 -1.6561 -1.5558
   47MOL   H34723439   0.808   5.199   4.875 -0.7517 -0.1337  1.1093
   47MOL   H34823440   0.753   5.330   4.789 -0.0081  0.0813 -0.2485
   47MOL   H34923441   0.696   5.466   4.988  0.9326  1.7893 -2.7847
   47MOL   H35023442   0.776   5.355   5.085 -1.5701 -0.8286 -0.3649
   47MOL   H35123443   0.872   5.437   4.958 -0.4371 -1.2353 -1.7779
   47MOL   C35223444   0.166   4.684   4.743  0.2127  0.0297 -0.8139
   47MOL   C35323445   0.190   4.538   4.745  0.0815 -0.2002 -0.1040
   47MOL   O35423446   0.175   4.498   4.611  0.0774  0.5347  0.0591
   47MOL   C35523447   0.211   4.361   4.589 -0.0816  0.4499  0.2584
   47MOL   C35623448   0.196   4.313   4.443 -0.6185  0.5720  0.5551
   47MOL   C35723449   0.067   4.342   4.383  0.5591  0.2492 -0.3321
   47MOL   C35823450   0.036   4.307   4.228 -0.3602 -0.9273  0.0799
   47MOL   C35923451   7.692   4.376   4.175 -0.5653  0.2026  0.6981
   47MOL   C36023452   7.664   4.350   4.027  0.5909 -0.0860  0.3443
   47MOL   H36123453   0.220   4.719   4.831  1.7609  2.1918 -2.5703
   47MOL   H36223454   0.061   4.713   4.730  0.2262 -0.1911 -1.4563
   47MOL   H36323455   0.293   4.519   4.776  0.1691 -3.4347 -2.1531
   47MOL   H36423456   0.157   4.284   4.645 -0.2717  0.0977 -0.4016
   47MOL   H36523457   0.316   4.356   4.618 -0.2523 -2.3454  0.5793
   47MOL   H36623458   0.218   4.206   4.436  2.2841  1.0390  1.9731
   47MOL   H36723459   0.279   4.367   4.398  1.5493 -1.4743  1.9379
   47MOL   H36823460   0.003   4.278   4.443  0.4033  1.5804  0.9693
   47MOL   H36923461   0.060   4.450   4.399  0.8511  0.1724  0.3184
   47MOL   H37023462   0.120   4.329   4.162 -0.0269 -0.6382  0.5999
   47MOL   H37123463   0.021   4.199   4.217 -1.4813 -0.7778  0.0599
   47MOL   H37223464   7.613   4.357   4.248  0.8683  0.3134  2.3001
   47MOL   H37323465   7.729   4.478   4.186  0.8175 -0.1115 -0.8097
   47MOL   H37423466   7.614   4.255   4.010  0.0242  0.1017  0.9396
   47MOL   H37523467   7.600   4.427   3.984 -0.4296 -1.4729 -0.7001
   47MOL   H37623468   7.758   4.351   3.971  0.4055  1.0792  0.0463
   47MOL   C37723469   0.088   4.464   4.840  0.5940  0.1129  0.8537
   47MOL   C37823470   0.106   4.509   4.989 -0.1634  0.1823 -0.1478
   47MOL   O37923471   0.244   4.486   5.024  0.3734  0.1488  0.3073
   47MOL   C38023472   0.290   4.564   5.136  0.2620  0.6130 -0.6177
   47MOL   C38123473   0.439   4.532   5.159  0.3793  0.2186 -0.2099
   47MOL   C38223474   0.522   4.535   5.030  0.2102  0.0356 -0.6657
   47MOL   C38323475   0.671   4.495   5.049 -0.0993  0.6609 -0.5438
   47MOL   C38423476   0.758   4.504   4.929 -0.2155  0.0025 -0.5959
   47MOL   C38523477   0.908   4.487   4.961 -0.4793  0.1826  0.0291
   47MOL   H38623478   7.764   4.483   4.808  0.1621 -1.2712  1.4050
   47MOL   H38723479   0.095   4.356   4.832  0.5775  0.1814 -0.1444
   47MOL   H38823480   0.084   4.615   5.004 -0.2219  0.1585 -0.0729
   47MOL   H38923481   0.231   4.539   5.224  1.4208 -0.2483 -0.0606
   47MOL   H39023482   0.269   4.670   5.121 -0.2179  0.2836 -2.4030
   47MOL   H39123483   0.452   4.437   5.211 -1.2193  0.1909  0.1523
   47MOL   H39223484   0.471   4.612   5.226 -1.1428  0.0806  0.6868
   47MOL   H39323485   0.472   4.469   4.959 -1.1163  0.4856 -0.1748
   47MOL   H39423486   0.526   4.634   4.984 -0.6192  0.8056  0.8649
   47MOL   H39523487   0.703   4.564   5.127  1.8795  1.5705 -2.1259
   47MOL   H39623488   0.677   4.394   5.089  2.4088  0.0870 -2.2536
   47MOL   H39723489   0.727   4.422   4.864  0.0163 -0.3035 -0.3222
   47MOL   H39823490   0.751   4.599   4.877 -1.6041 -0.8660 -2.0478
   47MOL   H39923491   0.977   4.504   4.879 -1.2915 -0.7615 -0.8641
   47MOL   H40023492   0.948   4.563   5.028  2.7906 -0.3991 -1.1273
   47MOL   H40123493   0.927   4.384   4.992  0.6297 -0.5731 -3.0128
   47MOL   C40223494   0.010   4.432   5.077 -0.0057  1.2458  0.0853
   47MOL   C40323495   7.637   4.457   5.047 -0.4127  0.3160 -0.1460
   47MOL   O40423496   7.636   4.603   5.057  0.4742  0.2791 -0.1054
   47MOL   C40523497   7.587   4.665   4.937  0.1770  0.1586  0.3077
   47MOL   C40623498   7.578   4.822   4.949  0.5615 -0.4824  0.0620
   47MOL   C40723499   7.713   4.875   4.973 -1.2751 -0.2389  0.6528
   47MOL   C40823500   7.734   5.031   4.985  0.6877 -0.2633  0.1982
   47MOL   C40923501   0.099   5.067   4.962 -0.4047  0.0731 -0.6558
   47MOL   C41023502   0.113   5.216   4.974  0.2063 -0.2415  0.0607
   47MOL   H41123503   0.027   4.465   5.180 -1.9879  1.8232  0.2611
   47MOL   H41223504   0.026   4.325   5.070  0.4539  1.3202  0.0116
   47MOL   H41323505   7.603   4.421   4.950  0.5411  1.9126 -1.1015
   47MOL   H41423506   7.489   4.627   4.909 -0.4314  1.2237  0.9643
   47MOL   H41523507   7.649   4.643   4.850  2.4887  1.9343  1.4466
   47MOL   H41623508   7.521   4.853   5.036 -0.0493 -1.2521 -0.0542
   47MOL   H41723509   7.526   4.860   4.861 -1.2110 -2.7240  0.0972
   47MOL   H41823510   7.750   4.836   5.069 -1.5590  0.0471  0.8785
   47MOL   H41923511   7.776   4.837   4.893  0.1813  2.2307  0.5505
   47MOL   H42023512   7.676   5.086   4.911 -2.9600 -1.6503  1.9517
   47MOL   H42123513   7.700   5.068   5.081 -1.8974 -0.6751 -0.5288
   47MOL   H42223514   0.166   5.019   5.033 -0.9239 -0.6219 -0.6321
   47MOL   H42323515   0.134   5.039   4.863  1.8953  2.5625 -0.6194
   47MOL   H42423516   0.146   5.249   5.073 -1.9619  2.9567 -0.1936
   47MOL   H42523517   0.188   5.251   4.903  0.5273 -2.1841 -0.5745
   47MOL   H42623518   0.020   5.267   4.948  0.5281 -0.0477 -0.7160
   47MOL   C42723519   7.541   4.415   5.163 -1.1707 -0.1932  0.4101
   47MOL   C42823520   7.391   4.420   5.129 -0.4890  0.1863 -0.6536
   47MOL   O42923521   7.375   4.319   5.031 -0.3270  0.0782  0.0829
   47MOL   C43023522   7.252   4.319   4.952 -0.3338  0.8517  0.1646
   47MOL   C43123523   7.263   4.244   4.820  0.0020 -0.3133  0.5936
   47MOL   C43223524   7.386   4.272   4.739 -0.4420  0.1564 -0.1765
   47MOL   C43323525   7.389   4.403   4.648 -0.2296 -0.1009  0.0825
   47MOL   C43423526   7.510   4.444   4.563 -0.6862  0.7295  0.7979
   47MOL   C43523527   7.485   4.554   4.457 -0.3426  0.3498  0.1038
   47MOL   H43623528   7.558   4.312   5.196  1.6052 -0.4635 -1.6439
   47MOL   H43723529   7.569   4.481   5.245 -2.4126  1.9411 -0.8368
   47MOL   H43823530   7.372   4.517   5.084 -0.0028  0.8376  0.5194
   47MOL   H43923531   7.216   4.422   4.946  0.0575  1.0220  0.7503
   47MOL   H44023532   7.172   4.274   5.011 -0.5684  1.0934  0.0297
   47MOL   H44123533   7.176   4.256   4.756  0.6918 -2.5328 -0.8159
   47MOL   H44223534   7.262   4.138   4.846 -1.2552 -0.5020 -0.1906
   47MOL   H44323535   7.476   4.278   4.801  0.8554  0.3584 -2.0368
   47MOL   H44423536   7.394   4.184   4.675  1.2079 -0.3770  0.7453
   47MOL   H44523537   7.306   4.380   4.581  0.9611 -4.2460 -0.1388
   47MOL   H44623538   7.369   4.495   4.702 -1.0674 -0.3629  0.2243
   47MOL   H44723539   7.588   4.473   4.633 -1.0952  0.2396  1.4533
   47MOL   H44823540   7.552   4.355   4.515  2.0939  2.9197 -1.0396
   47MOL   H44923541   7.444   4.641   4.508 -1.2658 -0.3537  0.5822
   47MOL   H45023542   7.571   4.586   4.398 -0.6630  0.5821 -0.2354
   47MOL   H45123543   7.409   4.532   4.383  1.9328  0.7896 -2.4456
   47MOL   C45223544   7.309   4.405   5.259  0.1716  0.4940 -0.5261
   47MOL   C45323545   7.293   4.526   5.351  0.3041 -0.5212 -0.2018
   47MOL   O45423546   7.231   4.476   5.466 -0.3918 -0.1797  0.6116
   47MOL   C45523547   7.313   4.481   5.584  0.6913  0.2433  0.7448
   47MOL   C45623548   7.245   4.427   5.709  0.3010 -0.0485 -0.4289
   47MOL   C45723549   7.102   4.491   5.735 -0.1150 -0.0032  0.2497
   47MOL   C45823550   7.043   4.473   5.881  0.4121 -0.4859  0.1969
   47MOL   C45923551   6.904   4.538   5.894 -0.3291 -0.6404  0.2098
   47MOL   C46023552   6.909   4.688   5.907 -0.6982  0.0914 -0.0553
   47MOL   H46123553   7.212   4.367   5.227 -0.0381  2.4920 -2.4208
   47MOL   H46223554   7.341   4.318   5.316  0.1103  0.6133 -0.3112
   47MOL   H46323555   7.392   4.565   5.373  1.4901 -3.0132 -0.9129
   47MOL   H46423556   7.347   4.583   5.602  3.0702 -0.5108  0.7298
   47MOL   H46523557   7.406   4.426   5.572  1.5213  1.2078  2.5149
   47MOL   H46623558   7.313   4.454   5.790 -0.6461 -2.1439  1.1108
   47MOL   H46723559   7.229   4.320   5.700  0.2522 -0.0400 -0.4334
   47MOL   H46823560   7.111   4.599   5.723  1.4086  0.0474  1.6156
   47MOL   H46923561   7.032   4.460   5.658  1.1065 -0.9115 -0.5090
   47MOL   H47023562   7.027   4.367   5.897  0.7659 -0.5818 -0.0718
   47MOL   H47123563   7.112   4.513   5.955  3.4066 -0.4815 -2.5013
   47MOL   H47223564   6.849   4.508   5.805 -1.5448  1.6810  0.1484
   47MOL   H47323565   6.854   4.505   5.984  0.6346 -1.7082  0.3641
   47MOL   H47423566   6.808   4.727   5.907 -0.2984  1.2430  2.3983
   47MOL   H47523567   6.964   4.707   5.999 -0.5357 -1.0228  0.0908
   47MOL   H47623568   6.967   4.719   5.820  1.1053 -4.4330 -0.6239
   47MOL   C47723569   7.209   4.634   5.289  0.2822 -0.4429  0.0151
   47MOL   C47823570   7.147   4.741   5.380  0.5269  0.1983 -0.0288
   47MOL   O47923571   7.110   4.832   5.286  0.0467  0.1661  0.8443
   47MOL   C48023572   7.007   4.919   5.337  0.1810 -0.1012  0.3011
   47MOL   C48123573   6.946   4.999   5.219  0.2972 -0.2758  0.1971
   47MOL   C48223574   7.055   5.087   5.150 -0.2752 -0.4354 -0.5748
   47MOL   C48323575   7.013   5.163   5.019  0.3811  0.1691  0.0853
   47MOL   C48423576   7.123   5.264   4.977 -1.2444 -0.0793  0.0562
   47MOL   C48523577   7.250   5.198   4.923 -0.1464  0.5530  0.0196
   47MOL   H48623578   7.258   4.674   5.200  0.6462  0.0078  0.4138
   47MOL   H48723579   7.133   4.572   5.244 -0.1212  0.5629 -0.7110
   47MOL   H48823580   7.068   4.695   5.440 -0.5832  0.2038 -1.4436
   47MOL   H48923581   7.036   4.981   5.421 -0.3992  0.7784 -0.1265
   47MOL   H49023582   6.918   4.864   5.369 -2.1497  1.9673 -2.2723
   47MOL   H49123583   6.857   5.054   5.251 -0.3618  0.5343 -2.8644
   47MOL   H49223584   6.916   4.919   5.152  0.4253 -2.5953  2.8275
   47MOL   H49323585   7.100   5.151   5.226  0.3964 -1.1664 -0.3421
   47MOL   H49423586   7.140   5.023   5.124  1.4467  1.6289 -0.1431
   47MOL   H49523587   6.996   5.087   4.942  3.8456 -0.7532  0.1546
   47MOL   H49623588   6.915   5.209   5.033 -1.2465 -2.4392 -2.1756
   47MOL   H49723589   7.091   5.323   4.891  0.0457  1.0244  0.3311
   47MOL   H49823590   7.142   5.324   5.065 -0.4517 -2.3003  1.4389
   47MOL   H49923591   7.320   5.267   4.877 -0.8954  0.2132 -1.6592
   47MOL   H50023592   7.310   5.154   5.003  0.8184  1.0387 -0.4363
   47MOL   H50123593   7.226   5.118   4.853  0.7180 -1.1566  1.6091
   47MOL   H50223594   7.218   4.777   5.454  1.0179 -0.9876  0.0832
   48MOL     C123595   0.088   1.700   0.085  0.1763 -0.0906 -0.4961
   48MOL     C223596   0.178   1.597   0.146  0.6843  0.1926  0.4703
   48MOL     O323597   0.112   1.554   0.267  0.2519 -0.2828  0.3535
   48MOL     C423598   0.149   1.425   0.321  0.3896  0.2422 -0.6624
   48MOL     C523599   0.080   1.314   0.239 -0.2478 -0.5876  0.7702
   48MOL     C623600   0.062   1.182   0.313  0.5565 -0.3184  0.0435
   48MOL     C723601   7.727   1.101   0.247  0.1389 -0.5816 -0.0525
   48MOL     C823602   7.747   0.953   0.272  0.2849  0.5104  0.0771
   48MOL     C923603   7.727   0.902   0.416  0.0491 -0.2063  0.0492
   48MOL    H1023604   0.002   1.646   0.048  0.2363 -1.5583  1.4591
   48MOL    H1123605   0.052   1.763   0.166 -2.8746 -1.7847 -0.4706
   48MOL    H1223606   0.195   1.517   0.075 -2.0434 -0.5278  0.5764
   48MOL    H1323607   0.115   1.424   0.425 -1.6782  0.8007 -1.2996
   48MOL    H1423608   0.257   1.416   0.316  0.4373 -0.5145  1.2542
   48MOL    H1523609   0.141   1.300   0.149 -0.6108  1.8128  0.1045
   48MOL    H1623610   7.761   1.346   0.202 -0.1528 -0.6821  0.4414
   48MOL    H1723611   0.160   1.135   0.315  0.2504 -1.0067 -0.7305
   48MOL    H1823612   0.038   1.199   0.417  0.6031  0.7061 -0.1031
   48MOL    H1923613   7.636   1.140   0.292  2.2064  3.1202  1.1837
   48MOL    H2023614   7.720   1.105   0.138  1.6181  0.6419 -0.1317
   48MOL    H2123615   0.067   0.910   0.254  0.3703  0.0491  1.5828
   48MOL    H2223616   7.681   0.899   0.203 -0.8087  1.7555  0.1385
   48MOL    H2323617   7.740   0.794   0.423  1.6002  0.0695  1.9682
   48MOL    H2423618   0.011   0.953   0.489  0.2516 -1.7538  0.9764
   48MOL    H2523619   7.621   0.921   0.433 -0.1499 -0.3236 -1.0210
   48MOL    H2623620   0.131   1.765   0.008  3.2524 -1.5361 -0.0605
   48MOL    C2723621   0.321   1.656   0.176 -0.3407 -0.6657 -0.1929
   48MOL    C2823622   0.416   1.666   0.051 -0.1201  1.0081  0.3688
   48MOL    O2923623   0.387   1.783   7.755  0.3675 -0.6927  0.1907
   48MOL    C3023624   0.384   1.752   7.613  0.8064 -0.2355 -1.1528
   48MOL    C3123625   0.392   1.887   7.542 -0.5169  0.0614  0.0684
   48MOL    C3223626   0.542   1.935   7.527  0.9345  0.3570 -0.1511
   48MOL    C3323627   0.555   2.077   7.484  0.0400 -0.7875  0.2088
   48MOL    C3423628   0.693   2.131   7.475 -0.0967 -0.3928 -0.6204
   48MOL    C3523629   0.698   2.257   7.392 -0.3012 -0.3794  0.2344
   48MOL    H3623630   0.316   1.750   0.230 -1.4218 -0.5399 -0.5081
   48MOL    H3723631   0.366   1.596   0.255 -0.8253 -0.1481  0.4814
   48MOL    H3823632   0.400   1.576   7.770  0.0355 -0.7288  2.8657
   48MOL    H3923633   0.291   1.702   7.586  0.7658 -0.5223 -0.4883
   48MOL    H4023634   0.474   1.690   7.606  0.7743 -0.2964 -1.0206
   48MOL    H4123635   0.338   1.962   7.599  1.0031  0.6041  0.8410
   48MOL    H4223636   0.340   1.876   7.447  1.3254 -1.0165 -0.8434
   48MOL    H4323637   0.578   1.928   7.630 -0.2431  1.7089  0.3623
   48MOL    H4423638   0.605   1.877   7.459  1.0215  0.6337 -0.3036
   48MOL    H4523639   0.500   2.092   7.391  1.1868  0.5278 -0.2843
   48MOL    H4623640   0.500   2.146   7.548  1.6371  0.4687  0.2751
   48MOL    H4723641   0.736   2.134   7.575 -0.3366  0.4777 -0.5396
   48MOL    H4823642   0.761   2.061   7.426  0.0100 -0.1441 -0.8286
   48MOL    H4923643   0.637   2.227   7.307  2.2868  0.0246 -1.8578
   48MOL    H5023644   0.657   2.340   7.449 -0.3987 -1.0782  1.1939
   48MOL    H5123645   0.797   2.285   7.355 -0.9635 -0.2959 -1.5245
   48MOL    C5223646   0.565   1.661   0.078  0.0573 -0.1548 -0.3779
   48MOL    C5323647   0.616   1.518   0.121 -0.7827 -0.3593 -0.2185
   48MOL    O5423648   0.606   1.447   0.000  0.1912 -0.7948 -0.1263
   48MOL    C5523649   0.599   1.306   7.776 -0.6898  0.7087  0.0711
   48MOL    C5623650   0.496   1.250   7.671  0.7505 -0.1095 -0.8240
   48MOL    C5723651   0.354   1.216   7.722  0.2878  0.2724  0.4235
   48MOL    C5823652   0.265   1.158   7.605 -0.2526 -0.4815  0.9618
   48MOL    C5923653   0.138   1.098   7.668  0.0351  0.1261 -0.3226
   48MOL    C6023654   0.149   0.969   7.745 -1.2500 -0.1617  0.0693
   48MOL    H6123655   0.576   1.734   0.158  1.2225 -0.9456  0.2093
   48MOL    H6223656   0.628   1.709   0.003 -0.2816  1.6915  0.5024
   48MOL    H6323657   0.544   1.467   0.186  1.1576  0.1043  2.3790
   48MOL    H6423658   0.578   1.262   0.095  2.8772 -0.0670  0.5637
   48MOL    H6523659   0.698   1.275   7.743  0.2780  5.3837 -1.8066
   48MOL    H6623660   0.536   1.153   7.641  0.1145 -0.1068 -1.7212
   48MOL    H6723661   0.504   1.311   7.581  2.5536  0.0278 -0.5917
   48MOL    H6823662   0.371   1.139   0.019  0.9921 -0.0208 -0.0346
   48MOL    H6923663   0.304   1.301   7.771  0.1608  0.6191 -0.3078
   48MOL    H7023664   0.241   1.247   7.547  1.9170 -0.9172 -0.6646
   48MOL    H7123665   0.325   1.088   7.547 -0.7634  1.1397 -1.6273
   48MOL    H7223666   0.104   1.174   7.739  0.1572 -1.1366  1.1352
   48MOL    H7323667   0.058   1.081   7.597 -0.2698 -1.5614  0.4021
   48MOL    H7423668   0.067   0.903   7.716 -0.6628 -1.1725  0.6873
   48MOL    H7523669   0.248   0.930   7.718  0.5796  2.6658  2.3505
   48MOL    H7623670   0.156   0.989   0.073  0.1349  0.3011 -0.0888
   48MOL    C7723671   0.760   1.515   0.180 -0.5437  0.0897  0.1741
   48MOL    C7823672   0.772   1.528   0.337 -0.2548 -0.4137  0.4981
   48MOL    O7923673   0.723   1.654   0.367  0.1810 -0.6453 -0.5708
   48MOL    C8023674   0.686   1.675   0.503  0.1534 -0.0704 -0.0509
   48MOL    C8123675   0.648   1.826   0.517  0.1651 -0.3250  0.0409
   48MOL    C8223676   0.577   1.856   0.652  1.1593 -0.1829  0.3302
   48MOL    C8323677   0.654   1.803   0.777  0.2689  0.2354 -0.9055
   48MOL    C8423678   0.597   1.850   0.910 -0.2430 -0.6792 -0.3760
   48MOL    C8523679   0.695   1.822   1.028 -0.2214 -0.1843 -0.4743
   48MOL    H8623680   0.816   1.602   0.146  0.8046 -0.1032  1.8592
   48MOL    H8723681   0.817   1.430   0.143  0.8745  0.2848  1.8617
   48MOL    H8823682   0.701   1.453   0.373 -0.7851 -0.7478 -1.1960
   48MOL    H8923683   0.784   1.678   0.550 -0.2831 -0.2721  0.8749
   48MOL    H9023684   0.606   1.612   0.540 -2.5164  2.8396 -0.6694
   48MOL    H9123685   0.577   1.853   0.439  1.7530  0.2938 -1.2314
   48MOL    H9223686   0.735   1.891   0.504 -0.4284  0.3068 -0.7995
   48MOL    H9323687   0.571   1.965   0.649  1.7627 -0.1824 -3.8465
   48MOL    H9423688   0.484   1.800   0.664  0.7009  0.4685 -0.0914
   48MOL    H9523689   0.652   1.694   0.775  0.0409  0.2010  0.8163
   48MOL    H9623690   0.755   1.843   0.767  0.5493 -0.8412 -2.7805
   48MOL    H9723691   0.587   1.959   0.912 -0.5547 -0.6251 -2.6611
   48MOL    H9823692   0.505   1.796   0.934  0.0509 -0.2398  1.8126
   48MOL    H9923693   0.797   1.858   1.017  0.1848 -0.6534  1.6449
   48MOL   H10023694   0.654   1.864   1.120 -0.0796  0.5968 -0.7585
   48MOL   H10123695   0.701   1.714   1.032  1.1719 -0.1357 -1.1367
   48MOL   C10223696   0.915   1.494   0.390 -0.1278  0.5837  0.6617
   48MOL   C10323697   0.973   1.356   0.344 -0.0616 -0.1362 -0.2420
   48MOL   O10423698   1.095   1.334   0.416  0.8918 -0.3321 -0.0560
   48MOL   C10523699   1.214   1.341   0.344  0.1036 -0.1401 -0.0425
   48MOL   C10623700   1.340   1.355   0.429  0.1166 -0.0730 -0.3188
   48MOL   C10723701   1.467   1.292   0.381 -0.1416  0.0934 -0.1986
   48MOL   C10823702   1.599   1.337   0.456 -0.4196 -0.1358  0.6765
   48MOL   C10923703   1.727   1.304   0.373  0.8933 -0.0602  0.0175
   48MOL   C11023704   1.744   1.155   0.322  0.3551 -0.0469  0.1230
   48MOL   H11123705   0.983   1.578   0.384 -2.3700  2.4021  0.0789
   48MOL   H11223706   0.903   1.480   0.498  2.7603 -0.3172  0.9122
   48MOL   H11323707   0.996   1.348   0.238  1.0271 -0.4404  0.0152
   48MOL   H11423708   1.212   1.433   0.285  1.5751 -0.6025 -0.8295
   48MOL   H11523709   1.229   1.262   0.270 -2.8524 -0.1309 -0.7158
   48MOL   H11623710   1.315   1.298   0.518  1.6192 -3.1645 -1.7827
   48MOL   H11723711   1.351   1.457   0.464  0.0844 -0.3855  0.6084
   48MOL   H11823712   1.449   1.184   0.390 -0.1639  0.2349  1.6403
   48MOL   H11923713   1.482   1.305   0.274  1.1209  0.4816  0.0207
   48MOL   H12023714   1.591   1.444   0.476  2.1435 -0.4976  4.1521
   48MOL   H12123715   1.608   1.300   0.558 -1.8301 -1.5249  0.3089
   48MOL   H12223716   1.741   1.368   0.286  1.0810  0.6821  0.5847
   48MOL   H12323717   1.817   1.314   0.435 -1.9060 -0.4482  4.3828
   48MOL   H12423718   1.682   1.139   0.233 -1.2164  0.1571  1.1652
   48MOL   H12523719   1.844   1.138   0.282 -0.7900 -2.3056 -1.9868
   48MOL   H12623720   1.730   1.083   0.403  1.2997  1.2990  1.4900
   48MOL   C12723721   0.882   1.231   0.377 -0.8541  0.2543 -0.5531
   48MOL   C12823722   0.930   1.102   0.316 -0.1505 -0.2676 -0.3541
   48MOL   O12923723   0.910   1.116   0.179  0.1285  0.0508  0.2980
   48MOL   C13023724   0.989   1.029   0.103  0.6258 -0.2574  0.1555
   48MOL   C13123725   1.002   1.080   7.735  0.0600  0.2276 -0.0953
   48MOL   C13223726   1.136   1.050   7.669 -0.4478 -0.2476 -0.2514
   48MOL   C13323727   1.170   0.896   7.666 -0.0294  0.0122  1.0997
   48MOL   C13423728   1.316   0.874   7.623  0.0588 -0.1256  0.2793
   48MOL   C13523729   1.348   0.728   7.632  0.2096  0.5241 -0.7192
   48MOL   H13623730   0.876   1.227   0.486  1.6247 -2.1073 -0.4585
   48MOL   H13723731   0.790   1.261   0.326 -0.7851  0.1976 -0.7099
   48MOL   H13823732   1.035   1.097   0.344  0.0340 -0.6273 -1.0874
   48MOL   H13923733   0.950   0.928   0.096  1.8808 -0.7614  0.1837
   48MOL   H14023734   1.089   1.025   0.147  0.0224 -0.6519  1.5154
   48MOL   H14123735   0.984   1.187   7.734  1.1110  0.4309  1.4124
   48MOL   H14223736   0.920   1.040   7.675 -1.6704  0.3020  2.1816
   48MOL   H14323737   1.122   1.088   7.568  0.1667 -0.7517 -0.5348
   48MOL   H14423738   1.209   1.103   7.731 -0.4502  2.6073 -2.5755
   48MOL   H14523739   1.167   0.861   7.769 -0.3873 -0.3307  0.9752
   48MOL   H14623740   1.089   0.836   7.623 -0.9308  2.1433 -0.2122
   48MOL   H14723741   1.324   0.909   7.520  2.1836  2.7372  1.3464
   48MOL   H14823742   1.384   0.940   7.678 -0.5824 -0.0515  0.9962
   48MOL   H14923743   1.278   0.661   7.584  0.8667  0.9205 -2.2542
   48MOL   H15023744   1.443   0.717   7.580  0.0386 -1.2932 -0.6755
   48MOL   H15123745   1.370   0.692   7.732  0.2795  0.0232 -0.9155
   48MOL   C15223746   0.862   0.976   0.371  0.6010  0.5363 -0.0034
   48MOL   C15323747   0.897   0.933   0.513  0.3600 -0.1614 -0.0088
   48MOL   O15423748   0.807   0.837   0.563  0.3253  0.1978 -0.4356
   48MOL   C15523749   0.690   0.887   0.632 -0.2111  0.1263 -0.5666
   48MOL   C15623750   0.591   0.774   0.679 -0.0248 -0.2468  0.2655
   48MOL   C15723751   0.487   0.807   0.794 -0.4363  0.2213  0.2278
   48MOL   C15823752   0.378   0.908   0.743  0.4927 -0.0433 -0.4420
   48MOL   C15923753   0.278   0.957   0.849 -0.1473  0.1136 -0.0861
   48MOL   C16023754   0.188   1.067   0.796  0.1237  0.0748  0.0585
   48MOL   H16123755   0.757   1.004   0.370  0.5274  0.2615 -1.3019
   48MOL   H16223756   0.865   0.890   0.305 -0.3171  2.0891 -2.1303
   48MOL   H16323757   0.895   1.023   0.575  2.7465 -0.4328  0.4888
   48MOL   H16423758   0.642   0.970   0.581  2.3939  0.9455 -1.7474
   48MOL   H16523759   0.725   0.935   0.723 -0.1510 -3.3577  1.3559
   48MOL   H16623760   0.664   0.697   0.706  3.8648  1.9091 -3.3260
   48MOL   H16723761   0.534   0.727   0.598 -1.2532 -1.6209  1.8824
   48MOL   H16823762   0.438   0.721   0.839 -0.0326  1.0234  2.2454
   48MOL   H16923763   0.544   0.849   0.877 -2.3015 -2.5756  3.0731
   48MOL   H17023764   0.426   0.990   0.688  1.0495 -1.1394 -1.6144
   48MOL   H17123765   0.325   0.861   0.660 -0.7994  0.9299 -0.1714
   48MOL   H17223766   0.223   0.869   0.883 -1.5980  1.1468  0.2915
   48MOL   H17323767   0.326   0.987   0.943 -1.4579  0.4086  0.4960
   48MOL   H17423768   0.148   1.046   0.697  2.5960  0.3905 -1.0584
   48MOL   H17523769   0.094   1.081   0.850  0.8155  2.0192  0.8206
   48MOL   H17623770   0.230   1.168   0.802  0.6052 -0.2091  1.5786
   48MOL   C17723771   1.034   0.873   0.528  0.1765 -0.3805 -0.9408
   48MOL   C17823772   1.075   0.801   0.663  0.9217 -0.2527 -0.3310
   48MOL   O17923773   1.210   0.754   0.651 -0.0556 -0.0977 -0.6532
   48MOL   C18023774   1.217   0.621   0.629  0.5778  0.6483  0.2822
   48MOL   C18123775   1.336   0.569   0.548 -0.0292  0.3488 -0.1392
   48MOL   C18223776   1.471   0.580   0.613 -0.7501 -0.1475  0.0831
   48MOL   C18323777   1.577   0.500   0.552 -0.5338  0.8238  1.0876
   48MOL   C18423778   1.719   0.526   0.604 -0.5046  0.3439 -0.0937
   48MOL   C18523779   1.821   0.421   0.562  0.3153  0.5799 -0.0224
   48MOL   H18623780   1.048   0.804   0.445  1.4616 -0.4101 -0.7140
   48MOL   H18723781   1.102   0.955   0.504  1.4585 -0.4161  2.3461
   48MOL   H18823782   1.006   0.717   0.678 -1.1692  1.8338  2.2515
   48MOL   H18923783   1.132   0.586   0.571  0.1132 -1.7839  2.3327
   48MOL   H19023784   1.200   0.574   0.726  0.3359 -0.1789 -0.1520
   48MOL   H19123785   1.348   0.602   0.445  0.2407  0.4752 -0.0685
   48MOL   H19223786   1.319   0.461   0.543 -0.2492  0.3322  0.8042
   48MOL   H19323787   1.505   0.683   0.601 -2.5698  0.2180 -2.3022
   48MOL   H19423788   1.450   0.566   0.719 -0.3518  0.1231  0.1987
   48MOL   H19523789   1.548   0.395   0.550  2.6456 -0.0772  0.1852
   48MOL   H19623790   1.560   0.533   0.449  0.9097  1.5051  1.0547
   48MOL   H19723791   1.755   0.625   0.577  1.9411 -0.9541 -1.7551
   48MOL   H19823792   1.718   0.534   0.713 -2.8938 -0.1144 -0.0590
   48MOL   H19923793   1.807   0.330   0.618  1.6115 -0.9337 -2.0800
   48MOL   H20023794   1.806   0.403   0.455  1.8526  0.0163 -0.1648
   48MOL   H20123795   1.923   0.460   0.575  0.5158  0.5221 -1.3322
   48MOL   C20223796   1.057   0.897   0.784 -0.4315  1.0091 -0.2616
   48MOL   C20323797   1.035   0.816   0.921  0.4653 -0.7895  0.1440
   48MOL   O20423798   0.991   0.923   1.007  1.0231  0.5042  0.2595
   48MOL   C20523799   0.846   0.933   1.020  0.1223 -0.2465 -0.3740
   48MOL   C20623800   0.805   1.040   1.128  0.1809 -0.4846  0.2062
   48MOL   C20723801   0.660   1.031   1.175 -0.0413 -0.1603 -0.2612
   48MOL   C20823802   0.635   0.927   1.292  0.3697  0.4988  0.5965
   48MOL   C20923803   0.482   0.901   1.296 -0.2965  0.3608 -0.0820
   48MOL   C21023804   0.435   0.804   1.409 -0.1995  0.4958  0.4352
   48MOL   H21123805   1.145   0.959   0.800  0.7464 -0.1014 -2.1261
   48MOL   H21223806   0.959   0.943   0.777 -1.9916 -1.8496  1.5304
   48MOL   H21323807   0.967   0.732   0.910 -0.8516 -0.0908  2.7342
   48MOL   H21423808   0.807   0.835   1.050 -1.6995 -0.1686 -2.3695
   48MOL   H21523809   0.796   0.955   0.926 -1.8555 -0.2636  0.6555
   48MOL   H21623810   0.826   1.131   1.071 -0.8660  0.2501  0.9562
   48MOL   H21723811   0.878   1.043   1.208  1.1747  4.2449 -0.7108
   48MOL   H21823812   0.622   1.129   1.204  0.3376  0.3660 -1.4943
   48MOL   H21923813   0.613   1.012   1.079 -0.7384  0.3924 -0.0289
   48MOL   H22023814   0.693   0.836   1.278 -2.6838 -1.2808 -0.9444
   48MOL   H22123815   0.681   0.962   1.384 -0.4556  0.6660  0.9427
   48MOL   H22223816   0.428   0.994   1.309 -0.5979 -0.2915  4.2886
   48MOL   H22323817   0.438   0.865   1.203 -1.9522  1.4535  0.2680
   48MOL   H22423818   0.331   0.777   1.395 -0.5337  1.8566  0.1825
   48MOL   H22523819   0.484   0.707   1.402 -1.1282 -0.0869  1.9649
   48MOL   H22623820   0.449   0.838   1.511  1.7958  3.2268 -0.6705
   48MOL   C22723821   1.167   0.765   0.983 -0.0742  0.3052 -0.5703
   48MOL   C22823822   1.141   0.681   1.110 -0.3073  0.6918 -0.0329
   48MOL   O22923823   1.119   0.549   1.065  0.0840  0.2040 -0.5229
   48MOL   C23023824   0.978   0.503   1.081  0.4932 -0.8833 -0.0013
   48MOL   C23123825   0.952   0.371   1.013  0.4293  0.0760 -0.2985
   48MOL   C23223826   0.993   0.377   0.868  0.4930  0.8131  0.4558
   48MOL   C23323827   0.946   0.260   0.782  0.4796 -0.0621  0.0210
   48MOL   C23423828   1.041   0.241   0.654 -0.1603  0.0093  0.0174
   48MOL   C23523829   0.975   0.139   0.554 -1.2008 -0.1344 -0.3632
   48MOL   H23623830   1.224   0.714   0.905 -1.0251 -1.4750 -0.1229
   48MOL   H23723831   1.241   0.844   0.998  1.1304 -1.0965  0.9588
   48MOL   H23823832   1.053   0.719   1.161  0.9771 -1.3977  3.9449
   48MOL   H23923833   0.909   0.573   1.034 -0.2417 -2.2648 -1.0180
   48MOL   H24023834   0.940   0.500   1.183 -1.1678  1.6088 -0.4828
   48MOL   H24123835   0.846   0.347   1.007  0.7229 -0.9447 -1.4712
   48MOL   H24223836   1.010   0.297   1.068 -0.9643 -0.9167 -0.1409
   48MOL   H24323837   0.961   0.464   0.811  2.0540  0.5962 -0.7550
   48MOL   H24423838   1.101   0.382   0.874  0.5856 -2.0864  2.2517
   48MOL   H24523839   0.951   0.173   0.848 -0.6508  0.8246  1.3231
   48MOL   H24623840   0.839   0.268   0.761 -0.5664  0.5013  4.9116
   48MOL   H24723841   1.046   0.336   0.602  0.1249  0.8790  1.5953
   48MOL   H24823842   1.138   0.205   0.688 -0.8634 -0.7227  1.2874
   48MOL   H24923843   1.012   0.155   0.453 -0.9173  1.8394  0.0312
   48MOL   H25023844   0.999   0.038   0.588  0.9662  1.2514  2.4787
   48MOL   H25123845   0.867   0.152   0.552 -1.4704 -1.9985  1.0908
   48MOL   C25223846   1.248   0.683   1.221  0.3851 -0.1014  0.6004
   48MOL   C25323847   1.235   0.806   1.310 -0.6732  0.1477  0.1227
   48MOL   O25423848   1.334   0.897   1.263 -0.2745  0.2006  0.5655
   48MOL   C25523849   1.322   1.034   1.294  0.3787  0.8127 -0.5540
   48MOL   C25623850   1.420   1.111   1.215  0.0195 -0.3712 -0.5154
   48MOL   C25723851   1.562   1.064   1.236  0.4521  0.2422 -0.3858
   48MOL   C25823852   1.673   1.129   1.142  0.0341 -0.1157 -0.2817
   48MOL   C25923853   1.703   1.275   1.185 -0.2049  0.0038 -0.0348
   48MOL   C26023854   1.847   1.306   1.134 -0.4321  0.3932 -0.2947
   48MOL   H26123855   1.251   0.592   1.281 -0.7560 -1.3783 -1.2197
   48MOL   H26223856   1.345   0.679   1.172  0.2190 -1.6231  0.3535
   48MOL   H26323857   1.135   0.849   1.308 -0.4944  0.5743  0.2212
   48MOL   H26423858   1.344   1.052   1.399  0.8465  1.9012 -0.8316
   48MOL   H26523859   1.217   1.054   1.271 -0.6922 -1.3694  2.1742
   48MOL   H26623860   1.403   1.216   1.237 -0.2161 -0.4338 -0.3918
   48MOL   H26723861   1.394   1.097   1.110  1.2585 -1.4359 -0.7028
   48MOL   H26823862   1.588   1.079   1.341  0.7270 -0.2564 -0.3860
   48MOL   H26923863   1.568   0.957   1.220  1.5430  0.1188  0.8021
   48MOL   H27023864   1.768   1.077   1.150  0.3696  0.4666 -0.5215
   48MOL   H27123865   1.659   1.121   1.034 -3.1756  1.3609 -0.0536
   48MOL   H27223866   1.633   1.350   1.147 -2.1934 -2.3695 -1.2301
   48MOL   H27323867   1.705   1.281   1.293 -0.0667  0.2053 -0.0491
   48MOL   H27423868   1.876   1.409   1.157 -2.5565  0.8877  0.2403
   48MOL   H27523869   1.918   1.245   1.190 -1.2785 -0.9858 -0.7205
   48MOL   H27623870   1.865   1.290   1.028  0.9524  3.0889 -0.5231
   48MOL   C27723871   1.248   0.771   1.463 -0.0298 -0.3646 -0.3821
   48MOL   C27823872   1.152   0.660   1.518 -0.0994 -0.0134  0.5689
   48MOL   O27923873   1.162   0.664   1.660  0.1446  0.1450 -0.1021
   48MOL   C28023874   1.242   0.575   1.721 -0.2276 -0.4796  0.7843
   48MOL   C28123875   1.214   0.588   1.872  0.0018  0.7443  0.4716
   48MOL   C28223876   1.290   0.706   1.941 -0.7117 -0.2603  0.0715
   48MOL   C28323877   1.267   0.709   2.089  0.5312 -0.2258 -0.6527
   48MOL   C28423878   1.307   0.588   2.172 -0.0522 -0.3112  0.5469
   48MOL   C28523879   1.245   0.589   2.309 -0.5133  0.7480 -0.1171
   48MOL   H28623880   1.351   0.749   1.490  0.1940 -0.0905 -1.0058
   48MOL   H28723881   1.226   0.856   1.527 -1.5684  0.4460 -1.9333
   48MOL   H28823882   1.197   0.564   1.493  1.1098  0.2713  1.6047
   48MOL   H28923883   1.348   0.593   1.702 -0.5309 -2.4526 -3.2148
   48MOL   H29023884   1.216   0.471   1.705  1.4619 -0.7699 -0.2147
   48MOL   H29123885   1.243   0.493   1.916 -0.3552  0.8206  0.8757
   48MOL   H29223886   1.107   0.595   1.889  0.4385  1.8249  3.0151
   48MOL   H29323887   1.396   0.703   1.920 -0.5478  1.1895  0.5878
   48MOL   H29423888   1.261   0.796   1.886  1.4175 -0.4423 -1.3759
   48MOL   H29523889   1.326   0.794   2.122  1.3807 -0.1804 -2.1925
   48MOL   H29623890   1.160   0.720   2.107  0.7387  0.7180 -0.0030
   48MOL   H29723891   1.285   0.494   2.121 -2.5039  1.3869 -1.7183
   48MOL   H29823892   1.415   0.587   2.186  0.1083  3.0323 -0.1147
   48MOL   H29923893   1.137   0.580   2.306 -0.2781 -2.4390 -0.9217
   48MOL   H30023894   1.273   0.501   2.367 -1.3075  0.7155  0.2203
   48MOL   H30123895   1.268   0.680   2.365  0.6109  0.4240 -0.0257
   48MOL   C30223896   1.005   0.677   1.473  0.0608 -0.3784  0.2186
   48MOL   C30323897   0.897   0.593   1.546 -0.0376 -0.1731 -0.2720
   48MOL   O30423898   0.775   0.589   1.465 -0.0268  0.3826  0.1285
   48MOL   C30523899   0.750   0.464   1.406 -0.0652 -0.0979 -1.0028
   48MOL   C30623900   0.637   0.484   1.301  0.1955  0.1972 -0.9083
   48MOL   C30723901   0.623   0.354   1.222  0.5374 -0.7662 -0.5608
   48MOL   C30823902   0.514   0.363   1.121  0.8874  0.8791  1.1053
   48MOL   C30923903   0.508   0.230   1.048 -0.2282 -0.1424 -0.4732
   48MOL   C31023904   0.379   0.220   0.963  0.5463 -0.4390  0.0273
   48MOL   H31123905   0.979   0.782   1.456  0.5452 -0.5047 -1.4059
   48MOL   H31223906   1.011   0.630   1.375 -2.3907 -2.2046  0.8838
   48MOL   H31323907   0.938   0.496   1.571 -1.0550 -0.4791  0.2546
   48MOL   H31423908   0.733   0.399   1.492 -2.2767  1.4943 -0.1888
   48MOL   H31523909   0.842   0.423   1.364 -0.8754 -2.6431 -0.4135
   48MOL   H31623910   0.669   0.569   1.240 -1.2213  1.2009 -0.2898
   48MOL   H31723911   0.540   0.510   1.344  1.0616  1.8430  0.1078
   48MOL   H31823912   0.715   0.317   1.176  1.4054  0.4262  0.1801
   48MOL   H31923913   0.599   0.279   1.297  0.4226  0.5851  0.7814
   48MOL   H32023914   0.419   0.376   1.175  0.1184 -0.5961  0.1345
   48MOL   H32123915   0.525   0.450   1.056 -2.1101 -0.3881 -1.2503
   48MOL   H32223916   0.586   0.204   0.977  0.1289  0.7141 -0.4068
   48MOL   H32323917   0.507   0.149   1.121 -1.2745 -1.1722 -1.5916
   48MOL   H32423918   0.297   0.215   1.034  0.6246  3.6644  0.5272
   48MOL   H32523919   0.369   0.309   0.900  2.3931  1.0625  1.7807
   48MOL   H32623920   0.363   0.126   0.911 -2.3944 -0.0569  0.1264
   48MOL   C32723921   0.845   0.650   1.681  0.1319  0.3366 -0.2765
   48MOL   C32823922   0.737   0.569   1.755  1.1642  0.1545 -0.1934
   48MOL   O32923923   0.758   0.560   1.890  0.0874  0.8760  0.3072
   48MOL   C33023924   0.784   0.682   1.957 -0.1022  0.5022  0.1283
   48MOL   C33123925   0.741   0.665   2.104 -0.3414 -0.1845  1.0531
   48MOL   C33223926   0.765   0.786   2.199  0.3058 -0.6175 -0.2963
   48MOL   C33323927   0.705   0.764   2.341  0.0099  0.7100  0.2662
   48MOL   C33423928   0.777   0.847   2.443  0.7229 -0.2606  0.4064
   48MOL   C33523929   0.892   0.773   2.509 -0.1169 -1.4303  0.5294
   48MOL   H33623930   0.804   0.750   1.663  0.1399  0.8281  2.2908
   48MOL   H33723931   0.929   0.664   1.749  0.0663 -0.7263  0.0344
   48MOL   H33823932   0.762   0.468   1.723 -0.5082  0.0677 -1.2346
   48MOL   H33923933   0.727   0.763   1.911  0.3060 -0.9145 -2.9864
   48MOL   H34023934   0.889   0.711   1.948  0.3791 -1.4921 -1.0691
   48MOL   H34123935   0.798   0.579   2.139  0.6024  0.3794  0.9042
   48MOL   H34223936   0.636   0.635   2.111 -0.2099 -1.0896 -0.5371
   48MOL   H34323937   0.874   0.789   2.209  0.3547 -2.9377  0.1139
   48MOL   H34423938   0.731   0.876   2.147  0.9621 -0.0663  0.2052
   48MOL   H34523939   0.597   0.773   2.336  0.1138  1.5147 -0.7214
   48MOL   H34623940   0.717   0.659   2.366  4.2234  0.5279 -1.9772
   48MOL   H34723941   0.805   0.943   2.398  0.1135 -1.6309 -3.0615
   48MOL   H34823942   0.711   0.877   2.525  2.3512  2.0968  0.9117
   48MOL   H34923943   0.921   0.838   2.591 -0.3452  1.6375 -1.7057
   48MOL   H35023944   0.861   0.678   2.551 -1.6573 -0.0828  2.5624
   48MOL   H35123945   0.976   0.759   2.441  0.2257  1.9120  0.1511
   48MOL   C35223946   0.596   0.610   1.729 -0.4445  0.5143 -0.3256
   48MOL   C35323947   0.481   0.528   1.786 -0.1564  0.3669 -0.3147
   48MOL   O35423948   0.473   0.393   1.734 -0.3839  0.0836  0.1863
   48MOL   C35523949   0.464   0.295   1.838  0.7938 -0.1303  0.0418
   48MOL   C35623950   0.486   0.162   1.769  0.3242 -0.2853  0.3981
   48MOL   C35723951   0.626   0.131   1.715  0.2576 -0.3309 -0.5874
   48MOL   C35823952   0.639   7.772   1.663 -1.0339 -0.2391  0.4279
   48MOL   C35923953   0.568   7.742   1.528  0.1212  0.0631  0.0121
   48MOL   C36023954   0.577   7.598   1.480 -0.1092  0.1039  0.1092
   48MOL   H36123955   0.584   0.714   1.760 -1.0936  0.7231 -1.2431
   48MOL   H36223956   0.579   0.617   1.621  0.9155  1.0000 -0.5232
   48MOL   H36323957   0.483   0.520   1.895 -0.0675 -3.7407 -0.5109
   48MOL   H36423958   0.364   0.309   1.880  0.8518 -2.2672  0.9743
   48MOL   H36523959   0.548   0.303   1.907  2.0644 -0.8758 -1.3740
   48MOL   H36623960   0.411   0.157   1.690  0.1425  2.0314  0.4014
   48MOL   H36723961   0.468   0.082   1.841  1.8569 -1.7516 -0.7733
   48MOL   H36823962   0.643   0.202   1.635 -1.2369  1.3047  0.4897
   48MOL   H36923963   0.697   0.141   1.797 -3.1779 -1.8019  2.7557
   48MOL   H37023964   0.747   7.759   1.654 -1.2825 -2.0921  0.0613
   48MOL   H37123965   0.602   7.705   1.740  2.1603 -2.9276 -0.2698
   48MOL   H37223966   0.461   7.761   1.531 -0.1625 -1.4912  0.1068
   48MOL   H37323967   0.604   0.015   1.439 -0.2708  1.7049  0.7747
   48MOL   H37423968   0.515   7.531   1.539  2.8113 -0.5709  2.4790
   48MOL   H37523969   0.544   7.597   1.376  1.7611  1.1257 -0.5089
   48MOL   H37623970   0.681   7.569   1.486 -0.2069 -0.7507 -1.8773
   48MOL   C37723971   0.341   0.594   1.742 -0.2515  0.0027 -0.0700
   48MOL   C37823972   0.309   0.732   1.812 -0.1315 -0.3975  0.0232
   48MOL   O37923973   0.379   0.842   1.745 -0.1665  0.3867  0.5570
   48MOL   C38023974   0.296   0.959   1.748 -0.0258  0.0406 -0.5252
   48MOL   C38123975   0.370   1.084   1.702 -0.6798  0.0031 -0.0862
   48MOL   C38223976   0.285   1.212   1.738 -0.0356 -0.0746  0.1532
   48MOL   C38323977   0.313   1.254   1.886  0.6199  0.8097 -0.5714
   48MOL   C38423978   0.220   1.360   1.929  0.4164 -0.1733 -0.6207
   48MOL   C38523979   0.252   1.491   1.858 -0.1432  0.2367  0.2906
   48MOL   H38623980   0.341   0.605   1.634  0.0356 -3.0737 -0.4450
   48MOL   H38723981   0.257   0.530   1.767 -0.6317  0.7208  0.5011
   48MOL   H38823982   0.201   0.748   1.801 -0.3660 -2.9127 -1.6716
   48MOL   H38923983   0.258   0.980   1.848  1.7352 -0.1554  0.2025
   48MOL   H39023984   0.204   0.948   1.691 -0.3364 -0.9721  0.1572
   48MOL   H39123985   0.380   1.077   1.594 -1.4626 -1.9946 -0.0457
   48MOL   H39223986   0.471   1.087   1.742 -0.4210  0.2703 -0.7530
   48MOL   H39323987   0.325   1.295   1.681 -1.5541  0.5406 -0.0471
   48MOL   H39423988   0.178   1.196   1.724  0.3805 -1.6943 -1.3921
   48MOL   H39523989   0.310   1.164   1.947  0.4947  0.2929 -1.3267
   48MOL   H39623990   0.411   1.301   1.891  1.0048 -0.0920  0.3793
   48MOL   H39723991   0.117   1.336   1.902  0.3356 -0.4963 -0.0346
   48MOL   H39823992   0.226   1.381   2.036 -2.0397  1.5242 -0.7828
   48MOL   H39923993   0.246   1.489   1.749 -2.1768  1.8247  0.3260
   48MOL   H40023994   0.181   1.568   1.889 -0.9597 -1.1859  2.0421
   48MOL   H40123995   0.344   1.537   1.891 -0.6824  2.0758 -0.6967
   48MOL   C40223996   0.339   0.736   1.964 -0.4858  0.2969  0.2513
   48MOL   C40323997   0.269   0.642   2.061  0.3259  0.0258  0.0170
   48MOL   O40423998   0.140   0.695   2.073  0.0148  0.1385  0.0910
   48MOL   C40523999   0.041   0.636   1.995 -0.2489 -0.4160 -0.1694
   48MOL   C40624000   7.709   0.734   1.992  0.2878  0.5278 -0.0621
   48MOL   C40724001   7.748   0.866   1.928  0.2867  0.3177  0.5429
   48MOL   C40824002   7.639   0.982   1.907 -1.1010  0.2029 -0.2773
   48MOL   C40924003   7.538   0.947   1.797 -0.3157  0.1557 -0.3175
   48MOL   C41024004   7.502   1.073   1.715  0.0023  0.4064 -0.2094
   48MOL   H41124005   0.315   0.834   2.004  0.4700  1.7117 -2.4744
   48MOL   H41224006   0.448   0.734   1.967 -0.4172  2.6715 -0.1001
   48MOL   H41324007   0.274   0.541   2.020  0.9226  0.3683 -0.7789
   48MOL   H41424008   0.002   0.546   2.043 -0.8719 -2.7186 -4.6441
   48MOL   H41524009   0.072   0.610   1.894 -2.0030 -3.7975  0.0617
   48MOL   H41624010   7.673   0.742   2.094 -0.8763  2.8073 -0.6038
   48MOL   H41724011   7.625   0.686   1.941 -0.1860 -1.6878  2.6775
   48MOL   H41824012   0.049   0.920   1.977  2.0643 -0.8538 -0.9709
   48MOL   H41924013   0.007   0.839   1.829 -1.2412  1.1295 -0.2779
   48MOL   H42024014   7.600   0.987   2.008  2.3018 -1.3782  1.2209
   48MOL   H42124015   7.682   1.079   1.881  3.1013 -1.2425  0.7539
   48MOL   H42224016   7.582   0.876   1.727  0.6132 -1.1739  1.5875
   48MOL   H42324017   7.453   0.908   1.852 -0.1956  0.3560  0.0090
   48MOL   H42424018   7.422   1.054   1.643 -0.4333  1.9537 -0.1544
   48MOL   H42524019   7.473   1.154   1.782  2.6051  1.3119 -0.1237
   48MOL   H42624020   7.595   1.099   1.664  0.5953 -0.7720  0.2701
   48MOL   C42724021   0.325   0.662   2.199  1.0442  0.0701  0.0223
   48MOL   C42824022   0.272   0.564   2.304  0.1144 -0.2767  0.0619
   48MOL   O42924023   0.315   0.435   2.279  0.1986 -0.0447 -0.3259
   48MOL   C43024024   0.207   0.340   2.251 -0.5457 -0.6929 -1.0350
   48MOL   C43124025   0.247   0.208   2.176 -0.1859  0.2669 -0.8503
   48MOL   C43224026   0.307   0.105   2.276  0.5914 -0.6056 -0.1603
   48MOL   C43324027   0.345   7.750   2.221  0.0342  0.9130 -0.3314
   48MOL   C43424028   0.410   7.651   2.316  0.7321  0.3592  0.5581
   48MOL   C43524029   0.549   7.678   2.370 -0.0000 -0.3781  0.0354
   48MOL   H43624030   0.432   0.646   2.189  1.1225  1.0034 -0.6272
   48MOL   H43724031   0.316   0.765   2.234  0.6370 -0.1327  0.5254
   48MOL   H43824032   0.164   0.581   2.306 -0.3280 -2.9710 -0.0078
   48MOL   H43924033   0.130   0.388   2.191 -1.6091  0.1431  0.9421
   48MOL   H44024034   0.156   0.333   2.347 -0.5724  1.6543 -0.8548
   48MOL   H44124035   0.330   0.224   2.107  0.9300 -2.2954 -0.1883
   48MOL   H44224036   0.163   0.157   2.127 -0.8885 -0.9516  1.5698
   48MOL   H44324037   0.398   0.141   2.325 -0.7630 -0.0828  2.0242
   48MOL   H44424038   0.243   0.096   2.364 -0.1738  0.9013 -0.5475
   48MOL   H44524039   0.257   7.712   2.169  1.3266  0.2070 -2.0345
   48MOL   H44624040   0.419   7.766   2.143  1.0746  0.2266  0.4936
   48MOL   H44724041   0.338   7.642   2.398  1.5258  1.0560  1.3405
   48MOL   H44824042   0.389   7.555   2.269 -0.4311  1.3633 -1.0538
   48MOL   H44924043   0.580   7.639   2.467 -2.6648  0.7503  1.3590
   48MOL   H45024044   0.613   7.637   2.291 -1.4295  0.4895 -1.6109
   48MOL   H45124045   0.562   0.007   2.374  3.0163 -0.7476  3.6303
   48MOL   C45224046   0.318   0.600   2.448 -0.5593 -0.3650  0.3243
   48MOL   C45324047   0.264   0.505   2.560  0.6146  0.6611 -0.1567
   48MOL   O45424048   0.124   0.518   2.563  0.6115 -0.1815  0.1435
   48MOL   C45524049   0.055   0.404   2.598 -0.6050 -0.0273 -0.0615
   48MOL   C45624050   7.686   0.441   2.592  0.6773  0.2735  0.3403
   48MOL   C45724051   7.587   0.342   2.646 -0.5921 -0.2816 -0.2452
   48MOL   C45824052   7.458   0.409   2.682  0.2056 -0.3085 -0.3350
   48MOL   C45924053   7.349   0.306   2.719  0.3231 -0.5531  0.0543
   48MOL   C46024054   7.218   0.367   2.781  0.1995  0.2534  1.8544
   48MOL   H46124055   0.426   0.588   2.444 -0.1977  2.6041  0.0398
   48MOL   H46224056   0.307   0.706   2.469  2.8579  0.7409 -2.8286
   48MOL   H46324057   0.289   0.404   2.529 -1.8130 -0.0961  0.2695
   48MOL   H46424058   0.068   0.391   2.705 -1.9137  1.0502  0.2289
   48MOL   H46524059   0.081   0.312   2.545 -1.5746 -0.1348 -0.3637
   48MOL   H46624060   7.664   0.453   2.486 -0.8328  0.5819  0.6770
   48MOL   H46724061   7.664   0.535   2.644  1.7031  0.6729  0.0654
   48MOL   H46824062   7.569   0.266   2.570  0.8867 -1.3037  0.3806
   48MOL   H46924063   7.626   0.287   2.732  1.2818  0.5559 -0.5374
   48MOL   H47024064   7.469   0.475   2.769  0.7464 -1.7191  0.6813
   48MOL   H47124065   7.426   0.460   2.591 -1.8550  2.0620  1.6269
   48MOL   H47224066   7.324   0.268   2.619  1.1536 -1.3512  0.1354
   48MOL   H47324067   7.387   0.222   2.778 -0.9148 -1.2535 -0.1232
   48MOL   H47424068   7.156   0.278   2.795 -0.0322  0.2684  0.9559
   48MOL   H47524069   7.240   0.413   2.877  1.3629  1.6686  0.9326
   48MOL   H47624070   7.164   0.426   2.707  0.2901 -2.7147 -0.6788
   48MOL   C47724071   0.323   0.543   2.699  0.0930  0.0878 -0.6191
   48MOL   C47824072   0.478   0.556   2.715 -0.2874 -0.1840 -0.3194
   48MOL   O47924073   0.534   0.582   2.841 -0.0655 -0.0722 -0.0985
   48MOL   C48024074   0.497   0.697   2.921 -0.2822  0.4143  0.5229
   48MOL   C48124075   0.587   0.702   3.046 -0.3717 -0.2390  0.2074
   48MOL   C48224076   0.726   0.763   3.021 -0.1652  0.1157 -0.1810
   48MOL   C48324077   0.793   0.798   3.152 -0.0527  0.6720 -0.1952
   48MOL   C48424078   0.935   0.862   3.139  0.1692  0.3380  0.3077
   48MOL   C48524079   1.047   0.782   3.076 -0.0784 -0.3998  0.4534
   48MOL   H48624080   0.257   0.628   2.718 -1.6256 -1.3681  0.1144
   48MOL   H48724081   0.281   0.469   2.769 -0.6130 -1.0198 -2.1853
   48MOL   H48824082   0.527   0.465   2.679  0.3173  0.6417 -1.6447
   48MOL   H48924083   0.395   0.687   2.958 -1.3573 -0.3303 -2.5461
   48MOL   H49024084   0.503   0.796   2.876  1.0859  0.6474  1.1937
   48MOL   H49124085   0.607   0.604   3.090  0.1968  0.3452  1.2471
   48MOL   H49224086   0.528   0.756   3.120  0.6437 -1.6531  2.1160
   48MOL   H49324087   0.796   0.704   2.963 -1.3903  1.4078 -3.0816
   48MOL   H49424088   0.709   0.855   2.965 -2.7360  0.9280  1.8255
   48MOL   H49524089   0.729   0.861   3.214  0.3356  1.3009 -0.4293
   48MOL   H49624090   0.798   0.701   3.202  1.0464  0.7534 -0.1328
   48MOL   H49724091   0.933   0.960   3.091 -1.0656 -0.6824 -1.8028
   48MOL   H49824092   0.965   0.882   3.242 -0.8132 -0.8374  0.8397
   48MOL   H49924093   1.035   0.686   3.125  0.6633 -0.5426  0.3563
   48MOL   H50024094   1.036   0.761   2.969  2.1868 -1.8837  0.4723
   48MOL   H50124095   1.145   0.823   3.100 -0.9200  3.5560 -2.2766
   48MOL   H50224096   0.520   0.636   2.653 -1.2985 -2.1448 -3.6384
   49MOL     C124097   0.419   0.502   4.877  0.3243 -0.0586 -0.6879
   49MOL     C224098   0.415   0.419   4.749  0.5513 -0.4541 -0.3707
   49MOL     O324099   0.554   0.381   4.731  0.1888  0.2991 -0.1670
   49MOL     C424100   0.589   0.260   4.793  0.3509  0.7380 -0.5145
   49MOL     C524101   0.735   0.225   4.804 -0.2655 -0.4031  0.0986
   49MOL     C624102   0.799   0.209   4.674 -1.3255 -0.1046 -0.3001
   49MOL     C724103   0.931   0.134   4.684  0.2873 -0.3350 -0.0622
   49MOL     C824104   1.025   0.140   4.561 -0.4151 -0.0759  0.4509
   49MOL     C924105   0.975   0.062   4.438  0.0441  0.1341 -0.3364
   49MOL    H1024106   0.457   0.452   4.966  1.8348  1.7764 -0.2709
   49MOL    H1124107   0.480   0.592   4.868 -0.5900  0.7237  0.7175
   49MOL    H1224108   0.356   0.330   4.770 -0.3521  0.8704  3.0014
   49MOL    H1324109   0.525   0.193   4.735 -0.4304  0.5333  0.5501
   49MOL    H1424110   0.555   0.269   4.897  1.3041  0.5847 -0.1854
   49MOL    H1524111   0.732   0.133   4.862 -1.2051 -0.3363  0.1469
   49MOL    H1624112   0.773   0.310   4.862  0.2717 -0.4346 -0.2021
   49MOL    H1724113   0.739   0.149   4.605  1.2955 -2.3844 -0.7158
   49MOL    H1824114   0.810   0.312   4.639  1.9314 -0.2559  0.1265
   49MOL    H1924115   0.978   0.171   4.775 -2.2073 -0.7176  1.4141
   49MOL    H2024116   0.923   0.028   4.709 -0.3094 -0.3287 -0.2244
   49MOL    H2124117   1.124   0.109   4.595 -0.2156  1.3310  1.1895
   49MOL    H2224118   1.034   0.246   4.536  0.3169 -0.3702 -0.5937
   49MOL    H2324119   1.045   0.075   4.356  1.2317  1.9880  0.9326
   49MOL    H2424120   0.958   7.736   4.466 -0.2847  0.6318  1.3298
   49MOL    H2524121   0.877   0.102   4.411  0.0851 -0.6530 -1.7283
   49MOL    H2624122   0.323   0.534   4.917  0.4540 -2.8083  2.0218
   49MOL    C2724123   0.360   0.504   4.631  0.1566  0.2136 -0.3956
   49MOL    C2824124   0.314   0.425   4.512  0.0074  0.3484  0.1211
   49MOL    O2924125   0.215   0.339   4.561 -0.2622  0.0191  0.2108
   49MOL    C3024126   0.229   0.204   4.524 -0.3417 -0.6427 -0.4937
   49MOL    C3124127   0.106   0.122   4.579 -0.2926 -0.1202  0.6043
   49MOL    C3224128   0.117   7.741   4.555 -0.2460 -0.1771  0.1753
   49MOL    C3324129   0.049   7.661   4.655  0.1840  0.7221  0.1087
   49MOL    C3424130   0.034   7.516   4.603  0.5424 -1.1249  0.1335
   49MOL    C3524131   7.740   7.429   4.710  0.0724 -0.6464  0.2301
   49MOL    H3624132   0.270   0.554   4.666 -0.9954 -1.7891 -0.4458
   49MOL    H3724133   0.439   0.574   4.605 -0.0239  1.1402  1.4413
   49MOL    H3824134   0.398   0.376   4.462  2.0766  2.6226  1.2355
   49MOL    H3924135   0.320   0.165   4.569  1.1667  0.1334 -2.7999
   49MOL    H4024136   0.229   0.195   4.415  1.1989 -1.1739 -0.4679
   49MOL    H4124137   0.016   0.161   4.532 -0.5582  0.1875  1.3485
   49MOL    H4224138   0.091   0.139   4.686 -0.5347  2.4025  0.1970
   49MOL    H4324139   0.082   7.719   4.454  1.3778  2.6254 -1.0841
   49MOL    H4424140   0.223   7.718   4.550  0.2470  2.0662 -0.6476
   49MOL    H4524141   0.109   7.660   4.746 -3.0637 -0.0785  2.3720
   49MOL    H4624142   7.730   7.699   4.685  0.2811  1.5541 -0.6379
   49MOL    H4724143   7.758   7.514   4.509  1.0065  0.4615 -0.1715
   49MOL    H4824144   0.137   7.482   4.588  1.0200  0.1834  0.4092
   49MOL    H4924145   7.775   7.326   4.703 -0.7499 -1.0738  1.9773
   49MOL    H5024146   7.766   7.469   4.808 -0.2524  1.0934 -0.3678
   49MOL    H5124147   7.631   7.436   4.713  0.1834  0.9995  1.0478
   49MOL    C5224148   0.266   0.529   4.405  0.0510  0.4532  0.0534
   49MOL    C5324149   0.252   0.459   4.266  0.1793 -0.5007  0.6016
   49MOL    O5424150   0.164   0.531   4.182  0.7009 -0.2415  0.0746
   49MOL    C5524151   0.035   0.464   4.186 -0.9535  0.2328  0.0434
   49MOL    C5624152   7.704   0.568   4.167 -1.3096 -0.0244 -0.2175
   49MOL    C5724153   7.557   0.525   4.206  0.1392 -0.1733  0.0636
   49MOL    C5824154   7.467   0.650   4.199 -0.4688  0.3942 -0.0595
   49MOL    C5924155   7.316   0.621   4.246  0.1062 -0.1757 -0.1749
   49MOL    C6024156   7.221   0.724   4.201  0.1071  0.0004 -0.2177
   49MOL    H6124157   0.337   0.610   4.389  2.0360 -1.6996 -2.6749
   49MOL    H6224158   0.165   0.558   4.435 -0.2794 -1.0166  0.4271
   49MOL    H6324159   0.221   0.356   4.282  0.0213 -0.2937  1.6295
   49MOL    H6424160   0.030   0.410   4.281 -0.1974 -1.3337 -0.7921
   49MOL    H6524161   0.027   0.382   4.115  1.0785 -2.0203  2.3117
   49MOL    H6624162   7.702   0.601   4.063  1.0532  1.5065  0.1945
   49MOL    H6724163   7.728   0.660   4.221 -0.3888 -0.2906 -0.1635
   49MOL    H6824164   7.528   0.462   4.122 -3.1379  1.3849 -0.0658
   49MOL    H6924165   7.551   0.470   4.300  0.0413 -0.2363  0.0207
   49MOL    H7024166   7.511   0.726   4.264  0.7265 -0.8556  0.6323
   49MOL    H7124167   7.471   0.681   4.095 -1.6039 -0.0413 -0.2393
   49MOL    H7224168   7.288   0.519   4.218  0.3236 -0.3172  0.1101
   49MOL    H7324169   7.314   0.620   4.355 -1.8605 -2.0437 -0.1869
   49MOL    H7424170   7.250   0.777   4.110  1.2881  0.7958  0.6134
   49MOL    H7524171   7.120   0.693   4.173  0.6094 -1.7629 -0.0742
   49MOL    H7624172   7.207   0.793   4.284 -1.8972 -0.9711  0.2865
   49MOL    C7724173   0.383   0.440   4.196 -0.1914  0.2163 -0.1469
   49MOL    C7824174   0.380   0.358   4.067  0.3481 -0.1217 -0.5938
   49MOL    O7924175   0.349   0.230   4.109 -0.1409  0.4511 -0.1536
   49MOL    C8024176   0.238   0.170   4.041 -0.2751  0.7734 -0.1839
   49MOL    C8124177   0.225   0.036   4.117  0.5779  0.0311 -0.4439
   49MOL    C8224178   0.122   7.716   4.067  0.3316  0.0432 -0.6413
   49MOL    C8324179   0.115   7.580   4.146 -0.7785 -0.4478  0.0870
   49MOL    C8424180   0.002   7.481   4.109 -0.1419 -0.1709  0.2831
   49MOL    C8524181   0.004   7.352   4.190 -0.3526 -0.7178  0.4626
   49MOL    H8624182   0.456   0.398   4.265  1.6825 -0.4592 -2.4612
   49MOL    H8724183   0.428   0.536   4.170  0.1827 -0.0573 -0.5261
   49MOL    H8824184   0.310   0.413   4.006 -0.4521  0.2853  0.6692
   49MOL    H8924185   0.256   0.140   3.938  0.3942 -3.2323  1.0340
   49MOL    H9024186   0.148   0.232   4.040 -0.3515  0.7024  0.9595
   49MOL    H9124187   0.201   0.054   4.222 -0.9503  3.2948 -1.2926
   49MOL    H9224188   0.316   7.755   4.120  1.5038  1.4653  3.4484
   49MOL    H9324189   0.022   7.758   4.057  0.1942 -0.2999 -0.7101
   49MOL    H9424190   0.157   7.694   3.966  2.7901  1.6110 -0.1884
   49MOL    H9524191   0.208   7.526   4.126  1.0712  2.8446 -0.5851
   49MOL    H9624192   0.097   7.615   4.248  1.6330  0.0875  0.3756
   49MOL    H9724193   7.681   7.524   4.119  0.3456  0.6049  1.8910
   49MOL    H9824194   0.018   7.447   4.007  0.1644 -1.2620  0.6978
   49MOL    H9924195   0.080   7.284   4.152  0.2547  1.1922 -1.9216
   49MOL   H10024196   0.037   7.371   4.292 -0.4818 -0.4245  0.4516
   49MOL   H10124197   7.680   7.314   4.186 -0.6966  0.3313 -1.8220
   49MOL   C10224198   0.521   0.354   4.001 -0.3937 -0.4375 -0.0794
   49MOL   C10324199   0.520   0.307   3.855  0.1971  0.3250 -0.3533
   49MOL   O10424200   0.458   0.419   3.788 -0.6056  0.2096 -0.8557
   49MOL   C10524201   0.369   0.387   3.681  0.0339  0.1667 -0.4099
   49MOL   C10624202   0.272   0.499   3.651  0.1485  0.3998  0.6132
   49MOL   C10724203   0.171   0.473   3.541 -0.8855  0.9346 -0.2036
   49MOL   C10824204   0.082   0.590   3.498 -0.3264 -0.0995  0.1291
   49MOL   C10924205   0.148   0.713   3.436  0.0255  0.6469 -0.0178
   49MOL   C11024206   0.044   0.811   3.373  0.6813  0.1567 -0.1496
   49MOL   H11124207   0.572   0.450   4.002  0.0754 -0.6915  2.5106
   49MOL   H11224208   0.584   0.287   4.059 -1.0973 -2.0214 -1.0903
   49MOL   H11324209   0.478   0.206   3.852  2.6825 -0.7997  0.8480
   49MOL   H11424210   0.304   0.310   3.723 -1.4277  0.5316 -1.9976
   49MOL   H11524211   0.427   0.346   3.599  0.3290  2.1579 -1.2276
   49MOL   H11624212   0.330   0.589   3.633 -2.6370  2.0018 -0.5203
   49MOL   H11724213   0.231   0.510   3.751  0.1088  0.1167  0.6292
   49MOL   H11824214   0.206   0.430   3.447  1.3602  2.2999 -0.0400
   49MOL   H11924215   0.108   0.397   3.587 -1.1512  0.9082 -0.6075
   49MOL   H12024216   7.773   0.560   3.440 -1.3422  0.3713  1.3951
   49MOL   H12124217   0.031   0.637   3.581 -1.7293  1.5426 -1.6222
   49MOL   H12224218   0.202   0.766   3.515  0.0444 -0.0727  0.4623
   49MOL   H12324219   0.227   0.687   3.366  0.8086 -0.3184  1.2125
   49MOL   H12424220   7.752   0.763   3.304 -1.9437  2.3319  0.9356
   49MOL   H12524221   7.763   0.862   3.448  2.7457  2.8410 -0.2934
   49MOL   H12624222   0.100   0.888   3.320  2.8416  0.6760  2.8005
   49MOL   C12724223   0.662   0.287   3.787  0.1615 -0.8738 -0.1854
   49MOL   C12824224   0.669   0.172   3.678 -0.2401  0.3332  0.0991
   49MOL   O12924225   0.601   0.047   3.726  0.4952  0.0220  0.5766
   49MOL   C13024226   0.491   0.002   3.651 -0.1607 -0.0644 -0.5146
   49MOL   C13124227   0.419   7.668   3.727 -0.8481  0.2673 -0.3168
   49MOL   C13224228   0.500   7.532   3.763  0.1367  0.5761 -0.1278
   49MOL   C13324229   0.421   7.432   3.853 -0.6754 -0.8565 -0.5137
   49MOL   C13424230   0.284   7.380   3.791  0.4348 -0.0508 -0.1517
   49MOL   C13524231   0.278   7.321   3.653 -0.0233 -0.3307 -0.5167
   49MOL   H13624232   0.712   0.381   3.764  0.7051 -0.7051  1.5702
   49MOL   H13724233   0.725   0.241   3.864  1.6381  3.4733  1.3716
   49MOL   H13824234   0.620   0.205   3.586  1.1640  1.2322 -0.3393
   49MOL   H13924235   0.523   7.754   3.550 -1.4784 -0.2874 -0.8825
   49MOL   H14024236   0.420   0.084   3.637 -0.8847 -0.7022 -0.6389
   49MOL   H14124237   0.331   7.639   3.669 -0.7282  0.9473 -0.8485
   49MOL   H14224238   0.378   7.712   3.818  0.9755  0.9769  0.1807
   49MOL   H14324239   0.537   7.484   3.673  3.4884  2.1058  0.3536
   49MOL   H14424240   0.593   7.552   3.817  0.3361 -2.0454  0.5546
   49MOL   H14524241   0.493   7.356   3.882  0.9413  1.1919  1.0670
   49MOL   H14624242   0.396   7.487   3.944 -1.6295 -0.5289 -0.9678
   49MOL   H14724243   0.250   7.298   3.854  1.2914  0.3007  0.7716
   49MOL   H14824244   0.210   7.460   3.789 -0.4642 -0.8765 -0.9297
   49MOL   H14924245   0.296   7.401   3.581  0.0150 -2.0156 -2.3987
   49MOL   H15024246   0.357   7.245   3.655 -0.0784 -0.3690  1.2621
   49MOL   H15124247   0.186   7.272   3.622  0.4586 -0.9573 -0.9660
   49MOL   C15224248   0.814   0.135   3.637 -0.4246 -0.5213 -0.4656
   49MOL   C15324249   0.818   0.019   3.534 -0.1176  0.2493  0.1239
   49MOL   O15424250   0.769   0.078   3.411 -0.1087  0.4606  0.5457
   49MOL   C15524251   0.696   0.006   3.323  0.5426  1.0270  0.0669
   49MOL   C15624252   0.722   0.061   3.182  1.0943 -0.4213  0.2231
   49MOL   C15724253   0.642   7.756   3.080 -0.2664  0.2624  0.4205
   49MOL   C15824254   0.682   0.010   2.934 -0.8581 -0.3179  0.0970
   49MOL   C15924255   0.640   0.145   2.878  0.0658  0.5418  0.2491
   49MOL   C16024256   0.708   0.185   2.750  0.3601  0.1189  0.3897
   49MOL   H16124257   0.856   0.225   3.591  0.8594  0.2583  2.1114
   49MOL   H16224258   0.870   0.115   3.728 -0.3419  2.7115  0.2818
   49MOL   H16324259   0.747   7.719   3.561 -0.5848  1.0087  1.1588
   49MOL   H16424260   0.592   0.025   3.347  0.4784  3.2322 -1.7771
   49MOL   H16524261   0.729   7.680   3.330 -2.7233 -0.1081 -0.7558
   49MOL   H16624262   0.831   0.057   3.172  1.2373  3.5049 -0.4816
   49MOL   H16724263   0.691   0.165   3.174 -1.6895 -1.2375  0.0577
   49MOL   H16824264   0.661   7.650   3.094  2.4656  0.5912 -0.3798
   49MOL   H16924265   0.537   0.001   3.092 -0.4206 -0.8695  1.3709
   49MOL   H17024266   0.789   7.774   2.917 -1.0983  0.8749 -2.5398
   49MOL   H17124267   0.637   7.716   2.866  0.4109 -1.6865  0.6921
   49MOL   H17224268   0.532   0.164   2.873  0.5630  3.6417 -0.0038
   49MOL   H17324269   0.660   0.224   2.951  0.7517 -0.2410  0.9040
   49MOL   H17424270   0.697   0.292   2.732  1.5695  0.1913  0.0009
   49MOL   H17524271   0.814   0.161   2.761 -0.2536 -2.0616  1.8643
   49MOL   H17624272   0.686   0.117   2.668  1.5498 -0.3246  0.4137
   49MOL   C17724273   0.965   7.740   3.502  0.5431  0.4451  0.2040
   49MOL   C17824274   1.039   7.689   3.626 -0.8070 -0.5340 -0.2192
   49MOL   O17924275   1.009   7.545   3.628 -0.1214 -0.1944  0.5449
   49MOL   C18024276   0.905   7.518   3.727 -0.2228  0.5964  0.0037
   49MOL   C18124277   0.908   7.368   3.770 -0.0475  0.2854 -0.0426
   49MOL   C18224278   0.845   7.337   3.905 -1.0696  0.4538  0.0697
   49MOL   C18324279   0.805   7.185   3.915  0.2688  0.1217 -0.1460
   49MOL   C18424280   0.770   7.141   4.060  0.2382  0.2178 -0.5093
   49MOL   C18524281   0.743   6.994   4.077 -0.2113  0.5453  0.1823
   49MOL   H18624282   0.955   7.663   3.425  0.6872  1.3813 -0.7702
   49MOL   H18724283   1.020   0.036   3.445 -2.0874  0.3459 -2.5890
   49MOL   H18824284   1.006   7.739   3.717  1.0079 -0.4802  0.4199
   49MOL   H18924285   0.809   7.536   3.680  0.2099 -0.3829 -1.2965
   49MOL   H19024286   0.904   7.582   3.815  3.3499 -2.4548  2.4274
   49MOL   H19124287   1.014   7.343   3.778  0.3727  2.3087  0.9258
   49MOL   H19224288   0.854   7.311   3.694 -0.4402  0.0693  0.3940
   49MOL   H19324289   0.913   7.359   3.987  0.3827 -1.0323 -0.7053
   49MOL   H19424290   0.750   7.390   3.918 -1.5744  0.0656 -1.9172
   49MOL   H19524291   0.721   7.165   3.850  0.5088  0.4205 -0.5513
   49MOL   H19624292   0.886   7.124   3.876 -0.2584  0.6436 -2.1119
   49MOL   H19724293   0.860   7.172   4.114 -0.9157  1.0995  0.9429
   49MOL   H19824294   0.692   7.206   4.100 -1.0971 -0.1367 -2.4393
   49MOL   H19924295   0.649   6.969   4.026  0.3813  0.8789 -1.0874
   49MOL   H20024296   0.805   6.917   4.031  0.2865  0.9156  0.2323
   49MOL   H20124297   0.728   6.974   4.183  0.2013  1.3008  0.3833
   49MOL   C20224298   1.190   7.700   3.606 -0.3535  0.1362 -0.5531
   49MOL   C20324299   1.276   7.735   3.732 -0.1331  0.7315  0.6494
   49MOL   O20424300   1.406   7.715   3.684  0.4335  0.8093  0.4369
   49MOL   C20524301   1.490   0.039   3.646 -0.1251 -0.0336  0.2046
   49MOL   C20624302   1.539   0.124   3.763  0.2724  0.1966  0.2116
   49MOL   C20724303   1.621   0.050   3.872  0.1771 -0.2752  0.2031
   49MOL   C20824304   1.685   0.139   3.982  0.1115 -0.5972  0.3457
   49MOL   C20924305   1.734   0.062   4.105  0.1917  0.3931  0.4475
   49MOL   C21024306   1.627   0.044   4.223 -0.3598  0.3793  0.0119
   49MOL   H21124307   1.219   7.597   3.581 -1.4218 -0.2794 -0.1124
   49MOL   H21224308   1.218   7.771   3.528  0.1991 -0.0371 -0.5149
   49MOL   H21324309   1.255   0.063   3.744 -0.7433  0.7834 -0.8612
   49MOL   H21424310   1.455   0.101   3.563  2.2968 -0.2506 -1.0326
   49MOL   H21524311   1.576   7.769   3.598  3.1863  3.1260  2.6800
   49MOL   H21624312   1.448   0.161   3.810 -0.5046  0.0950 -1.1668
   49MOL   H21724313   1.610   0.196   3.722 -0.2820  0.6939  0.1109
   49MOL   H21824314   1.560   7.748   3.911  1.1325 -1.9759 -1.7122
   49MOL   H21924315   1.700   0.009   3.809  1.0267  1.0694  0.3590
   49MOL   H22024316   1.755   0.196   3.921  0.4819 -1.1542  0.2365
   49MOL   H22124317   1.609   0.209   4.016  0.4823 -0.0609  0.0747
   49MOL   H22224318   1.784   7.750   4.070 -0.4716  0.3033 -0.2649
   49MOL   H22324319   1.822   0.116   4.139  0.5330 -0.7485  1.4125
   49MOL   H22424320   1.676   0.013   4.315 -1.3907 -0.7960  0.1828
   49MOL   H22524321   1.568   0.128   4.259 -1.4690 -0.3527 -0.0706
   49MOL   H22624322   1.550   7.748   4.200  0.7015 -0.0058 -2.5224
   49MOL   C22724323   1.254   7.651   3.862  0.3168 -0.1992 -0.3049
   49MOL   C22824324   1.253   7.721   4.005  0.4761 -0.1921  0.3493
   49MOL   O22924325   1.176   0.061   3.992  0.3377  0.0785  0.0378
   49MOL   C23024326   1.231   0.171   4.076  0.3281 -0.2626  0.6514
   49MOL   C23124327   1.125   0.274   4.094 -0.4943 -0.7156 -0.4472
   49MOL   C23224328   1.056   0.333   3.973 -0.4169  0.3527  0.1442
   49MOL   C23324329   0.960   0.446   4.019  0.0350 -0.2356 -0.4769
   49MOL   C23424330   0.961   0.557   3.908  0.2034 -0.1376  0.1338
   49MOL   C23524331   0.866   0.674   3.947 -0.1101 -0.3346 -0.2439
   49MOL   H23624332   1.151   7.614   3.854  0.2443 -0.1194  0.2628
   49MOL   H23724333   1.328   7.571   3.859  1.0311  0.4510  0.0704
   49MOL   H23824334   1.355   7.755   4.022 -0.4041  2.2349  0.9395
   49MOL   H23924335   1.321   0.207   4.026  0.9600  0.8975  2.5976
   49MOL   H24024336   1.269   0.134   4.171  0.7508 -0.0989  0.5498
   49MOL   H24124337   1.159   0.355   4.159 -1.7858 -0.4499 -0.0919
   49MOL   H24224338   1.043   0.224   4.146  1.4137 -4.2617 -0.6710
   49MOL   H24324339   1.134   0.369   3.906 -0.2360 -3.3259 -1.7585
   49MOL   H24424340   1.010   0.249   3.921  0.1198 -0.7660  1.4390
   49MOL   H24524341   0.864   0.395   4.030  0.7361 -1.6494 -0.8211
   49MOL   H24624342   0.991   0.500   4.108 -0.7253 -0.2892 -0.1825
   49MOL   H24724343   1.062   0.594   3.895  1.1428 -2.9530 -0.8220
   49MOL   H24824344   0.924   0.521   3.812 -0.2052  0.5543  0.0288
   49MOL   H24924345   0.882   0.754   3.874  2.9550  0.2282  0.9377
   49MOL   H25024346   0.760   0.651   3.948 -0.9263  3.1082 -1.1104
   49MOL   H25124347   0.888   0.729   4.039 -3.2688  1.5932 -0.5899
   49MOL   C25224348   1.209   7.623   4.116 -0.3948 -0.4991  0.2756
   49MOL   C25324349   1.318   7.516   4.160  0.6129  0.1658  0.2452
   49MOL   O25424350   1.258   7.391   4.155  0.6149 -0.2821 -0.1775
   49MOL   C25524351   1.288   7.318   4.035  0.5394 -0.4895 -0.5503
   49MOL   C25624352   1.203   7.200   4.028 -0.0831  1.1489  0.6389
   49MOL   C25724353   1.230   7.108   3.906 -0.9686  0.7444  0.4498
   49MOL   C25824354   1.155   6.967   3.898  0.2058 -0.3170  0.0240
   49MOL   C25924355   1.214   6.887   4.023 -0.0058  0.4049 -0.3634
   49MOL   C26024356   1.127   6.772   4.061 -0.1232  0.5323 -0.0294
   49MOL   H26124357   1.196   7.691   4.200  0.6362  3.1236 -2.3682
   49MOL   H26224358   1.110   7.584   4.090  0.1385 -2.6374  1.3262
   49MOL   H26324359   1.404   7.522   4.094  2.0113  0.9874  2.1191
   49MOL   H26424360   1.395   7.298   4.024  0.6605 -0.7876  1.0435
   49MOL   H26524361   1.255   7.375   3.949  1.8014  0.0124 -0.7132
   49MOL   H26624362   1.098   7.229   4.027 -0.2507  0.5464  0.0810
   49MOL   H26724363   1.213   7.152   4.125 -1.7095  2.4782  1.4919
   49MOL   H26824364   1.210   7.159   3.812 -0.6273 -0.0191 -0.0399
   49MOL   H26924365   1.338   7.095   3.911 -1.1347 -1.3210 -0.9652
   49MOL   H27024366   1.048   6.983   3.914  0.5215  2.0964 -0.2265
   49MOL   H27124367   1.163   6.919   3.800  2.1539 -0.7851  0.3988
   49MOL   H27224368   1.315   6.854   3.998 -0.8399 -1.7460 -1.0338
   49MOL   H27324369   1.222   6.941   4.117  2.3908  1.5763 -1.2048
   49MOL   H27424370   1.023   6.796   4.081 -0.5154 -1.1302  0.0370
   49MOL   H27524371   1.144   6.697   3.984 -1.4541 -0.2798  0.4472
   49MOL   H27624372   1.168   6.728   4.152 -1.1771  0.6540  0.5161
   49MOL   C27724373   1.356   7.529   4.311  0.9305  0.0397  0.3634
   49MOL   C27824374   1.477   7.438   4.354  0.3232 -0.2658  0.1687
   49MOL   O27924375   1.599   7.519   4.355  1.0928 -0.2553  0.8189
   49MOL   C28024376   1.711   7.452   4.303  0.1538 -0.4931 -0.0185
   49MOL   C28124377   1.844   7.529   4.334 -0.7269  0.1286 -0.6127
   49MOL   C28224378   1.973   7.457   4.317 -0.5723  0.4283 -0.4467
   49MOL   C28324379   2.101   7.546   4.314 -0.0096  0.1459 -0.6480
   49MOL   C28424380   2.134   7.609   4.451  0.2930 -0.2306  0.1054
   49MOL   C28524381   2.231   7.721   4.431 -0.8319 -0.2235  0.0188
   49MOL   H28624382   1.375   7.632   4.341 -1.2481  0.7401 -0.6400
   49MOL   H28724383   1.262   7.502   4.359  0.3737  2.5893  0.7726
   49MOL   H28824384   1.484   7.353   4.287 -0.4952 -0.2713  0.0861
   49MOL   H28924385   1.700   7.451   4.194  0.5075  1.1287 -0.0696
   49MOL   H29024386   1.719   7.348   4.335 -2.3971 -2.5733 -5.4157
   49MOL   H29124387   1.830   7.569   4.435  0.6672 -0.5777 -0.1282
   49MOL   H29224388   1.837   7.622   4.278  1.7404  0.1871 -0.8481
   49MOL   H29324389   1.981   7.367   4.378  2.9274  1.5124  0.8441
   49MOL   H29424390   1.970   7.403   4.222 -1.5810 -2.6395  1.2680
   49MOL   H29524391   2.191   7.494   4.282  1.2780  1.4008  0.8516
   49MOL   H29624392   2.075   7.627   4.245 -0.0435 -1.2092 -2.2552
   49MOL   H29724393   2.040   7.646   4.492  1.1598  0.9034  1.1569
   49MOL   H29824394   2.177   7.536   4.520  2.4021 -1.5995 -2.5681
   49MOL   H29924395   2.178   0.037   4.418 -0.6152 -0.0300  0.5482
   49MOL   H30024396   2.285   7.725   4.526  0.5831 -0.2555 -0.7693
   49MOL   H30124397   2.303   7.703   4.351 -1.0685 -0.8568 -0.0534
   49MOL   C30224398   1.460   7.382   4.496  0.2564 -0.0670 -0.1768
   49MOL   C30324399   1.353   7.279   4.528 -0.5300  0.1374 -0.8187
   49MOL   O30424400   1.322   7.273   4.670 -0.1370  0.1926  0.8360
   49MOL   C30524401   1.426   7.277   4.764 -0.6415 -0.2871  0.1284
   49MOL   C30624402   1.384   7.210   4.895  0.2954 -0.1567 -0.1148
   49MOL   C30724403   1.511   7.186   4.984 -0.5300 -0.3838 -0.4783
   49MOL   C30824404   1.471   7.139   5.126 -0.2504 -0.4607  0.2318
   49MOL   C30924405   1.588   7.115   5.223 -0.1533 -0.3400  0.4483
   49MOL   C31024406   1.530   7.081   5.359 -0.2730 -0.0917 -0.5367
   49MOL   H31124407   1.555   7.336   4.524  1.0430  0.1064 -2.4562
   49MOL   H31224408   1.446   7.476   4.550 -0.8319  1.1487 -2.5337
   49MOL   H31324409   1.265   7.312   4.473 -0.3867 -1.2101 -1.8968
   49MOL   H31424410   1.461   7.378   4.786 -0.4176 -0.3270 -0.0466
   49MOL   H31524411   1.517   7.226   4.733 -0.1410 -0.5091  1.9273
   49MOL   H31624412   1.353   7.109   4.870 -1.3368 -0.1387  1.7476
   49MOL   H31724413   1.309   7.272   4.944  0.8528  2.7475 -2.7687
   49MOL   H31824414   1.566   7.103   4.939 -1.3038 -0.6476 -0.9519
   49MOL   H31924415   1.578   7.271   4.997 -0.1725 -0.7035 -0.2185
   49MOL   H32024416   1.396   7.206   5.167  0.7347  1.1687 -0.5526
   49MOL   H32124417   1.426   7.040   5.116 -1.5912  0.3638 -2.1973
   49MOL   H32224418   1.652   7.037   5.182  0.8142  2.1636 -3.1157
   49MOL   H32324419   1.647   7.206   5.237 -1.9850  0.6682  1.8400
   49MOL   H32424420   1.446   7.013   5.367  0.1529 -0.4030  1.7439
   49MOL   H32524421   1.607   7.043   5.427 -0.6026 -2.0153 -1.2199
   49MOL   H32624422   1.475   7.168   5.395  2.1788  1.9745 -1.5851
   49MOL   C32724423   1.391   7.131   4.491  0.3947  0.1601  0.2807
   49MOL   C32824424   1.274   7.025   4.502  0.1752  0.4401 -0.1438
   49MOL   O32924425   1.169   7.069   4.415 -0.2053 -0.1537 -0.2685
   49MOL   C33024426   1.037   7.030   4.452  0.4914 -0.2207  1.0116
   49MOL   C33124427   0.956   7.161   4.442  0.1748 -0.4159 -0.1085
   49MOL   C33224428   0.971   7.254   4.560  0.0352 -0.6969  0.0429
   49MOL   C33324429   0.880   7.373   4.556  0.0165 -0.0617  0.4573
   49MOL   C33424430   0.865   7.462   4.679 -0.4362  0.3631  0.3177
   49MOL   C33524431   1.001   7.529   4.706  0.0662 -0.1147 -0.5268
   49MOL   H33624432   1.476   7.093   4.547  2.1752  0.0318 -2.4349
   49MOL   H33724433   1.423   7.133   4.387  1.4392 -1.6291  0.5397
   49MOL   H33824434   1.227   7.019   4.600 -2.9334  0.0468 -1.6071
   49MOL   H33924435   1.026   6.978   4.548 -0.3994  1.6597  1.9589
   49MOL   H34024436   0.995   6.959   4.381 -0.4817 -0.8123  2.1521
   49MOL   H34124437   0.849   7.143   4.435  0.1935 -0.7161  0.3423
   49MOL   H34224438   0.987   7.210   4.350  1.7582 -0.8089  0.2013
   49MOL   H34324439   0.960   7.205   4.657 -0.3804  0.5492  0.6398
   49MOL   H34424440   1.076   7.282   4.564 -0.3317  0.6297  0.7134
   49MOL   H34524441   0.903   7.445   4.477  0.3808 -0.6604  0.0127
   49MOL   H34624442   0.778   7.343   4.529  0.6603 -1.1759 -0.8009
   49MOL   H34724443   0.791   7.538   4.655  0.0904  1.5084  2.1544
   49MOL   H34824444   0.831   7.413   4.771 -1.3701 -0.1700 -0.3071
   49MOL   H34924445   1.069   7.446   4.725  1.4053  1.0926  0.1017
   49MOL   H35024446   1.031   7.593   4.623  0.4254 -0.1408 -0.4180
   49MOL   H35124447   0.989   7.586   4.798  1.0731 -0.8522  0.0767
   49MOL   C35224448   1.317   6.880   4.459  0.4474  0.0316 -0.3331
   49MOL   C35324449   1.443   6.835   4.533 -0.1917 -0.0437  0.0826
   49MOL   O35424450   1.486   6.706   4.491  0.2691  0.6969  0.1563
   49MOL   C35524451   1.582   6.710   4.387 -0.0545  0.2503  1.0599
   49MOL   C35624452   1.568   6.586   4.298  0.1304  0.0107 -0.4779
   49MOL   C35724453   1.682   6.572   4.205 -0.0863  0.5088 -0.5213
   49MOL   C35824454   1.653   6.444   4.114  0.3996 -0.7307  0.3312
   49MOL   C35924455   1.772   6.407   4.027  0.3054  0.3394 -0.4372
   49MOL   C36024456   1.757   6.266   3.970  0.2712 -0.3476  0.3361
   49MOL   H36124457   1.236   6.809   4.479 -1.0646  1.4600 -1.2528
   49MOL   H36224458   1.336   6.879   4.352 -2.3266  1.8300 -0.9125
   49MOL   H36324459   1.529   6.898   4.511 -0.3588  0.2349  0.2274
   49MOL   H36424460   1.673   6.722   4.446  0.6291  2.8571 -0.4256
   49MOL   H36524461   1.557   6.791   4.318  0.5454 -0.9546 -0.5677
   49MOL   H36624462   1.467   6.585   4.257 -0.9148  0.7899  2.0081
   49MOL   H36724463   1.566   6.499   4.365  0.8118  0.0041 -0.4676
   49MOL   H36824464   1.705   6.659   4.145  1.8760 -1.5047 -2.8100
   49MOL   H36924465   1.772   6.555   4.263  0.8052  1.0469 -1.7411
   49MOL   H37024466   1.619   6.363   4.179 -0.4667 -0.3779  0.3215
   49MOL   H37124467   1.568   6.460   4.047  0.1796 -1.2549  0.4867
   49MOL   H37224468   1.782   6.473   3.941  0.7870  0.2056 -0.4852
   49MOL   H37324469   1.865   6.424   4.080  1.0292  0.6774 -1.8100
   49MOL   H37424470   1.688   6.265   3.885 -0.3631 -0.1120  0.8418
   49MOL   H37524471   1.855   6.249   3.926  0.1179  0.3369 -0.2909
   49MOL   H37624472   1.747   6.185   4.042 -1.4376 -0.5147 -0.0524
   49MOL   C37724473   1.434   6.843   4.686 -0.1147  0.0642  0.4818
   49MOL   C37824474   1.563   6.818   4.765 -0.0793 -0.3855  0.7197
   49MOL   O37924475   1.525   6.833   4.898  0.4521 -0.7320  0.1951
   49MOL   C38024476   1.551   6.712   4.971 -0.6579 -0.2357 -0.4589
   49MOL   C38124477   1.506   6.737   5.122  0.1009  0.7922 -0.5127
   49MOL   C38224478   1.542   6.612   5.220 -0.0290  0.7362  0.2521
   49MOL   C38324479   1.423   6.509   5.213  0.2867  0.3598 -0.9000
   49MOL   C38424480   1.463   6.376   5.283 -0.5380  0.5117 -0.3277
   49MOL   C38524481   1.474   6.393   5.440 -0.0454  0.2330 -0.1111
   49MOL   H38624482   1.418   6.950   4.701  1.4584  0.3083  0.4482
   49MOL   H38724483   1.354   6.779   4.725 -0.1785 -0.2062 -0.0740
   49MOL   H38824484   1.613   6.727   4.730  0.2312  0.6719 -1.6613
   49MOL   H38924485   1.652   6.672   4.962  0.2962  1.8953  0.4459
   49MOL   H39024486   1.472   6.642   4.947 -0.5482  0.1949 -2.1280
   49MOL   H39124487   1.401   6.763   5.128 -0.1820 -0.0029 -1.7253
   49MOL   H39224488   1.560   6.827   5.150  0.7337  0.0981  0.5764
   49MOL   H39324489   1.635   6.562   5.194  0.1880  1.0434  0.4432
   49MOL   H39424490   1.549   6.645   5.324  0.9491 -0.6952  0.6619
   49MOL   H39524491   1.322   6.535   5.242  0.1363  1.4511 -2.3453
   49MOL   H39624492   1.413   6.482   5.108 -1.4387 -0.2456 -0.5950
   49MOL   H39724493   1.377   6.313   5.260  0.0866 -0.0398 -1.1979
   49MOL   H39824494   1.554   6.324   5.253 -0.9858 -2.1785  2.6195
   49MOL   H39924495   1.578   6.368   5.461  0.7063  0.2934 -3.4074
   49MOL   H40024496   1.446   6.491   5.478 -2.2052  0.2761 -1.7369
   49MOL   H40124497   1.414   6.319   5.492  0.5718  0.1315  0.4705
   49MOL   C40224498   1.683   6.914   4.732  0.1314  1.2174  0.4227
   49MOL   C40324499   1.803   6.899   4.824  0.2565  0.3180 -0.3981
   49MOL   O40424500   1.889   7.006   4.779 -0.3774 -0.0448 -0.1330
   49MOL   C40524501   1.889   7.110   4.870  0.2846  0.8761 -0.3717
   49MOL   C40624502   1.968   7.225   4.796  0.3007 -0.5027 -0.2552
   49MOL   C40724503   1.892   7.291   4.673  0.2391 -0.0369 -0.2931
   49MOL   C40824504   1.783   7.381   4.727  0.2235 -0.5093 -0.0389
   49MOL   C40924505   1.825   7.512   4.791  0.1264  0.0229  0.4441
   49MOL   C41024506   1.729   7.631   4.763 -0.2037 -0.2310 -0.0369
   49MOL   H41124507   1.635   7.011   4.743 -0.0977  1.0925  0.5452
   49MOL   H41224508   1.719   6.888   4.632 -1.8627 -0.2479  0.0348
   49MOL   H41324509   1.780   6.904   4.931 -1.4869  2.5074 -0.8282
   49MOL   H41424510   1.948   7.068   4.952 -0.4251 -1.1782 -0.8755
   49MOL   H41524511   1.791   7.138   4.909 -1.1184 -1.8529 -1.7755
   49MOL   H41624512   2.053   7.180   4.745  2.8621  0.2269  3.1707
   49MOL   H41724513   2.011   7.284   4.877 -1.5343 -2.1538  2.0093
   49MOL   H41824514   1.960   7.351   4.612 -0.5052 -0.4004 -1.4938
   49MOL   H41924515   1.845   7.220   4.605  0.6003  0.2843 -0.8765
   49MOL   H42024516   1.709   7.404   4.650  0.0808 -0.3423  0.1464
   49MOL   H42124517   1.721   7.326   4.798  0.0259  0.9229  0.9160
   49MOL   H42224518   1.832   7.508   4.900 -0.2466  0.4521  0.4885
   49MOL   H42324519   1.923   7.552   4.765  0.0508  0.0603  0.2089
   49MOL   H42424520   1.691   7.645   4.662 -0.5851  1.4312  0.3259
   49MOL   H42524521   1.644   7.613   4.828  1.7339 -1.1827  2.3446
   49MOL   H42624522   1.773   7.727   4.791 -0.0087 -0.8007  1.7029
   49MOL   C42724523   1.882   6.764   4.815 -0.0364 -0.1034 -0.0097
   49MOL   C42824524   1.993   6.742   4.921 -0.2093 -0.3034 -0.5109
   49MOL   O42924525   2.031   6.611   4.950 -0.6543  0.1081 -0.1689
   49MOL   C43024526   1.972   6.551   5.064  0.6091 -0.2117  0.3937
   49MOL   C43124527   2.067   6.451   5.129  0.9896  0.0635  0.1175
   49MOL   C43224528   2.003   6.335   5.207  0.0837 -0.7433  0.1779
   49MOL   C43324529   2.027   6.352   5.365 -0.1065 -0.1073  0.4905
   49MOL   C43424530   1.965   6.239   5.440 -0.7873 -0.8731  0.4981
   49MOL   C43524531   2.023   6.103   5.416 -0.2298  0.1269 -0.1308
   49MOL   H43624532   1.811   6.682   4.821  1.6219 -1.4919  0.8122
   49MOL   H43724533   1.919   6.762   4.712  0.7060  1.3597  0.2143
   49MOL   H43824534   1.959   6.798   5.007 -1.5700 -1.3062 -0.3834
   49MOL   H43924535   1.889   6.490   5.028  1.0145 -0.5347  0.0024
   49MOL   H44024536   1.936   6.621   5.139  0.8599  1.5260 -1.0845
   49MOL   H44124537   2.143   6.509   5.181  0.5533  0.8381 -0.1049
   49MOL   H44224538   2.118   6.404   5.045 -0.6294  1.7850 -1.8941
   49MOL   H44324539   1.898   6.329   5.179 -0.0952  1.3244  0.3621
   49MOL   H44424540   2.056   6.245   5.177  1.7932  1.4347 -3.6359
   49MOL   H44524541   2.133   6.354   5.388 -0.1339  1.6847  0.5778
   49MOL   H44624542   1.986   6.448   5.398 -0.7248  0.0142 -0.5779
   49MOL   H44724543   1.973   6.265   5.546 -2.6539  2.8738 -0.2166
   49MOL   H44824544   1.857   6.237   5.432 -0.9123  3.0509  0.1200
   49MOL   H44924545   1.989   6.070   5.318  0.0165 -1.6089  0.3642
   49MOL   H45024546   2.130   6.123   5.402 -0.2911 -0.2372 -1.1937
   49MOL   H45124547   2.009   6.019   5.484 -2.0599 -1.2216 -2.0989
   49MOL   C45224548   2.125   6.796   4.861 -0.6823 -0.0072 -0.3960
   49MOL   C45324549   2.245   6.816   4.962 -0.3741  0.2618 -0.0289
   49MOL   O45424550   2.232   6.936   5.034 -0.4991 -0.1352 -0.3842
   49MOL   C45524551   2.170   6.938   5.159  0.2953  0.0573  0.1012
   49MOL   C45624552   2.170   7.077   5.228 -0.4869 -0.0307 -0.1534
   49MOL   C45724553   2.081   7.075   5.355 -0.7495 -0.0670  0.5916
   49MOL   C45824554   2.069   7.225   5.392  0.0861  0.1425  0.1451
   49MOL   C45924555   1.992   7.237   5.518  0.9778 -0.6218 -0.7361
   49MOL   C46024556   1.958   7.379   5.557  0.6879 -0.6179  0.4340
   49MOL   H46124557   2.154   6.722   4.787  1.2302  1.2243 -0.8823
   49MOL   H46224558   2.110   6.889   4.806 -2.0135 -0.3945 -0.7095
   49MOL   H46324559   2.242   6.728   5.026 -0.4692  1.6068  1.8456
   49MOL   H46424560   2.213   6.867   5.230 -0.2097 -2.6636 -2.1862
   49MOL   H46524561   2.066   6.910   5.139  0.3440 -1.4638  1.8305
   49MOL   H46624562   2.121   7.150   5.164 -0.1964  1.7963  1.6534
   49MOL   H46724563   2.271   7.113   5.248 -0.8330  0.7815  0.1722
   49MOL   H46824564   1.980   7.038   5.335 -1.9551  2.3376  1.9500
   49MOL   H46924565   2.126   7.018   5.436  1.4927  0.4006 -0.2784
   49MOL   H47024566   2.167   7.272   5.396  1.1902 -1.9578 -1.2939
   49MOL   H47124567   2.006   7.266   5.313  0.5883  0.7162  0.0352
   49MOL   H47224568   1.905   7.171   5.518  0.9409 -0.5724  0.3400
   49MOL   H47324569   2.063   7.215   5.597 -0.8605 -3.4085  0.2155
   49MOL   H47424570   1.912   7.390   5.655 -0.6470  2.3742 -0.4653
   49MOL   H47524571   2.047   7.441   5.545  0.0647  0.5343  1.5584
   49MOL   H47624572   1.891   7.419   5.480 -0.1459  3.1558  2.9973
   49MOL   C47724573   2.378   6.824   4.894 -0.2174 -0.0808 -0.1000
   49MOL   C47824574   2.502   6.832   4.982  0.0797 -0.5007  0.6665
   49MOL   O47924575   2.626   6.817   4.909 -0.6649  1.0365  0.1210
   49MOL   C48024576   2.740   6.831   4.995  0.2807 -0.3717  1.0623
   49MOL   C48124577   2.875   6.801   4.921 -0.0172 -0.7283  0.4185
   49MOL   C48224578   2.884   6.650   4.877 -0.4781 -0.0410  0.0375
   49MOL   C48324579   2.901   6.565   5.002  0.4983  0.3042  0.3396
   49MOL   C48424580   2.939   6.415   4.981 -0.9716  0.3621 -0.1303
   49MOL   C48524581   2.947   6.337   5.112  0.1280 -0.7889  0.3223
   49MOL   H48624582   2.381   6.738   4.826  1.7689  0.2478 -0.4677
   49MOL   H48724583   2.382   6.908   4.825  0.6256 -1.5960 -1.9462
   49MOL   H48824584   2.500   6.917   5.050  0.2166 -0.7167  0.9443
   49MOL   H48924585   2.722   6.765   5.079 -0.3958 -0.4395  0.8734
   49MOL   H49024586   2.746   6.930   5.040  1.4565  0.0244  0.0587
   49MOL   H49124587   2.962   6.825   4.982  2.8420 -2.5474 -2.7298
   49MOL   H49224588   2.883   6.872   4.838 -0.6714  0.2731  1.2091
   49MOL   H49324589   2.799   6.620   4.816  1.1575 -1.7022 -1.4805
   49MOL   H49424590   2.970   6.641   4.810 -1.0644  1.0586 -0.8897
   49MOL   H49524591   2.975   6.602   5.073  1.0229 -0.2002  0.0483
   49MOL   H49624592   2.806   6.560   5.056 -0.7444  2.1567 -1.5657
   49MOL   H49724593   2.862   6.366   4.922  1.6081 -2.8987 -0.9824
   49MOL   H49824594   3.037   6.405   4.933 -0.8279 -0.6449  0.3666
   49MOL   H49924595   3.038   6.362   5.167  0.8402  0.9663 -1.5653
   49MOL   H50024596   2.867   6.354   5.183 -0.7134  1.2394 -1.0561
   49MOL   H50124597   2.962   6.231   5.093  0.7061 -0.4349 -1.3537
   49MOL   H50224598   2.504   6.746   5.049  0.9373 -0.8071  0.2564
   50MOL     C124599   3.721   6.597   6.058  0.4651  0.0449 -0.1871
   50MOL     C224600   3.872   6.634   6.038 -0.3540  0.0034  0.5323
   50MOL     O324601   3.897   6.623   5.894  0.5536  0.3267 -0.6091
   50MOL     C424602   4.020   6.677   5.851 -0.0334 -0.0774 -0.1897
   50MOL     C524603   4.061   6.611   5.724  0.1739 -0.2237  0.4730
   50MOL     C624604   4.151   6.490   5.752 -0.2982 -0.0622 -0.1274
   50MOL     C724605   4.192   6.415   5.622  0.1192  0.9598  0.6216
   50MOL     C824606   4.274   6.289   5.651 -0.1153  0.5445  0.5134
   50MOL     C924607   4.306   6.194   5.539  0.2220 -0.1284  0.4145
   50MOL    H1024608   3.659   6.659   5.994 -1.4881 -0.0105  1.6105
   50MOL    H1124609   3.696   6.493   6.032  3.3428 -0.9081  0.7055
   50MOL    H1224610   3.872   6.739   6.067  0.4131  0.9444 -2.6945
   50MOL    H1324611   4.099   6.664   5.924 -0.4505 -2.0692 -0.0685
   50MOL    H1424612   4.008   6.784   5.832  1.8076  0.1588 -0.0389
   50MOL    H1524613   4.112   6.687   5.664  0.1289 -1.2422 -0.8785
   50MOL    H1624614   3.973   6.575   5.670 -0.1898  0.0726  0.8594
   50MOL    H1724615   4.238   6.521   5.810  0.1643  1.0352 -1.3995
   50MOL    H1824616   4.104   6.410   5.810 -0.4671 -0.2663 -0.5434
   50MOL    H1924617   4.109   6.383   5.560 -1.1144  2.5443  1.4063
   50MOL    H2024618   4.247   6.491   5.566 -1.3753  1.9362  0.4492
   50MOL    H2124619   4.232   6.228   5.731  0.3693 -1.5922 -0.8121
   50MOL    H2224620   4.374   6.321   5.678 -0.2371  0.6627  0.8226
   50MOL    H2324621   4.211   6.145   5.521  0.1624  1.0825 -3.0043
   50MOL    H2424622   4.336   6.250   5.451  2.7527  0.7648  1.7767
   50MOL    H2524623   4.379   6.117   5.565  0.1665 -0.4119 -0.2629
   50MOL    H2624624   3.690   6.627   6.158 -1.7861  2.3699 -1.5382
   50MOL    C2724625   3.967   6.542   6.122  0.0290 -0.0558 -0.1636
   50MOL    C2824626   4.020   6.603   6.260 -0.5176  0.1253 -0.1997
   50MOL    O2924627   4.008   6.506   6.364 -0.2800 -0.7146  0.7511
   50MOL    C3024628   3.875   6.500   6.413  0.4908  0.3094 -0.0576
   50MOL    C3124629   3.872   6.378   6.502  0.7360 -0.1497 -0.0738
   50MOL    C3224630   3.866   6.245   6.427  0.0148 -0.4586 -0.2907
   50MOL    C3324631   3.830   6.120   6.506  0.0547 -0.4575  0.5002
   50MOL    C3424632   3.854   5.990   6.426  0.0959  0.0357  1.1878
   50MOL    C3524633   3.734   5.961   6.336 -0.2999  0.0426 -0.2616
   50MOL    H3624634   3.924   6.446   6.149 -3.2549  0.5489 -2.8344
   50MOL    H3724635   4.054   6.512   6.063 -2.1419 -0.8141 -3.0718
   50MOL    H3824636   3.967   6.690   6.297  0.4297  0.5744  0.1046
   50MOL    H3924637   3.803   6.497   6.331 -0.2600 -0.4597  0.6212
   50MOL    H4024638   3.861   6.593   6.467 -2.4571 -0.3844  0.4461
   50MOL    H4124639   3.778   6.374   6.557 -1.5343  1.6506 -3.5916
   50MOL    H4224640   3.957   6.391   6.568  1.0078 -2.4861  0.0574
   50MOL    H4324641   3.787   6.256   6.352  0.7279 -0.1787 -1.0018
   50MOL    H4424642   3.954   6.230   6.364 -0.6973 -0.1853 -1.3754
   50MOL    H4524643   3.900   6.121   6.589 -0.4903  0.4592  0.9522
   50MOL    H4624644   3.727   6.125   6.542  1.3147 -1.6618  4.5739
   50MOL    H4724645   3.948   5.988   6.371 -0.4109  2.9350  0.1188
   50MOL    H4824646   3.865   5.916   6.506  1.3933  0.1109  1.0914
   50MOL    H4924647   3.727   6.028   6.251 -1.0394  0.8592  0.4314
   50MOL    H5024648   3.723   5.858   6.301  0.6030 -0.4784  0.9275
   50MOL    H5124649   3.649   5.998   6.394  0.5911  0.8799  0.5309
   50MOL    C5224650   4.164   6.662   6.256 -0.6569  0.1747 -0.2511
   50MOL    C5324651   4.181   6.804   6.200  0.1325  0.0046 -0.4423
   50MOL    O5424652   4.082   6.873   6.269 -0.1847 -0.0318 -0.6839
   50MOL    C5524653   4.061   7.002   6.223 -0.1889 -0.2519 -0.3902
   50MOL    C5624654   3.903   7.035   6.231  0.2535  0.5330  0.1987
   50MOL    C5724655   3.871   7.186   6.229 -0.2084 -0.1991  0.3389
   50MOL    C5824656   3.728   7.234   6.221  0.0510  1.0124 -0.4555
   50MOL    C5924657   3.710   7.384   6.252  0.3792 -0.0196  0.0061
   50MOL    C6024658   3.569   7.441   6.230 -0.8536  0.6295  0.1435
   50MOL    H6124659   4.225   6.591   6.200  1.6181  1.9480 -0.0890
   50MOL    H6224660   4.194   6.652   6.361 -1.6556  0.7226  0.0865
   50MOL    H6324661   4.154   6.795   6.095  0.1563  0.4525 -0.4843
   50MOL    H6424662   4.079   6.994   6.116  2.3119 -1.5781  0.0952
   50MOL    H6524663   4.130   7.070   6.272  1.3332 -2.1365  0.1841
   50MOL    H6624664   3.877   6.983   6.322 -0.1270  2.2501  1.0855
   50MOL    H6724665   3.845   6.969   6.167  2.2568 -1.4645  0.3898
   50MOL    H6824666   3.914   7.235   6.316 -1.3720  1.4001  0.0285
   50MOL    H6924667   3.929   7.240   6.155 -0.4379 -0.5729 -0.1173
   50MOL    H7024668   3.691   7.208   6.122  1.2840  1.7204 -1.1083
   50MOL    H7124669   3.681   7.181   6.304 -1.0302  1.3580 -0.8373
   50MOL    H7224670   3.744   7.408   6.353 -0.9192 -1.0179  0.6872
   50MOL    H7324671   3.778   7.437   6.185  0.8965  2.0488  2.0932
   50MOL    H7424672   3.507   7.374   6.290  0.8496  0.5864  1.9104
   50MOL    H7524673   3.554   7.541   6.271 -0.4146  0.7482  0.0162
   50MOL    H7624674   3.534   7.443   6.127 -3.2883  0.3530  0.9368
   50MOL    C7724675   4.321   6.862   6.224 -0.2231 -0.7370  0.7126
   50MOL    C7824676   4.431   6.784   6.151  0.0633  0.1246  0.1128
   50MOL    O7924677   4.563   6.817   6.198  0.0214  0.2199  0.6190
   50MOL    C8024678   4.610   6.789   6.329 -0.3507  0.0874  0.0192
   50MOL    C8124679   4.760   6.813   6.323  0.7144 -0.3563  0.1128
   50MOL    C8224680   4.835   6.699   6.246 -0.2800  0.4520  0.3180
   50MOL    C8324681   4.991   6.723   6.245 -0.1577 -0.0368 -0.3495
   50MOL    C8424682   5.067   6.609   6.182 -0.4779 -0.2675 -0.5334
   50MOL    C8524683   5.219   6.635   6.164 -0.9420 -0.3022 -0.2233
   50MOL    H8624684   4.345   6.871   6.330  4.4744  0.4244 -0.3209
   50MOL    H8724685   4.312   6.963   6.182 -0.4580 -0.9348  0.2855
   50MOL    H8824686   4.411   6.677   6.163 -2.3788  0.4573 -0.6287
   50MOL    H8924687   4.611   6.680   6.340  2.1631  0.0237 -0.3725
   50MOL    H9024688   4.562   6.849   6.405 -1.9613 -0.2337 -0.7305
   50MOL    H9124689   4.790   6.842   6.423  0.3388  1.0250 -0.1622
   50MOL    H9224690   4.786   6.901   6.265 -1.0704  0.2089  0.1505
   50MOL    H9324691   4.809   6.600   6.284 -0.5494  0.8178  1.1003
   50MOL    H9424692   4.796   6.700   6.144 -3.1396  1.3257  1.3834
   50MOL    H9524693   5.007   6.824   6.207 -1.1375 -0.7337 -2.7685
   50MOL    H9624694   5.024   6.738   6.347  0.3160 -0.3052 -0.4626
   50MOL    H9724695   5.056   6.521   6.246 -0.4774  0.3084  0.2698
   50MOL    H9824696   5.024   6.580   6.086 -2.7942 -1.4571  0.8011
   50MOL    H9924697   5.261   6.549   6.113 -0.5727 -0.1614 -0.1546
   50MOL   H10024698   5.244   6.726   6.110  0.1447  0.3968  1.4083
   50MOL   H10124699   5.265   6.665   6.258  0.2895 -1.7849 -0.3485
   50MOL   C10224700   4.428   6.814   5.993  0.4561 -0.2598 -0.3766
   50MOL   C10324701   4.483   6.701   5.902 -0.2036 -0.0370  0.5355
   50MOL   O10424702   4.426   6.583   5.950  0.2919  0.1122  0.4350
   50MOL   C10524703   4.510   6.471   5.942 -0.2639  0.0167 -0.2280
   50MOL   C10624704   4.449   6.349   6.016 -0.6847 -0.1103  0.1020
   50MOL   C10724705   4.557   6.239   6.051  0.2432 -0.1030 -0.8773
   50MOL   C10824706   4.493   6.135   6.147  0.4834 -0.0051  0.1896
   50MOL   C10924707   4.590   6.032   6.193 -0.6016 -0.4482 -0.0004
   50MOL   C11024708   4.645   5.942   6.081 -0.0561 -0.0366 -0.5589
   50MOL   H11124709   4.323   6.835   5.975  0.8473  1.3281 -0.8509
   50MOL   H11224710   4.478   6.906   5.964  0.0785 -0.3087 -1.2094
   50MOL   H11324711   4.592   6.708   5.914 -0.1896  1.2157 -0.2277
   50MOL   H11424712   4.614   6.481   5.970 -0.5561  0.6788  0.6270
   50MOL   H11524713   4.511   6.442   5.837 -1.8743  1.7547 -0.7598
   50MOL   H11624714   4.362   6.313   5.961 -1.4673 -1.1826  2.0022
   50MOL   H11724715   4.418   6.380   6.116  1.2612 -0.6559  0.8861
   50MOL   H11824716   4.577   6.200   5.952  1.0262 -0.7008 -0.4936
   50MOL   H11924717   4.647   6.283   6.095 -1.3705 -2.4276  5.3183
   50MOL   H12024718   4.459   6.184   6.238  0.3067 -1.1985  0.7743
   50MOL   H12124719   4.401   6.096   6.105 -2.0887  1.3840  4.2906
   50MOL   H12224720   4.678   6.080   6.236  0.1094 -3.2762  1.8479
   50MOL   H12324721   4.555   5.966   6.273 -0.4422  0.5051  0.8652
   50MOL   H12424722   4.715   5.869   6.121 -2.1802 -2.8406 -1.8062
   50MOL   H12524723   4.565   5.878   6.046 -0.3941  0.6217 -0.9865
   50MOL   H12624724   4.681   5.997   5.995  0.5600  0.7309  0.1720
   50MOL   C12724725   4.438   6.716   5.757 -0.2223  0.4177 -0.4193
   50MOL   C12824726   4.514   6.809   5.671  0.2151 -0.8935 -0.1356
   50MOL   O12924727   4.494   6.938   5.731 -0.3526 -0.0629  0.0596
   50MOL   C13024728   4.604   7.031   5.718 -1.0335 -0.1948 -0.7540
   50MOL   C13124729   4.704   7.023   5.836  0.3779 -0.0473  0.7889
   50MOL   C13224730   4.836   7.099   5.810  0.5650 -0.2061 -0.4673
   50MOL   C13324731   4.931   7.067   5.933  0.1341  0.0606  0.2972
   50MOL   C13424732   5.078   7.116   5.923  1.3536  0.1400 -0.0781
   50MOL   C13524733   5.151   7.087   6.055 -0.6089 -0.2368 -0.3164
   50MOL   H13624734   4.441   6.617   5.711 -1.3879  0.4961 -0.6835
   50MOL   H13724735   4.334   6.751   5.760 -0.5403 -0.3889 -1.6985
   50MOL   H13824736   4.617   6.772   5.669  1.1475  1.5253  1.2657
   50MOL   H13924737   4.563   7.131   5.704  0.5897  0.1767 -3.2921
   50MOL   H14024738   4.657   7.012   5.625 -1.1483  1.5851 -1.1937
   50MOL   H14124739   4.733   6.919   5.855  4.7910  0.9487  0.0150
   50MOL   H14224740   4.666   7.062   5.930  0.9124  4.4682 -0.7728
   50MOL   H14324741   4.881   7.057   5.720  0.5240  1.7018 -1.3918
   50MOL   H14424742   4.823   7.206   5.802  3.8541  0.2906  0.2328
   50MOL   H14524743   4.885   7.093   6.028  1.5027 -0.5498  1.1298
   50MOL   H14624744   4.929   6.959   5.947 -3.0647 -0.0338 -0.4013
   50MOL   H14724745   5.128   7.056   5.846  2.0017 -1.2343  1.3912
   50MOL   H14824746   5.096   7.217   5.884 -1.2822 -0.2881 -2.5305
   50MOL   H14924747   5.254   7.123   6.055  0.1124 -2.2306 -2.4347
   50MOL   H15024748   5.100   7.121   6.145  2.0115  1.7140  0.5075
   50MOL   H15124749   5.153   6.979   6.065 -2.0444 -0.2307  0.1757
   50MOL   C15224750   4.462   6.803   5.524  0.4803  0.6215 -0.7228
   50MOL   C15324751   4.518   6.691   5.439  0.3793 -0.2040 -0.3670
   50MOL   O15424752   4.442   6.683   5.320 -0.0392 -0.5562  0.0887
   50MOL   C15524753   4.316   6.608   5.324  0.2820 -1.1921 -0.1304
   50MOL   C15624754   4.242   6.598   5.191 -0.2723  0.1762  0.1659
   50MOL   C15724755   4.126   6.495   5.189  0.4299  0.7801 -0.0591
   50MOL   C15824756   4.060   6.494   5.049 -0.5629 -0.1727  0.3103
   50MOL   C15924757   3.980   6.622   5.017 -0.2493  0.8472  0.0505
   50MOL   C16024758   3.858   6.644   5.103 -0.1052 -0.0237  0.0487
   50MOL   H16124759   4.353   6.804   5.528  0.4652  1.6426 -1.2927
   50MOL   H16224760   4.492   6.894   5.472  0.1137 -0.1801 -2.3956
   50MOL   H16324761   4.511   6.596   5.493  1.4715 -0.5615 -0.8428
   50MOL   H16424762   4.256   6.653   5.403  1.6844 -0.1290  0.3540
   50MOL   H16524763   4.343   6.510   5.362  0.6602 -1.1628 -0.3186
   50MOL   H16624764   4.316   6.551   5.126 -1.0962  1.0497 -1.4178
   50MOL   H16724765   4.217   6.698   5.156 -0.3879 -0.5473 -1.8609
   50MOL   H16824766   4.163   6.394   5.206 -0.1371  0.6172  0.2082
   50MOL   H16924767   4.063   6.521   5.274  0.7001  0.3199  0.2879
   50MOL   H17024768   4.128   6.482   4.965 -2.2277 -1.3325 -0.8971
   50MOL   H17124769   3.997   6.405   5.048 -0.3764 -0.3005  0.1425
   50MOL   H17224770   4.050   6.705   5.029 -0.8144  1.5412 -1.3798
   50MOL   H17324771   3.958   6.608   4.911  1.1338 -1.5624  0.0397
   50MOL   H17424772   3.799   6.726   5.062  0.8667  1.0034  0.7044
   50MOL   H17524773   3.796   6.557   5.126  1.0625 -0.9166 -0.1069
   50MOL   H17624774   3.887   6.671   5.204 -1.3556 -0.0930  0.4330
   50MOL   C17724775   4.661   6.712   5.391 -0.0445  0.7728  0.1341
   50MOL   C17824776   4.730   6.593   5.310  0.2785  0.1896  0.5879
   50MOL   O17924777   4.854   6.624   5.250 -0.2903 -0.2712  0.0789
   50MOL   C18024778   4.846   6.722   5.151 -0.4772  0.1411  0.2015
   50MOL   C18124779   4.992   6.771   5.112  0.5327 -0.0059  0.1902
   50MOL   C18224780   4.992   6.897   5.015 -0.0254  1.4520  0.4248
   50MOL   C18324781   5.129   6.959   4.979  0.9155 -0.0311  0.4352
   50MOL   C18424782   5.196   7.028   5.098  0.2295 -0.0445  0.3015
   50MOL   C18524783   5.120   7.155   5.148 -0.3278 -0.1624  0.3063
   50MOL   H18624784   4.666   6.802   5.329  1.8063  1.4275  1.1859
   50MOL   H18724785   4.739   6.724   5.466 -0.2885 -2.3864  0.9302
   50MOL   H18824786   4.668   6.552   5.231  1.4453 -0.6587  0.1006
   50MOL   H18924787   4.779   6.806   5.166 -1.6155 -1.1479  2.7840
   50MOL   H19024788   4.817   6.676   5.056  0.3219 -0.3501  0.1912
   50MOL   H19124789   5.044   6.682   5.077  1.6348  1.2933 -1.6123
   50MOL   H19224790   5.037   6.791   5.209 -3.2347  0.8514  1.8462
   50MOL   H19324791   4.934   6.872   4.926 -0.0846  1.6931  0.3962
   50MOL   H19424792   4.921   6.968   5.059 -1.5862 -0.0319  0.3701
   50MOL   H19524793   5.195   6.885   4.933  0.6441 -0.1695  0.2676
   50MOL   H19624794   5.100   7.039   4.910  1.3625  0.0294  0.3183
   50MOL   H19724795   5.219   6.964   5.183  1.3195 -1.0445 -0.7339
   50MOL   H19824796   5.290   7.064   5.056 -0.4519  0.7113 -0.6118
   50MOL   H19924797   5.013   7.144   5.162 -0.5064 -0.0535 -0.9338
   50MOL   H20024798   5.170   7.183   5.241 -0.7136 -0.4440  0.5946
   50MOL   H20124799   5.122   7.239   5.078  1.5222 -0.0761  0.4435
   50MOL   C20224800   4.766   6.466   5.404  0.2365 -0.5582 -0.3486
   50MOL   C20324801   4.773   6.330   5.335 -0.1284  0.5029 -0.3567
   50MOL   O20424802   4.645   6.300   5.285  0.1610 -0.1183 -0.5910
   50MOL   C20524803   4.630   6.289   5.148 -0.3115  0.0187  0.1085
   50MOL   C20624804   4.491   6.242   5.111 -0.0477 -0.1141 -0.1564
   50MOL   C20724805   4.470   6.111   5.175  0.8952  0.5137  0.7063
   50MOL   C20824806   4.328   6.057   5.146 -0.2688 -0.3284 -0.2127
   50MOL   C20924807   4.295   5.922   5.218  0.2170  0.2298  0.7061
   50MOL   C21024808   4.151   5.883   5.183 -0.0700  0.0587 -0.6434
   50MOL   H21124809   4.866   6.487   5.440 -0.3237 -2.3517  2.3907
   50MOL   H21224810   4.693   6.466   5.485  0.6203  1.7061  0.0252
   50MOL   H21324811   4.842   6.338   5.251 -1.1078 -2.3093 -1.5011
   50MOL   H21424812   4.707   6.226   5.103  1.2621 -0.6924  3.6281
   50MOL   H21524813   4.642   6.382   5.093  0.9921  0.0335  0.4052
   50MOL   H21624814   4.468   6.253   5.005 -2.3330  2.6985  0.5717
   50MOL   H21724815   4.426   6.316   5.158 -0.9103 -0.9799  0.0342
   50MOL   H21824816   4.548   6.038   5.152  0.3375  0.0764  0.2037
   50MOL   H21924817   4.481   6.128   5.282  0.7703 -0.8701  0.9408
   50MOL   H22024818   4.260   6.130   5.190 -0.1781  0.6386 -1.6338
   50MOL   H22124819   4.312   6.038   5.039  0.8803  0.8124 -0.6078
   50MOL   H22224820   4.366   5.845   5.186  0.8523  0.9730  0.2948
   50MOL   H22324821   4.305   5.935   5.326  1.3805  0.2668  0.5987
   50MOL   H22424822   4.138   5.776   5.200  2.4787 -0.2503 -0.4110
   50MOL   H22524823   4.078   5.944   5.236 -0.3641  0.4059 -1.4342
   50MOL   H22624824   4.129   5.886   5.076 -1.6947  0.2267 -0.3094
   50MOL   C22724825   4.820   6.214   5.431  0.4389 -0.0767 -0.4634
   50MOL   C22824826   4.846   6.079   5.370  0.0675 -0.3200  0.4644
   50MOL   O22924827   4.942   6.092   5.262 -0.3139  0.7531  0.2336
   50MOL   C23024828   5.068   6.151   5.282  0.0677 -0.1684 -1.1946
   50MOL   C23124829   5.155   6.144   5.156  0.2640  0.3505  0.1107
   50MOL   C23224830   5.104   6.242   5.046 -0.1778  0.7231 -0.0545
   50MOL   C23324831   5.182   6.246   4.913  0.2797 -0.5289  0.0580
   50MOL   C23424832   5.138   6.357   4.817 -0.2533 -0.6300  0.0830
   50MOL   C23524833   5.210   6.359   4.686  0.1245  0.4053 -0.7502
   50MOL   H23624834   4.908   6.246   5.487 -0.1907  0.6413  0.1289
   50MOL   H23724835   4.737   6.200   5.501 -0.0466  1.2170 -0.7675
   50MOL   H23824836   4.751   6.053   5.324 -0.4854  1.3030  0.6701
   50MOL   H23924837   5.121   6.110   5.368  1.2182  2.5400 -0.5626
   50MOL   H24024838   5.055   6.255   5.311 -2.2319 -0.1515 -2.1625
   50MOL   H24124839   5.158   6.042   5.120  1.1626  1.3408 -2.7035
   50MOL   H24224840   5.254   6.177   5.190  0.6298  0.8235 -1.4043
   50MOL   H24324841   4.999   6.240   5.019 -0.9109 -0.8368  2.7820
   50MOL   H24424842   5.113   6.340   5.092  0.4091  0.3640  0.6054
   50MOL   H24524843   5.290   6.255   4.923  0.2032 -0.7022  1.0802
   50MOL   H24624844   5.157   6.154   4.861 -0.6093 -0.5089  0.4361
   50MOL   H24724845   5.030   6.352   4.803 -0.4392  1.7232  0.5111
   50MOL   H24824846   5.152   6.452   4.869 -0.5329  0.4341 -1.7378
   50MOL   H24924847   5.183   6.271   4.627 -0.2791  0.1266 -0.1608
   50MOL   H25024848   5.180   6.450   4.635 -1.2388  1.1537  1.3212
   50MOL   H25124849   5.318   6.369   4.692  0.3073 -0.9706 -1.4519
   50MOL   C25224850   4.887   5.968   5.472  0.3197 -0.0182  0.3054
   50MOL   C25324851   4.907   5.831   5.397 -0.0374  0.7068 -0.3644
   50MOL   O25424852   4.784   5.784   5.345  0.3261 -0.2995  0.3831
   50MOL   C25524853   4.781   5.706   5.224  0.1236  0.2852 -0.1460
   50MOL   C25624854   4.641   5.704   5.165 -0.6333 -0.2527 -0.6885
   50MOL   C25724855   4.626   5.628   5.032  0.3212 -0.9254 -0.8305
   50MOL   C25824856   4.476   5.609   5.001 -0.0936 -0.1678  0.3166
   50MOL   C25924857   4.405   5.498   5.085 -0.0111 -0.1907  0.4268
   50MOL   C26024858   4.255   5.517   5.075  0.2188 -0.0458  0.5926
   50MOL   H26124859   4.980   6.008   5.512  0.0109  0.7421  0.2838
   50MOL   H26224860   4.818   5.957   5.556 -1.7422  0.2987 -1.2981
   50MOL   H26324861   4.973   5.841   5.311 -0.0643  0.7973 -0.3740
   50MOL   H26424862   4.802   5.603   5.253 -1.6834 -0.0193  0.1345
   50MOL   H26524863   4.844   5.752   5.147  1.1305 -1.6105 -0.4879
   50MOL   H26624864   4.621   5.807   5.135 -0.2694 -0.3729 -1.3611
   50MOL   H26724865   4.573   5.682   5.247  1.3033 -1.0618  0.7458
   50MOL   H26824866   4.677   5.679   4.950 -0.2050  1.1113  0.0719
   50MOL   H26924867   4.660   5.525   5.032  0.6198 -0.8305  0.1935
   50MOL   H27024868   4.438   5.712   5.001  3.1860  1.1056  2.0234
   50MOL   H27124869   4.470   5.575   4.898  0.9952  1.0338 -0.1594
   50MOL   H27224870   4.428   5.399   5.044  1.6277 -0.2945  1.5682
   50MOL   H27324871   4.444   5.501   5.186  2.1923 -0.2869 -0.3911
   50MOL   H27424872   4.188   5.459   5.138  0.8596 -0.9707  0.4390
   50MOL   H27524873   4.237   5.620   5.104  1.1551  0.0965  0.7058
   50MOL   H27624874   4.222   5.492   4.974 -1.3627 -2.2860  1.6165
   50MOL   C27724875   4.961   5.724   5.491 -0.5269  0.0372 -0.2384
   50MOL   C27824876   5.076   5.772   5.585  0.4498  0.0848  0.0914
   50MOL   O27924877   5.118   5.665   5.665  0.0983 -0.2757  0.1659
   50MOL   C28024878   5.034   5.641   5.773  0.2500  0.2858  0.0807
   50MOL   C28124879   5.070   5.503   5.831 -0.1129  0.1051  0.2196
   50MOL   C28224880   5.035   5.391   5.731 -0.2112  0.5763  0.0315
   50MOL   C28324881   5.047   5.248   5.795  0.9113  1.1725  0.3286
   50MOL   C28424882   4.962   5.134   5.719 -0.7590  0.2294 -1.0929
   50MOL   C28524883   5.000   5.114   5.572 -0.2544 -0.2325 -0.1655
   50MOL   H28624884   4.882   5.690   5.559  1.6076  0.7081  2.6949
   50MOL   H28724885   4.995   5.638   5.434  0.2527  0.8381 -0.9778
   50MOL   H28824886   5.062   5.867   5.637 -1.0318  0.2895 -0.6652
   50MOL   H28924887   4.929   5.636   5.743  0.6603  0.0923 -1.3732
   50MOL   H29024888   5.052   5.717   5.849  0.5299  0.7955 -0.4991
   50MOL   H29124889   5.000   5.477   5.911 -0.9127  0.6423 -0.2935
   50MOL   H29224890   5.173   5.493   5.864  0.0484 -0.7496 -0.5428
   50MOL   H29324891   4.932   5.414   5.704  0.6421  1.3432 -2.7576
   50MOL   H29424892   5.090   5.401   5.637 -1.4032 -1.3043 -0.9248
   50MOL   H29524893   5.150   5.213   5.796  0.2940 -0.7151  0.5449
   50MOL   H29624894   5.016   5.244   5.900  0.3324  2.9969  0.2354
   50MOL   H29724895   4.952   5.043   5.778 -0.7122  1.4550  0.8693
   50MOL   H29824896   4.860   5.172   5.712 -0.1011  2.0857 -0.8605
   50MOL   H29924897   5.004   5.215   5.532 -1.0557  0.0582  0.4893
   50MOL   H30024898   5.096   5.065   5.560  0.7309  1.3808  0.9836
   50MOL   H30124899   4.913   5.067   5.524 -1.3654 -1.4635  2.9329
   50MOL   C30224900   5.202   5.806   5.492  0.2527 -0.3044  0.0529
   50MOL   C30324901   5.327   5.858   5.568 -0.0172  0.3399 -0.2509
   50MOL   O30424902   5.306   5.995   5.588  0.0984  0.7892  0.1567
   50MOL   C30524903   5.363   6.048   5.710 -0.1836  0.5263 -0.0625
   50MOL   C30624904   5.343   6.197   5.704  0.1992 -0.7068 -0.1920
   50MOL   C30724905   5.434   6.277   5.796  0.3709 -0.3643  0.6913
   50MOL   C30824906   5.447   6.430   5.762 -0.4742 -0.2978 -0.5978
   50MOL   C30924907   5.597   6.469   5.760 -0.0804  0.2203  0.1583
   50MOL   C31024908   5.620   6.623   5.719 -0.0607 -0.4224  0.0729
   50MOL   H31124909   5.228   5.717   5.436 -3.3900  0.1295 -2.5361
   50MOL   H31224910   5.163   5.880   5.422 -0.4492  0.4669  1.2335
   50MOL   H31324911   5.347   5.805   5.661 -2.8148  0.7960  0.6720
   50MOL   H31424912   5.471   6.037   5.701 -0.3793  0.6606 -2.8175
   50MOL   H31524913   5.328   6.004   5.804 -2.1306  1.6306 -0.2349
   50MOL   H31624914   5.242   6.238   5.710  0.4948  0.1378 -0.8865
   50MOL   H31724915   5.367   6.229   5.602  0.9573  1.9048  0.7809
   50MOL   H31824916   5.397   6.269   5.898  0.3715  0.6848  0.7737
   50MOL   H31924917   5.534   6.234   5.794  0.2328 -0.6410 -0.1522
   50MOL   H32024918   5.403   6.465   5.668  0.6469  0.5523 -0.8226
   50MOL   H32124919   5.396   6.491   5.837  1.5438 -3.4762  3.5125
   50MOL   H32224920   5.644   6.440   5.854 -0.3404 -4.0023 -0.9463
   50MOL   H32324921   5.646   6.411   5.682  0.3994 -2.0132  2.0590
   50MOL   H32424922   5.719   6.652   5.684  0.0576 -1.1285 -0.1942
   50MOL   H32524923   5.554   6.648   5.636 -1.5419 -1.9664  0.7557
   50MOL   H32624924   5.592   6.683   5.805 -0.4053  0.4193 -0.6138
   50MOL   C32724925   5.453   5.847   5.475 -0.5113  0.3759  0.6008
   50MOL   C32824926   5.520   5.702   5.451  0.0735 -0.5609  0.1331
   50MOL   O32924927   5.433   5.610   5.387  0.1870 -0.3534  0.2210
   50MOL   C33024928   5.406   5.488   5.462 -0.6231  0.3094 -0.2599
   50MOL   C33124929   5.329   5.393   5.374  0.0893  0.5011  0.5321
   50MOL   C33224930   5.312   5.252   5.427 -0.4582 -0.3658  0.3057
   50MOL   C33324931   5.453   5.188   5.433  0.2134  0.0155  0.7350
   50MOL   C33424932   5.547   5.208   5.313 -0.4412 -0.0957  0.0240
   50MOL   C33524933   5.502   5.148   5.180 -0.7033  0.1763  0.1028
   50MOL   H33624934   5.534   5.907   5.517  0.7443 -0.8508  0.0155
   50MOL   H33724935   5.427   5.875   5.373 -0.9377 -2.7029 -0.1924
   50MOL   H33824936   5.561   5.666   5.546  0.7609 -1.1163 -0.3644
   50MOL   H33924937   5.351   5.490   5.557 -1.5028 -1.7816 -0.6945
   50MOL   H34024938   5.503   5.440   5.477 -0.7791  0.6689  2.0695
   50MOL   H34124939   5.370   5.402   5.274 -0.9648  0.7360  0.1121
   50MOL   H34224940   5.225   5.422   5.364 -0.1393 -0.1632  0.9640
   50MOL   H34324941   5.274   5.251   5.529 -0.3888 -1.4262  0.3303
   50MOL   H34424942   5.245   5.204   5.356 -0.2751 -0.3995  0.1572
   50MOL   H34524943   5.508   5.229   5.518 -0.4450  2.1555  0.1524
   50MOL   H34624944   5.450   5.081   5.456  0.2544 -0.1519 -0.0278
   50MOL   H34724945   5.580   5.311   5.299 -2.8441  1.0071  2.1495
   50MOL   H34824946   5.642   5.160   5.340 -1.8798 -2.9394  0.1421
   50MOL   H34924947   5.585   5.126   5.113 -0.8140  2.0045 -0.6629
   50MOL   H35024948   5.473   5.049   5.215  2.0535 -0.2451  1.2590
   50MOL   H35124949   5.416   5.198   5.135 -0.6711 -0.4889 -0.7117
   50MOL   C35224950   5.639   5.717   5.349  0.4059  0.1239  0.0626
   50MOL   C35324951   5.753   5.617   5.366 -0.0255 -0.6628  0.1489
   50MOL   O35424952   5.809   5.629   5.496  0.0225  0.2811  0.3185
   50MOL   C35524953   5.893   5.514   5.528  0.5454 -0.1400 -0.2016
   50MOL   C35624954   5.978   5.550   5.645 -0.5600 -1.0112  0.1804
   50MOL   C35724955   6.109   5.625   5.618 -0.0049  0.1695  0.2258
   50MOL   C35824956   6.099   5.768   5.596 -0.1008 -0.2371 -0.2861
   50MOL   C35924957   6.099   5.851   5.725 -0.2128  0.0582 -0.4838
   50MOL   C36024958   6.054   6.000   5.695 -0.5155  0.0371 -0.1862
   50MOL   H36124959   5.598   5.730   5.248 -1.1522  0.6964  0.7497
   50MOL   H36224960   5.682   5.812   5.380  3.4837 -1.0050 -0.5758
   50MOL   H36324961   5.711   5.519   5.346 -0.7139 -0.4304  0.4447
   50MOL   H36424962   5.953   5.485   5.441 -0.3666 -0.8052 -0.6301
   50MOL   H36524963   5.820   5.436   5.550  0.4504 -0.3519 -1.2501
   50MOL   H36624964   6.012   5.452   5.680  0.5171 -1.5168 -2.1966
   50MOL   H36724965   5.929   5.595   5.732  1.5431  0.9797  0.3895
   50MOL   H36824966   6.164   5.618   5.711 -2.0489  1.6841  1.6000
   50MOL   H36924967   6.168   5.577   5.540  0.0712  2.2610 -1.0435
   50MOL   H37024968   6.190   5.795   5.542  0.5066 -0.6409  0.5237
   50MOL   H37124969   6.024   5.803   5.525  1.0336  0.9164 -0.9393
   50MOL   H37224970   6.027   5.815   5.798  0.3608 -1.9575 -0.8673
   50MOL   H37324971   6.199   5.844   5.768 -1.4939  1.5634  2.9221
   50MOL   H37424972   6.042   6.049   5.792  1.7693 -1.1934  0.7817
   50MOL   H37524973   6.115   6.058   5.626  0.3666 -0.9615 -0.2702
   50MOL   H37624974   5.952   5.993   5.659 -0.5850  0.0692  0.0031
   50MOL   C37724975   5.858   5.662   5.255  0.6148 -0.5736  0.2130
   50MOL   C37824976   5.842   5.569   5.128  0.9198 -0.5330 -0.0899
   50MOL   O37924977   5.903   5.447   5.174 -0.3469  0.0183  0.1159
   50MOL   C38024978   5.851   5.332   5.115  0.1966  0.5741  0.1986
   50MOL   C38124979   5.976   5.272   5.057  0.1699  0.0794 -0.1413
   50MOL   C38224980   5.953   5.147   4.983  0.0811  0.5315  0.3954
   50MOL   C38324981   6.094   5.080   4.956 -0.4223  0.0089 -1.2253
   50MOL   C38424982   6.080   4.941   4.880 -0.3196 -0.5485  0.9225
   50MOL   C38524983   6.037   4.953   4.736  0.7350 -0.0135  0.1856
   50MOL   H38624984   5.845   5.765   5.220 -0.7531 -1.7146 -2.7599
   50MOL   H38724985   5.961   5.657   5.289  0.8481  1.3994 -0.1336
   50MOL   H38824986   5.735   5.558   5.108  0.8589 -1.5201  0.7292
   50MOL   H38924987   5.783   5.363   5.035  0.2807  0.8479  0.2342
   50MOL   H39024988   5.813   5.259   5.187  0.7778  0.3063  0.2397
   50MOL   H39124989   6.039   5.269   5.146  0.1712  0.5244 -0.1279
   50MOL   H39224990   6.024   5.340   4.987  2.9626 -1.9516 -0.2981
   50MOL   H39324991   5.898   5.071   5.039 -2.3511 -0.3117 -2.9511
   50MOL   H39424992   5.897   5.169   4.893 -1.0809 -0.6737  0.8072
   50MOL   H39524993   6.156   5.150   4.902 -1.4835  1.9508  0.0046
   50MOL   H39624994   6.142   5.075   5.054  1.3723  3.5886 -1.8611
   50MOL   H39724995   6.179   4.896   4.887 -0.0791 -0.1506  0.0349
   50MOL   H39824996   6.016   4.872   4.936 -0.8459 -1.9221 -1.3125
   50MOL   H39924997   6.054   4.856   4.688 -2.0715 -0.7675  0.6234
   50MOL   H40024998   5.932   4.983   4.734  0.4903 -0.8779 -0.5933
   50MOL   H40124999   6.100   5.023   4.680  0.1084  1.8290  1.7362
   50MOL   C40225000   5.920   5.617   5.005 -0.1388 -0.1553  0.3209
   50MOL   C40325001   5.853   5.725   4.919  0.1050  0.6761 -0.3932
   50MOL   O40425002   5.769   5.654   4.831  0.1629  0.3149 -0.2446
   50MOL   C40525003   5.633   5.676   4.813  0.1917  0.3082 -0.0572
   50MOL   C40625004   5.577   5.557   4.719  0.1727 -0.5544 -0.1567
   50MOL   C40725005   5.599   5.423   4.785  0.1782  0.3049  0.0468
   50MOL   C40825006   5.527   5.303   4.709  0.4287 -0.3183 -0.2305
   50MOL   C40925007   5.489   5.177   4.789 -1.1142 -0.2669  0.2642
   50MOL   C41025008   5.605   5.084   4.825  0.0156  0.0707 -0.8198
   50MOL   H41125009   5.946   5.537   4.936  0.7196  2.2533 -2.2327
   50MOL   H41225010   6.016   5.648   5.046  0.4260  0.6025 -1.5050
   50MOL   H41325011   5.812   5.803   4.983 -0.0964  0.3842 -0.1611
   50MOL   H41425012   5.601   5.771   4.771 -0.6037 -0.1037 -0.3762
   50MOL   H41525013   5.575   5.683   4.904  0.1887 -1.3210  0.0824
   50MOL   H41625014   5.630   5.565   4.625 -1.3263  0.8786 -0.9148
   50MOL   H41725015   5.471   5.581   4.708  0.6816  1.7722 -0.3262
   50MOL   H41825016   5.705   5.407   4.804 -0.5106 -2.7336  1.7372
   50MOL   H41925017   5.552   5.427   4.883  0.4022  0.0355  0.1658
   50MOL   H42025018   5.429   5.338   4.678  0.3401 -0.2726  0.1029
   50MOL   H42125019   5.586   5.272   4.622 -0.7943 -2.8801 -0.1707
   50MOL   H42225020   5.440   5.214   4.880 -1.9322  1.6299 -0.9102
   50MOL   H42325021   5.415   5.118   4.736 -1.5548  0.1952  0.3638
   50MOL   H42425022   5.644   5.136   4.913  1.1113  2.8916 -2.8997
   50MOL   H42525023   5.576   4.988   4.868  0.8672 -0.7961 -2.1504
   50MOL   H42625024   5.687   5.061   4.758 -1.0066 -1.4993 -1.5527
   50MOL   C42725025   5.957   5.786   4.824  0.3576 -0.2407 -0.3036
   50MOL   C42825026   5.899   5.894   4.729  0.1253  0.0256  0.3993
   50MOL   O42925027   5.843   5.997   4.815  0.8166  0.6141  0.5465
   50MOL   C43025028   5.732   6.068   4.764 -0.2569 -0.5089  0.1055
   50MOL   C43125029   5.675   6.155   4.879  0.2689 -1.0049  0.6366
   50MOL   C43225030   5.641   6.073   5.009 -0.7799 -0.1126 -0.9108
   50MOL   C43325031   5.635   6.175   5.128 -0.0114 -0.4258  0.3228
   50MOL   C43425032   5.604   6.106   5.266  0.3256 -0.3358  0.6891
   50MOL   C43525033   5.603   6.212   5.372  0.4752  0.6787 -0.4102
   50MOL   H43625034   6.038   5.830   4.882 -1.7636  2.6866  0.5319
   50MOL   H43725035   6.001   5.708   4.762 -0.9223 -1.8291  0.7484
   50MOL   H43825036   5.832   5.837   4.665 -1.5935  2.9225 -0.4800
   50MOL   H43925037   5.656   6.007   4.714  1.2205 -1.7746 -0.6474
   50MOL   H44025038   5.775   6.135   4.690  1.8557 -0.9080  0.9203
   50MOL   H44125039   5.585   6.202   4.841  0.1958 -1.0085  0.8047
   50MOL   H44225040   5.743   6.237   4.902 -1.9616  0.8622  0.6423
   50MOL   H44325041   5.543   6.025   5.007 -0.2021 -1.4600  1.6876
   50MOL   H44425042   5.714   5.995   5.029  0.0837  0.7227 -0.7464
   50MOL   H44525043   5.731   6.224   5.137  0.2292 -0.4281 -1.9732
   50MOL   H44625044   5.568   6.260   5.116  2.4531  1.9499  3.0836
   50MOL   H44725045   5.506   6.061   5.254  1.1604 -1.5676 -1.7885
   50MOL   H44825046   5.672   6.021   5.277  2.0308  0.1858 -4.5726
   50MOL   H44925047   5.692   6.275   5.376  2.6545 -2.3881  1.3316
   50MOL   H45025048   5.513   6.271   5.355 -0.8726 -1.9160 -2.7752
   50MOL   H45125049   5.601   6.174   5.474 -0.2617  0.6016 -0.4499
   50MOL   C45225050   6.016   5.952   4.650 -0.0665  0.1576 -0.3641
   50MOL   C45325051   5.977   6.006   4.508 -0.3028 -0.2686 -0.4640
   50MOL   O45425052   5.918   5.903   4.439  0.0880  0.1195  0.1166
   50MOL   C45525053   5.811   5.942   4.360 -0.0116  0.5312 -0.6619
   50MOL   C45625054   5.765   5.831   4.264 -0.1578  0.6169 -0.4575
   50MOL   C45725055   5.708   5.704   4.331  0.1240  0.0327 -0.1603
   50MOL   C45825056   5.684   5.585   4.232 -0.2964 -0.4713 -0.1076
   50MOL   C45925057   5.594   5.473   4.294 -0.0415  0.0324  0.5864
   50MOL   C46025058   5.580   5.347   4.203  0.2316  0.0717 -0.3013
   50MOL   H46125059   6.055   6.036   4.709  1.0468 -1.4819  1.2939
   50MOL   H46225060   6.087   5.875   4.622 -2.0855 -1.5712 -0.8936
   50MOL   H46325061   5.916   6.096   4.507  0.4817  0.2670 -0.7022
   50MOL   H46425062   5.828   6.036   4.308  1.4272  0.4628 -0.3510
   50MOL   H46525063   5.727   5.968   4.424  0.7186 -0.3100  0.6710
   50MOL   H46625064   5.860   5.787   4.233  0.7959  0.9009  1.9187
   50MOL   H46725065   5.714   5.868   4.175 -1.2692  0.4471  0.1083
   50MOL   H46825066   5.779   5.678   4.410  1.2270  0.6512 -0.9403
   50MOL   H46925067   5.616   5.732   4.383  0.5222  2.5442 -0.7005
   50MOL   H47025068   5.643   5.614   4.136 -0.8889  0.0564  0.2973
   50MOL   H47125069   5.783   5.545   4.209  0.8793  0.8920  2.2743
   50MOL   H47225070   5.616   5.449   4.398  0.3364 -0.6917  0.3427
   50MOL   H47325071   5.495   5.515   4.308  0.1120 -0.6968  4.5878
   50MOL   H47425072   5.671   5.287   4.206  0.6808  0.6288 -2.4159
   50MOL   H47525073   5.508   5.275   4.243  0.9933 -1.3091 -1.3617
   50MOL   H47625074   5.544   5.380   4.106  1.1615  0.4766 -0.5130
   50MOL   C47725075   6.105   6.054   4.432  0.0790 -0.6851 -0.3108
   50MOL   C47825076   6.176   6.184   4.484 -0.4422  0.0173  0.2257
   50MOL   O47925077   6.080   6.289   4.498 -0.2307 -0.3225 -0.0982
   50MOL   C48025078   6.155   6.397   4.542  0.1131 -0.4790 -0.1796
   50MOL   C48125079   6.075   6.531   4.536 -0.3758  0.0190  0.4894
   50MOL   C48225080   6.031   6.570   4.389  0.4736  0.8526  0.1448
   50MOL   C48325081   5.985   6.712   4.383  0.3107 -0.3541 -0.4956
   50MOL   C48425082   5.898   6.740   4.254 -0.2439  0.5355 -0.1663
   50MOL   C48525083   5.870   6.892   4.241 -0.0650  0.0894 -0.0096
   50MOL   H48625084   6.189   5.984   4.439  0.5003 -0.0979  0.7025
   50MOL   H48725085   6.082   6.061   4.326 -0.1720  2.4341 -0.0882
   50MOL   H48825086   6.215   6.166   4.585 -1.0877  0.5257  0.5647
   50MOL   H48925087   6.250   6.412   4.490 -0.5746  1.0964 -1.0132
   50MOL   H49025088   6.182   6.381   4.647 -0.2698 -0.5106 -0.0846
   50MOL   H49125089   6.133   6.615   4.574  1.3305 -1.1043  0.4400
   50MOL   H49225090   5.984   6.532   4.595  0.2159 -0.9934  1.4367
   50MOL   H49325091   6.122   6.547   4.333  0.2730 -0.6581  0.4096
   50MOL   H49425092   5.948   6.510   4.351  0.7999  0.4578  0.0476
   50MOL   H49525093   5.928   6.722   4.476 -0.9227 -0.8894 -1.1789
   50MOL   H49625094   6.066   6.784   4.386  0.0902 -0.1435  1.7303
   50MOL   H49725095   5.956   6.715   4.165 -2.0952 -0.9798 -0.9780
   50MOL   H49825096   5.812   6.673   4.258  0.0369  0.1811 -0.0199
   50MOL   H49925097   5.952   6.959   4.268  0.1592  0.3133 -1.2402
   50MOL   H50025098   5.849   6.913   4.137  1.4361 -0.6894 -0.4920
   50MOL   H50125099   5.779   6.896   4.301  1.1255  2.1514  1.7496
   50MOL   H50225100   6.256   6.216   4.417 -1.3268  0.1560 -0.7692
   51MOL     C125101   4.050   7.016   3.997 -0.6271 -0.8397  0.0565
   51MOL     C225102   4.122   6.882   3.980  0.2381  0.1729 -0.6343
   51MOL     O325103   4.049   6.784   4.062  0.2044 -0.6832  0.1848
   51MOL     C425104   3.948   6.703   3.996 -0.4400  0.0379 -0.1094
   51MOL     C525105   3.885   6.623   4.100  0.3259  0.1098 -0.4322
   51MOL     C625106   3.751   6.564   4.063 -0.6728 -0.6826  0.9930
   51MOL     C725107   3.684   6.482   4.176  0.6976 -0.0128 -0.4062
   51MOL     C825108   3.558   6.421   4.130  0.7354 -0.2386  0.0011
   51MOL     C925109   3.498   6.330   4.237 -0.1534 -0.4186 -0.0096
   51MOL    H1025110   4.085   7.066   4.087  0.5175 -0.0725 -0.7956
   51MOL    H1125111   4.096   7.081   3.923 -0.8743 -2.2363 -1.3678
   51MOL    H1225112   4.121   6.845   3.878  1.1489 -0.5679 -0.3916
   51MOL    H1325113   3.990   6.630   3.927  1.1017  0.5434  0.2841
   51MOL    H1425114   3.882   6.769   3.939  0.6402  0.7988 -0.4885
   51MOL    H1525115   3.859   6.683   4.187 -0.3842 -4.3993  2.6085
   51MOL    H1625116   3.955   6.555   4.148  1.0075  0.7748 -0.4702
   51MOL    H1725117   3.690   6.642   4.017  1.4173 -1.1214 -2.8116
   51MOL    H1825118   3.776   6.506   3.974  1.2705  0.2349  0.9079
   51MOL    H1925119   3.743   6.398   4.211  1.1966  1.2438  1.8886
   51MOL    H2025120   3.668   6.549   4.261 -1.5275 -0.9830 -0.0225
   51MOL    H2125121   3.567   6.366   4.037  1.8918 -0.6549  0.3471
   51MOL    H2225122   3.497   6.510   4.114  1.5552  0.4891  0.8453
   51MOL    H2325123   3.390   6.326   4.223 -0.2083 -0.1919  0.3498
   51MOL    H2425124   3.530   6.226   4.229  0.3056 -0.1949 -1.2979
   51MOL    H2525125   3.504   6.366   4.339 -1.1075  3.7017 -1.3435
   51MOL    H2625126   3.941   7.026   3.995 -0.5365  0.1801 -1.8898
   51MOL    C2725127   4.275   6.889   4.013  0.4104  0.5055  0.2742
   51MOL    C2825128   4.345   6.752   3.989 -0.5059  0.0184 -0.0081
   51MOL    O2925129   4.352   6.739   3.846 -0.6045  0.1457  0.0884
   51MOL    C3025130   4.302   6.621   3.793 -0.3394  0.7213  1.3996
   51MOL    C3125131   4.292   6.628   3.644 -0.2630  0.0264  0.2897
   51MOL    C3225132   4.174   6.709   3.590 -0.0769 -0.4176  0.2029
   51MOL    C3325133   4.186   6.726   3.434 -0.8170  0.4038 -0.0752
   51MOL    C3425134   4.069   6.801   3.368 -0.7119 -0.2321  0.2077
   51MOL    C3525135   4.077   6.788   3.214  0.4181 -0.2870  0.7160
   51MOL    H3625136   4.322   6.960   3.945  0.9386  0.0634  0.1655
   51MOL    H3725137   4.285   6.920   4.117  0.2758 -0.4618  0.5839
   51MOL    H3825138   4.276   6.679   4.030  1.2191 -1.4957  0.2262
   51MOL    H3925139   4.203   6.599   3.834 -0.6215 -1.2846 -0.2917
   51MOL    H4025140   4.360   6.536   3.830  1.3874  0.7092 -1.2598
   51MOL    H4125141   4.268   6.529   3.605  1.9882 -0.4500  0.0733
   51MOL    H4225142   4.388   6.661   3.605 -0.4735 -1.0006 -1.0934
   51MOL    H4325143   4.091   6.642   3.613  0.8356 -1.0581  1.6807
   51MOL    H4425144   4.151   6.801   3.643 -1.6470 -0.7184  0.0605
   51MOL    H4525145   4.282   6.773   3.410 -0.8378 -0.6620 -2.3964
   51MOL    H4625146   4.188   6.625   3.394 -0.0521  0.4982 -0.2827
   51MOL    H4725147   3.972   6.763   3.400 -0.6356  0.6483  1.5317
   51MOL    H4825148   4.058   6.901   3.410 -2.3478  0.2299 -1.2442
   51MOL    H4925149   4.184   6.790   3.192  0.3461 -0.3375  0.3535
   51MOL    H5025150   4.041   6.691   3.181  0.0811  0.5231 -1.4087
   51MOL    H5125151   4.017   6.857   3.154  0.0573 -2.6842 -1.7559
   51MOL    C5225152   4.480   6.743   4.063  0.5095 -0.0499  0.2823
   51MOL    C5325153   4.544   6.605   4.071 -0.0816 -1.0918  0.1815
   51MOL    O5425154   4.666   6.601   4.148 -0.1651 -0.3317 -0.1466
   51MOL    C5525155   4.772   6.677   4.080 -0.1226  0.3767  0.0224
   51MOL    C5625156   4.912   6.651   4.136  0.2004 -0.3311  0.7182
   51MOL    C5725157   4.981   6.529   4.083  0.0473 -0.8669  0.3059
   51MOL    C5825158   5.106   6.473   4.165 -0.1884  0.2250 -0.3434
   51MOL    C5925159   5.148   6.327   4.141 -0.6163  0.5917 -0.2396
   51MOL    C6025160   5.038   6.223   4.169 -0.4931  0.1945  0.0312
   51MOL    H6125161   4.464   6.779   4.165  0.5417 -1.7604  0.9116
   51MOL    H6225162   4.550   6.814   4.019 -0.3279 -0.6632 -2.1153
   51MOL    H6325163   4.556   6.562   3.971  0.6667 -2.4680  0.8325
   51MOL    H6425164   4.748   6.783   4.093 -0.6093 -0.0138  2.6460
   51MOL    H6525165   4.767   6.646   3.976  2.0120 -0.6669  0.2012
   51MOL    H6625166   4.906   6.664   4.244 -1.0955 -1.7256  0.8312
   51MOL    H6725167   4.977   6.732   4.103 -0.1213 -0.1224  0.6056
   51MOL    H6825168   4.913   6.444   4.086  0.8696 -1.4895  1.7115
   51MOL    H6925169   5.001   6.550   3.978  0.4288  1.5087  0.8182
   51MOL    H7025170   5.184   6.543   4.136  1.3009 -1.1880  0.1827
   51MOL    H7125171   5.078   6.483   4.270  1.6095 -0.0120  0.1784
   51MOL    H7225172   5.190   6.323   4.040 -1.4765 -0.1884 -0.5675
   51MOL    H7325173   5.229   6.306   4.210 -1.8602 -0.8617  0.8053
   51MOL    H7425174   5.006   6.238   4.272 -0.0088  2.5360 -0.1281
   51MOL    H7525175   4.949   6.241   4.108 -1.2454  1.5695  1.5143
   51MOL    H7625176   5.073   6.122   4.145 -1.5822 -0.2124  0.0936
   51MOL    C7725177   4.453   6.502   4.148  0.3307  0.5160 -0.1929
   51MOL    C7825178   4.420   6.537   4.293 -0.2529  1.1849 -0.1689
   51MOL    O7925179   4.427   6.423   4.376 -0.1279  0.0363 -0.0066
   51MOL    C8025180   4.559   6.395   4.428 -0.3047  0.5456  0.0045
   51MOL    C8125181   4.538   6.281   4.540  0.4317 -0.3277 -0.0707
   51MOL    C8225182   4.662   6.239   4.618  0.8831 -0.3727 -0.3125
   51MOL    C8325183   4.643   6.130   4.715  0.5705 -0.2097 -0.8519
   51MOL    C8425184   4.771   6.107   4.795  1.1492  0.7840  0.3809
   51MOL    C8525185   4.745   5.972   4.859 -0.3851 -0.4598  0.5228
   51MOL    H8625186   4.493   6.400   4.149  0.4637  0.5715  0.8107
   51MOL    H8725187   4.363   6.483   4.090 -0.1871  0.6087  0.5774
   51MOL    H8825188   4.487   6.616   4.327 -1.9656  2.6224 -0.0882
   51MOL    H8925189   4.593   6.485   4.480  0.5223 -0.3007  0.9597
   51MOL    H9025190   4.625   6.358   4.349  1.7216 -0.2807  2.0378
   51MOL    H9125191   4.497   6.191   4.494 -0.6638 -0.3103  0.8633
   51MOL    H9225192   4.462   6.303   4.615 -0.0431  3.0996 -1.4728
   51MOL    H9325193   4.748   6.217   4.554  1.3213  0.3652  0.0093
   51MOL    H9425194   4.695   6.325   4.677  0.0413 -1.2186  1.4502
   51MOL    H9525195   4.577   6.158   4.797  0.5854  0.6966 -1.1441
   51MOL    H9625196   4.611   6.038   4.666  1.2170  0.1484 -1.9610
   51MOL    H9725197   4.858   6.104   4.729  0.4548  0.4035 -0.5440
   51MOL    H9825198   4.790   6.183   4.870  0.1333  0.3926  1.0401
   51MOL    H9925199   4.664   5.971   4.933  0.9683  0.1393  2.0531
   51MOL   H10025200   4.736   5.884   4.795 -0.4720  0.0765 -0.2036
   51MOL   H10125201   4.824   5.948   4.930  0.2898 -0.4873 -0.2327
   51MOL   C10225202   4.276   6.594   4.318  0.0172 -0.2670 -0.4260
   51MOL   C10325203   4.269   6.660   4.460 -0.0334  0.1660  0.8135
   51MOL   O10425204   4.329   6.784   4.437  0.6564 -0.1158  0.4304
   51MOL   C10525205   4.403   6.846   4.546  0.5876  0.2705 -0.6297
   51MOL   C10625206   4.464   6.979   4.499 -0.0481  0.3703 -0.2170
   51MOL   C10725207   4.582   6.958   4.403 -0.6604 -0.0973  0.1018
   51MOL   C10825208   4.630   7.094   4.353 -0.4418  1.1349  0.3374
   51MOL   C10925209   4.739   7.081   4.243 -0.8039  0.2283 -1.1104
   51MOL   C11025210   4.808   7.213   4.221  0.1468  0.2045 -0.9495
   51MOL   H11125211   4.235   6.658   4.239  1.9424  0.3637 -0.9501
   51MOL   H11225212   4.212   6.506   4.318  1.3414 -1.2334 -1.7132
   51MOL   H11325213   4.320   6.593   4.530 -1.4637 -1.8766 -0.0291
   51MOL   H11425214   4.482   6.788   4.593 -0.3027  0.1153  0.7022
   51MOL   H11525215   4.331   6.876   4.623  0.0104  0.8376 -1.3803
   51MOL   H11625216   4.496   7.037   4.585  0.0313 -0.3705  0.2598
   51MOL   H11725217   4.395   7.035   4.436  1.7339  0.4620 -2.1415
   51MOL   H11825218   4.648   6.890   4.456 -1.8379  1.1752  3.3129
   51MOL   H11925219   4.539   6.897   4.324 -0.5299 -1.1142  0.8034
   51MOL   H12025220   4.548   7.156   4.318  1.5867  1.7653 -3.4995
   51MOL   H12125221   4.673   7.152   4.435 -2.5114  0.9051  1.6272
   51MOL   H12225222   4.806   6.999   4.269 -0.4003  0.0457 -2.6840
   51MOL   H12325223   4.689   7.039   4.155  1.0693  0.0962 -2.1587
   51MOL   H12425224   4.878   7.213   4.137 -0.3975  0.0736 -1.4072
   51MOL   H12525225   4.735   7.286   4.187  0.5752  2.8284  3.3771
   51MOL   H12625226   4.856   7.244   4.314 -1.9484  1.0957 -0.1220
   51MOL   C12725227   4.123   6.679   4.519 -0.1459  0.2695  0.6047
   51MOL   C12825228   4.026   6.559   4.539 -0.5726  0.0884  0.4952
   51MOL   O12925229   3.901   6.611   4.587  0.1139 -0.0753  0.0377
   51MOL   C13025230   3.799   6.622   4.494 -0.1338  0.1349  0.4665
   51MOL   C13125231   3.669   6.655   4.567 -0.0570 -0.1426 -0.5932
   51MOL   C13225232   3.659   6.792   4.634  0.5288  0.4159  0.4416
   51MOL   C13325233   3.517   6.821   4.690  0.2300  0.3633 -0.0208
   51MOL   C13425234   3.503   6.966   4.735  0.6382  0.2459 -0.9280
   51MOL   C13525235   3.387   7.005   4.831  0.2857 -0.1010  0.0386
   51MOL   H13625236   4.124   6.719   4.620 -0.4046  0.4871  0.5204
   51MOL   H13725237   4.090   6.768   4.466 -0.1029  0.4941  0.9573
   51MOL   H13825238   4.021   6.506   4.444 -1.4650  0.3923  0.3635
   51MOL   H13925239   3.792   6.529   4.439  0.6048  1.1868 -1.4690
   51MOL   H14025240   3.827   6.689   4.413 -2.2126  4.0269  2.7713
   51MOL   H14125241   3.656   6.587   4.651 -0.4848 -0.3290 -0.8082
   51MOL   H14225242   3.581   6.648   4.503  0.0492  0.6302 -0.8273
   51MOL   H14325243   3.733   6.786   4.714  1.8254  1.1519 -0.6911
   51MOL   H14425244   3.696   6.868   4.565  2.1362  0.5126  1.3825
   51MOL   H14525245   3.438   6.810   4.617 -0.4769  3.4459  0.2516
   51MOL   H14625246   3.503   6.749   4.771 -2.1617 -0.6801 -1.3161
   51MOL   H14725247   3.591   6.996   4.794 -0.8674 -0.4179  1.7428
   51MOL   H14825248   3.507   7.044   4.659 -0.7217 -0.4067 -1.6735
   51MOL   H14925249   3.294   7.011   4.775 -1.3098  2.5092  2.7488
   51MOL   H15025250   3.358   6.930   4.904  0.1416 -0.8237 -0.7591
   51MOL   H15125251   3.403   7.106   4.870 -0.0458 -0.6524  1.6162
   51MOL   C15225252   4.082   6.461   4.638  0.2145 -1.0504 -1.0219
   51MOL   C15325253   4.001   6.331   4.648 -0.0609 -0.6399 -0.0937
   51MOL   O15425254   4.085   6.222   4.681 -0.1410  0.8056  0.0827
   51MOL   C15525255   4.144   6.158   4.573 -0.4713 -0.1095  0.6679
   51MOL   C15625256   4.230   6.048   4.640  1.2991 -0.5309  0.0251
   51MOL   C15725257   4.157   5.912   4.678  0.5579 -0.1167  0.0352
   51MOL   C15825258   4.255   5.806   4.732 -0.0452  0.6239 -0.4065
   51MOL   C15925259   4.191   5.663   4.742 -0.0099  0.3625  0.0009
   51MOL   C16025260   4.049   5.653   4.805 -0.1428  0.3715  0.3097
   51MOL   H16125261   4.182   6.433   4.602  0.5124 -1.5565  0.1744
   51MOL   H16225262   4.102   6.516   4.730  0.2173 -1.8346 -0.5602
   51MOL   H16325263   3.951   6.307   4.554  2.0233 -0.2006 -1.3621
   51MOL   H16425264   4.211   6.217   4.510 -0.2421 -1.5687 -0.4915
   51MOL   H16525265   4.067   6.114   4.510  2.5414 -1.1379 -2.4582
   51MOL   H16625266   4.286   6.087   4.725  0.1520 -0.3122  0.6972
   51MOL   H16725267   4.310   6.029   4.568  1.6035  0.4396  0.1028
   51MOL   H16825268   4.079   5.932   4.751 -0.7697 -1.0912 -1.0812
   51MOL   H16925269   4.111   5.876   4.586  0.7276  2.1498 -0.9815
   51MOL   H17025270   4.338   5.809   4.661  0.5828 -1.5108  0.1909
   51MOL   H17125271   4.296   5.829   4.830  1.3800 -0.2594 -0.7841
   51MOL   H17225272   4.179   5.605   4.650  1.1079  0.4707 -0.2236
   51MOL   H17325273   4.252   5.587   4.793 -1.1005 -0.5928 -0.0847
   51MOL   H17425274   4.021   5.548   4.812 -1.5975  0.7206 -0.0161
   51MOL   H17525275   4.061   5.691   4.906 -0.3829  1.8777 -0.2231
   51MOL   H17625276   3.973   5.714   4.756 -1.1970  0.5761  2.1252
   51MOL   C17725277   3.890   6.348   4.751  0.4165 -0.4030  0.3519
   51MOL   C17825278   3.785   6.230   4.763 -0.4720  0.1370 -0.1750
   51MOL   O17925279   3.729   6.234   4.893 -0.2369  0.3248  0.3331
   51MOL   C18025280   3.799   6.157   4.994  0.7336 -0.0939 -0.4618
   51MOL   C18125281   3.734   6.158   5.134 -0.9606 -0.1731 -0.5218
   51MOL   C18225282   3.815   6.077   5.233 -0.1786 -0.1675 -0.7156
   51MOL   C18325283   3.783   6.090   5.385  0.0825 -0.4964  0.1530
   51MOL   C18425284   3.916   6.083   5.467  0.0904 -0.3233 -0.0998
   51MOL   C18525285   3.908   6.108   5.618  0.2898 -0.3049  0.7382
   51MOL   H18625286   3.936   6.371   4.847 -0.7072  2.3604  0.2585
   51MOL   H18725287   3.829   6.435   4.726  1.4457 -0.3073 -1.8879
   51MOL   H18825288   3.837   6.135   4.748 -1.9401 -0.4410 -1.6919
   51MOL   H18925289   3.905   6.184   5.000  0.6348 -0.1575  1.7700
   51MOL   H19025290   3.812   6.054   4.959  3.2188  0.4680 -1.3068
   51MOL   H19125291   3.632   6.119   5.132 -1.0485  0.0392 -0.2381
   51MOL   H19225292   3.740   6.259   5.176  0.5347 -1.5321  2.7602
   51MOL   H19325293   3.795   5.975   5.201 -1.4497 -0.7608  1.8153
   51MOL   H19425294   3.920   6.103   5.223  0.7157 -3.0439  0.6501
   51MOL   H19525295   3.728   6.180   5.415  2.4275  1.8276 -2.2052
   51MOL   H19625296   3.708   6.016   5.414  0.4047 -0.7963  0.2140
   51MOL   H19725297   3.946   5.980   5.449 -1.2244 -0.4861 -1.5159
   51MOL   H19825298   3.992   6.151   5.427 -0.0131  0.8531  1.6816
   51MOL   H19925299   3.829   6.048   5.663 -2.3645  1.8746 -0.8415
   51MOL   H20025300   4.006   6.082   5.657  0.4168  0.2856  0.8240
   51MOL   H20125301   3.885   6.213   5.640 -2.0633 -1.0239  1.9048
   51MOL   C20225302   3.676   6.247   4.659 -0.0725  0.7708 -0.9413
   51MOL   C20325303   3.580   6.124   4.668 -0.6735 -0.8371 -0.2351
   51MOL   O20425304   3.650   6.008   4.626 -0.4114  0.1437 -0.2147
   51MOL   C20525305   3.617   5.889   4.687 -1.0266  0.2058 -0.6466
   51MOL   C20625306   3.671   5.765   4.598  0.3830  0.3610  0.1795
   51MOL   C20725307   3.662   5.631   4.678 -0.3883  0.9432  0.1134
   51MOL   C20825308   3.741   5.512   4.616 -0.1688  0.2800  0.4983
   51MOL   C20925309   3.668   5.462   4.492  0.0381 -0.9525  0.5090
   51MOL   C21025310   3.751   5.363   4.406  0.3592  0.1296  0.3310
   51MOL   H21125311   3.622   6.342   4.667  0.9320  1.2798 -0.0773
   51MOL   H21225312   3.721   6.244   4.559 -0.3631  0.3619 -1.0591
   51MOL   H21325313   3.551   6.101   4.771  0.4597  0.2788  0.3515
   51MOL   H21425314   3.511   5.879   4.711 -0.8781 -1.9896 -0.8337
   51MOL   H21525315   3.667   5.883   4.784 -0.4788  0.2205 -0.9275
   51MOL   H21625316   3.776   5.787   4.580  0.5768  0.8522  1.7806
   51MOL   H21725317   3.610   5.764   4.508 -2.5668 -1.8197  2.0973
   51MOL   H21825318   3.680   5.648   4.784  2.6707 -2.3603  0.2331
   51MOL   H21925319   3.554   5.615   4.675  0.0398 -2.0267 -0.6544
   51MOL   H22025320   3.840   5.548   4.590  0.3982 -1.1248  0.6341
   51MOL   H22125321   3.754   5.440   4.697  0.8702 -2.1354 -1.7442
   51MOL   H22225322   3.573   5.417   4.521 -1.2073  1.2165 -0.1080
   51MOL   H22325323   3.634   5.539   4.423 -0.2349 -1.4954  0.0279
   51MOL   H22425324   3.692   5.314   4.329 -1.1109  1.2591  0.7163
   51MOL   H22525325   3.838   5.411   4.361  0.4019 -0.7981 -0.5951
   51MOL   H22625326   3.787   5.284   4.472  1.4943  2.2462  2.3048
   51MOL   C22725327   3.448   6.123   4.580  0.4047  0.0757  0.5081
   51MOL   C22825328   3.323   6.199   4.625  0.0203 -0.4664 -0.4372
   51MOL   O22925329   3.347   6.337   4.608  0.1153  0.1551  0.0186
   51MOL   C23025330   3.293   6.421   4.711 -0.0898  0.1968 -0.1926
   51MOL   C23125331   3.376   6.423   4.843 -0.0982 -0.1210  0.5152
   51MOL   C23225332   3.334   6.521   4.947 -0.2587  0.1407 -0.1398
   51MOL   C23325333   3.426   6.504   5.072  0.2043  0.2036 -0.4870
   51MOL   C23425334   3.409   6.612   5.179  0.5587 -0.5923 -0.1411
   51MOL   C23525335   3.264   6.641   5.228  0.4430  0.0377 -0.5780
   51MOL   H23625336   3.455   6.153   4.476  0.2765 -0.9575  0.2011
   51MOL   H23725337   3.410   6.021   4.586 -0.7979  0.4241 -0.9019
   51MOL   H23825338   3.296   6.182   4.730  1.1565  1.6737  0.2378
   51MOL   H23925339   3.188   6.391   4.722  0.0272 -1.2046 -2.5905
   51MOL   H24025340   3.297   6.521   4.668 -0.9362 -0.9194 -2.9446
   51MOL   H24125341   3.484   6.426   4.826 -0.4956 -1.4539 -2.4808
   51MOL   H24225342   3.371   6.323   4.885  0.8333 -0.1614  0.5378
   51MOL   H24325343   3.346   6.624   4.913 -1.3700  0.8571  1.5593
   51MOL   H24425344   3.226   6.514   4.960 -0.2555  1.7371  0.9283
   51MOL   H24525345   3.397   6.412   5.121 -0.9762  0.7102 -0.2343
   51MOL   H24625346   3.529   6.496   5.037 -0.1964  1.6232 -2.0484
   51MOL   H24725347   3.489   6.586   5.249  1.2266  0.9915 -0.2856
   51MOL   H24825348   3.447   6.707   5.140  0.5395 -0.3536  0.4227
   51MOL   H24925349   3.191   6.655   5.149  1.3360 -0.2257 -1.4582
   51MOL   H25025350   3.238   6.552   5.285  1.6316  0.8515  1.2823
   51MOL   H25125351   3.262   6.724   5.298 -0.6937 -0.5718  0.1221
   51MOL   C25225352   3.202   6.167   4.532 -0.3797  0.2136  0.2284
   51MOL   C25325353   3.109   6.056   4.592 -0.1456 -0.6202 -0.4027
   51MOL   O25425354   3.023   6.019   4.483  0.6048 -0.0800  0.1795
   51MOL   C25525355   3.000   5.882   4.470 -0.2521 -0.0791 -0.5717
   51MOL   C25625356   2.895   5.856   4.366  0.2053  0.5488  0.3152
   51MOL   C25725357   2.957   5.852   4.225 -0.7397  0.0413  0.3434
   51MOL   C25825358   2.869   5.831   4.101  0.7280  0.8147 -0.1693
   51MOL   C25925359   2.938   5.834   3.968 -0.3698  0.8193 -0.0965
   51MOL   C26025360   2.826   5.839   3.861 -0.0462 -0.1148 -0.1865
   51MOL   H26125361   3.142   6.256   4.516 -0.8920 -0.6071 -2.5761
   51MOL   H26225362   3.244   6.144   4.434 -2.2316  0.4747 -0.6388
   51MOL   H26325363   3.168   5.970   4.622 -0.7372 -0.8942 -0.0205
   51MOL   H26425364   2.968   5.833   4.562  0.3479 -2.1381 -1.4334
   51MOL   H26525365   3.089   5.822   4.452 -1.3344 -1.9700  0.1590
   51MOL   H26625366   2.832   5.945   4.369 -0.7381 -0.1212  0.6190
   51MOL   H26725367   2.827   5.772   4.382  1.5963 -1.3585 -3.1080
   51MOL   H26825368   3.009   5.946   4.209 -0.2609 -0.4900 -1.3067
   51MOL   H26925369   3.037   5.778   4.225 -0.9139 -0.1452 -0.2876
   51MOL   H27025370   2.822   5.735   4.118  1.3763  0.5764  0.2790
   51MOL   H27125371   2.793   5.908   4.108  1.8121  1.8678  0.2860
   51MOL   H27225372   2.995   5.927   3.969 -0.4512  0.8691 -0.2263
   51MOL   H27325373   3.007   5.750   3.961 -0.4181  0.8243 -0.6101
   51MOL   H27425374   2.748   5.914   3.875  0.2499  0.2029 -0.2263
   51MOL   H27525375   2.868   5.858   3.762 -0.3664 -0.2641 -0.3512
   51MOL   H27625376   2.774   5.744   3.844  1.1600 -1.2344  2.1301
   51MOL   C27725377   3.029   6.095   4.716  0.1136  0.4839  0.1593
   51MOL   C27825378   3.005   5.988   4.824  0.2110 -0.4024 -0.2081
   51MOL   O27925379   3.118   6.009   4.897  0.3124  0.5804  0.2642
   51MOL   C28025380   3.177   5.908   4.975 -0.3328  0.5218  0.2036
   51MOL   C28125381   3.285   5.980   5.063 -0.5236  0.4990  0.5220
   51MOL   C28225382   3.235   6.090   5.149  0.2657 -0.6948  1.1016
   51MOL   C28325383   3.332   6.145   5.246 -0.2343 -0.2172 -0.1163
   51MOL   C28425384   3.279   6.268   5.319 -0.4617 -0.4882 -0.1258
   51MOL   C28525385   3.382   6.315   5.426  0.1172 -0.2941 -0.6057
   51MOL   H28625386   3.073   6.185   4.759 -0.3731  0.4565  0.7346
   51MOL   H28725387   2.928   6.132   4.695  0.6301  0.5759 -2.2259
   51MOL   H28825388   3.011   5.887   4.783  0.3468 -0.7032  0.5380
   51MOL   H28925389   3.212   5.827   4.912 -0.8024 -0.2679  0.9439
   51MOL   H29025390   3.101   5.857   5.034  0.3625 -2.9993 -1.7821
   51MOL   H29125391   3.364   6.013   4.996 -1.1793 -1.4770 -1.2854
   51MOL   H29225392   3.333   5.904   5.125  0.5379 -0.4561 -1.4342
   51MOL   H29325393   3.207   6.164   5.073  0.1915 -0.6446  1.1788
   51MOL   H29425394   3.138   6.074   5.196 -1.1818 -0.9222 -1.8554
   51MOL   H29525395   3.357   6.073   5.325 -1.3954 -0.4424  0.0571
   51MOL   H29625396   3.425   6.177   5.200  0.1017 -2.9668 -1.4323
   51MOL   H29725397   3.243   6.345   5.251  0.5113 -1.7687 -2.1264
   51MOL   H29825398   3.191   6.249   5.381 -1.8406  1.1141 -1.5537
   51MOL   H29925399   3.347   6.405   5.477 -2.0924 -1.6747  0.4357
   51MOL   H30025400   3.408   6.236   5.497  1.4466 -0.9022 -1.7597
   51MOL   H30125401   3.470   6.348   5.372 -1.0979 -1.3321 -3.2948
   51MOL   C30225402   2.879   6.019   4.912  0.0933 -0.3393  0.4788
   51MOL   C30325403   2.743   5.990   4.855  0.3962  0.6425  0.2793
   51MOL   O30425404   2.646   6.081   4.911 -0.7172  0.4622 -0.7901
   51MOL   C30525405   2.608   6.187   4.828 -0.0399 -0.5135 -0.1476
   51MOL   C30625406   2.497   6.250   4.910  0.4980  0.0835 -1.3099
   51MOL   C30725407   2.559   6.320   5.024  0.5412  0.3083 -0.4728
   51MOL   C30825408   2.462   6.409   5.097  0.1661 -0.1021 -0.4313
   51MOL   C30925409   2.534   6.460   5.228  0.1579 -0.1941 -0.2530
   51MOL   C31025410   2.435   6.539   5.310 -0.2463  0.1162  0.7513
   51MOL   H31125411   2.886   5.971   5.010 -1.9088  1.0637  1.3607
   51MOL   H31225412   2.883   6.128   4.916 -2.2125 -0.1475 -1.5595
   51MOL   H31325413   2.744   5.994   4.746 -2.3876  3.1185  0.2763
   51MOL   H31425414   2.574   6.154   4.729 -0.0465 -0.9514  0.0014
   51MOL   H31525415   2.696   6.245   4.802 -0.8826  0.7967 -0.1414
   51MOL   H31625416   2.437   6.165   4.943  0.7561  0.3049 -0.2493
   51MOL   H31725417   2.432   6.315   4.852 -0.6394 -1.0217 -1.2950
   51MOL   H31825418   2.594   6.235   5.081 -1.7427  0.2939  0.9835
   51MOL   H31925419   2.641   6.385   4.995  0.8058 -0.0233 -0.4617
   51MOL   H32025420   2.431   6.493   5.036  1.2757 -0.1746 -1.1202
   51MOL   H32125421   2.377   6.346   5.123  0.0574  0.1172 -0.2577
   51MOL   H32225422   2.570   6.369   5.277  0.1460 -1.2468 -2.1581
   51MOL   H32325423   2.622   6.513   5.193  1.0607 -1.0447  0.6767
   51MOL   H32425424   2.337   6.499   5.285 -0.7173  2.1211 -0.7634
   51MOL   H32525425   2.447   6.525   5.417 -1.6936  1.5953  1.1341
   51MOL   H32625426   2.429   6.643   5.278 -1.8510 -0.5548 -1.2594
   51MOL   C32725427   2.697   5.845   4.886 -0.7184 -0.6439 -1.1133
   51MOL   C32825428   2.563   5.803   4.821  0.0228 -0.0145  0.4033
   51MOL   O32925429   2.584   5.809   4.676  0.3015  0.1573  0.1376
   51MOL   C33025430   2.463   5.826   4.601  0.6130  0.3457  0.2512
   51MOL   C33125431   2.490   5.774   4.466 -0.6600  0.4113  0.2804
   51MOL   C33225432   2.374   5.775   4.366  0.3653 -0.8564 -0.8677
   51MOL   C33325433   2.405   5.693   4.236  0.3395  0.1908  0.3561
   51MOL   C33425434   2.468   5.777   4.124 -0.0058  0.3948 -0.0260
   51MOL   C33525435   2.500   5.703   3.999 -0.3386  0.4695 -0.0008
   51MOL   H33625436   2.694   5.834   4.994 -3.0638 -0.1563 -1.0837
   51MOL   H33725437   2.772   5.781   4.841  0.5192 -0.3744  0.5341
   51MOL   H33825438   2.491   5.878   4.853 -0.1456  0.1343 -0.3084
   51MOL   H33925439   2.438   5.932   4.600 -3.6200 -0.5826  0.6152
   51MOL   H34025440   2.377   5.766   4.631  0.2274 -0.2190 -1.8598
   51MOL   H34125441   2.517   5.669   4.480  0.1867  0.7879  1.5943
   51MOL   H34225442   2.573   5.826   4.418 -0.4510 -0.0544  0.1385
   51MOL   H34325443   2.284   5.744   4.419  0.3853  0.8817  0.2234
   51MOL   H34425444   2.351   5.879   4.344  0.2433 -0.6169  0.3607
   51MOL   H34525445   2.475   5.612   4.261  0.4128  0.6225  1.5710
   51MOL   H34625446   2.319   5.649   4.185 -0.8372  0.6756  1.9127
   51MOL   H34725447   2.397   5.855   4.097 -0.2510  0.2253  0.1240
   51MOL   H34825448   2.553   5.832   4.163  0.8257 -1.4049  0.7637
   51MOL   H34925449   2.575   5.627   4.018  0.5671  1.2673 -0.3542
   51MOL   H35025450   2.417   5.669   3.937 -0.2160  2.2730 -1.2149
   51MOL   H35125451   2.548   5.778   3.936  2.1289 -0.9843  0.1088
   51MOL   C35225452   2.515   5.655   4.861 -0.6516 -0.1772  0.1158
   51MOL   C35325453   2.371   5.655   4.924  0.7320  0.5246 -0.3228
   51MOL   O35425454   2.366   5.730   5.046 -0.5019  0.2354 -0.6666
   51MOL   C35525455   2.240   5.800   5.068  0.5236 -0.4479  0.3018
   51MOL   C35625456   2.259   5.849   5.215  0.7024 -0.3717 -0.0276
   51MOL   C35725457   2.358   5.963   5.226 -0.4546  0.4159  0.1520
   51MOL   C35825458   2.424   5.974   5.365  0.0154  0.3649  0.3151
   51MOL   C35925459   2.533   6.094   5.362  0.1010  0.1330 -0.1178
   51MOL   C36025460   2.603   6.119   5.497  0.3961 -0.2095  0.2471
   51MOL   H36125461   2.508   5.597   4.769 -2.1321 -0.2316  0.2618
   51MOL   H36225462   2.584   5.601   4.925 -0.8256 -0.8474 -0.2594
   51MOL   H36325463   2.297   5.699   4.858 -0.5192  0.2426  0.8479
   51MOL   H36425464   2.156   5.730   5.072  1.2165 -1.3663 -0.8681
   51MOL   H36525465   2.224   5.880   4.996  1.5873  1.8655  2.5930
   51MOL   H36625466   2.294   5.765   5.275 -1.3595 -0.6020  0.8998
   51MOL   H36725467   2.159   5.879   5.247  1.4773  3.2500 -0.6978
   51MOL   H36825468   2.437   5.940   5.154  0.6310  2.1813  0.7535
   51MOL   H36925469   2.319   6.057   5.188 -0.2362  1.5028  2.5642
   51MOL   H37025470   2.356   5.981   5.450 -1.1188 -2.4072 -0.3200
   51MOL   H37125471   2.487   5.887   5.384 -0.2368 -0.0031 -0.5079
   51MOL   H37225472   2.610   6.073   5.288 -0.5045  0.9244 -0.9888
   51MOL   H37325473   2.480   6.184   5.330 -1.3657 -0.5689  0.2932
   51MOL   H37425474   2.539   6.160   5.574  1.2150  1.5778 -0.0087
   51MOL   H37525475   2.652   6.026   5.528  0.3448 -0.4617 -0.4300
   51MOL   H37625476   2.684   6.192   5.489 -0.4889  0.6592 -0.7975
   51MOL   C37725477   2.330   5.507   4.961 -0.0610 -0.4566  0.4993
   51MOL   C37825478   2.297   5.420   4.839  0.2233  0.0791  0.3677
   51MOL   O37925479   2.189   5.489   4.770  0.0862 -0.0885 -0.4068
   51MOL   C38025480   2.207   5.459   4.632  0.5467 -0.3437 -0.2208
   51MOL   C38125481   2.063   5.502   4.573 -0.1630  0.3712 -0.4186
   51MOL   C38225482   2.051   5.479   4.418 -0.6362  0.3362  0.1008
   51MOL   C38325483   1.912   5.514   4.367  1.0560 -0.3812 -0.8158
   51MOL   C38425484   1.913   5.520   4.213  0.0193 -0.4775 -0.0270
   51MOL   C38525485   1.775   5.540   4.148  0.3838 -0.4439  0.1293
   51MOL   H38625486   2.408   5.460   5.021  0.2615 -3.4804 -2.1607
   51MOL   H38725487   2.239   5.502   5.022  0.0741 -1.1699  0.6525
   51MOL   H38825488   2.382   5.405   4.772 -0.5644 -0.3018 -0.5620
   51MOL   H38925489   2.213   5.352   4.612  0.2189 -0.9734  2.9274
   51MOL   H39025490   2.294   5.513   4.592  1.3594 -0.7720  0.9398
   51MOL   H39125491   2.047   5.603   4.610  2.5283 -0.1014  2.3107
   51MOL   H39225492   1.988   5.439   4.621 -0.1887  0.7011 -0.0190
   51MOL   H39325493   2.125   5.538   4.364 -0.9031  0.1796 -0.4323
   51MOL   H39425494   2.070   5.378   4.384  0.1639  0.6178 -0.2944
   51MOL   H39525495   1.845   5.430   4.388 -0.1123  0.3644 -1.5028
   51MOL   H39625496   1.878   5.596   4.430  2.7366 -0.8467  0.7646
   51MOL   H39725497   1.979   5.600   4.179 -2.2232  2.5632  2.4707
   51MOL   H39825498   1.952   5.428   4.168 -0.4313 -0.1788 -1.0387
   51MOL   H39925499   1.786   5.580   4.047 -1.0676 -0.6187 -0.1187
   51MOL   H40025500   1.708   5.455   4.137 -2.6971  1.7114  1.3152
   51MOL   H40125501   1.708   5.608   4.203 -1.1697 -0.8045 -1.2761
   51MOL   C40225502   2.254   5.280   4.885  0.7065  0.2409 -0.4574
   51MOL   C40325503   2.371   5.187   4.939 -0.0937 -0.6409 -0.2762
   51MOL   O40425504   2.476   5.171   4.843 -0.4898 -0.0141  0.5044
   51MOL   C40525505   2.602   5.115   4.886  0.4602  0.0855 -0.0456
   51MOL   C40625506   2.696   5.129   4.767 -0.0533  0.3050 -0.1223
   51MOL   C40725507   2.738   5.272   4.740  0.4247  0.3114  0.9030
   51MOL   C40825508   2.883   5.282   4.698  0.2505 -0.2056  0.4142
   51MOL   C40925509   2.916   5.403   4.609  0.7428 -0.0078 -0.2282
   51MOL   C41025510   2.913   5.539   4.673 -0.1485 -0.3798  0.9419
   51MOL   H41125511   2.208   5.232   4.798  0.5360 -0.1681 -0.1455
   51MOL   H41225512   2.179   5.297   4.962  1.0339  0.3708 -0.1671
   51MOL   H41325513   2.420   5.221   5.030  0.9165  0.6384 -1.2794
   51MOL   H41425514   2.591   5.009   4.910  4.0651 -0.3596 -0.0266
   51MOL   H41525515   2.634   5.173   4.973  1.4831  0.1816 -0.4845
   51MOL   H41625516   2.649   5.097   4.674 -1.5619 -0.2481  0.8035
   51MOL   H41725517   2.778   5.059   4.783 -1.0183 -1.0242 -0.8236
   51MOL   H41825518   2.667   5.305   4.664  1.8724 -1.3404 -1.2170
   51MOL   H41925519   2.725   5.350   4.815  2.2088  0.0143  1.5322
   51MOL   H42025520   2.963   5.291   4.772  1.1464  0.5142 -0.6198
   51MOL   H42125521   2.902   5.191   4.641 -0.1831  0.6242 -1.0639
   51MOL   H42225522   3.020   5.376   4.589  1.1316 -0.0102  1.6602
   51MOL   H42325523   2.859   5.395   4.516 -1.6859 -0.4403  1.2643
   51MOL   H42425524   2.963   5.604   4.601  1.2177 -1.2157  1.1160
   51MOL   H42525525   2.812   5.578   4.673 -0.0255 -0.0575  0.5055
   51MOL   H42625526   2.963   5.543   4.770 -0.0624  0.4217  0.8619
   51MOL   C42725527   2.308   5.046   4.981 -0.4088 -0.2123  0.4097
   51MOL   C42825528   2.226   5.045   5.111  0.4735  0.3529  0.0951
   51MOL   O42925529   2.131   4.938   5.096  0.0068 -0.2475 -0.5527
   51MOL   C43025530   1.998   4.976   5.058  0.3687 -0.1766  0.3673
   51MOL   C43125531   1.922   4.849   5.011 -0.2078 -0.8610 -0.3857
   51MOL   C43225532   1.987   4.784   4.887 -0.3355 -0.6681  0.1686
   51MOL   C43325533   1.947   4.646   4.855 -0.1314 -0.0538  0.0576
   51MOL   C43425534   2.023   4.599   4.722 -0.4338 -0.1246 -0.5730
   51MOL   C43525535   1.995   4.453   4.700  0.1959  0.1040  0.0202
   51MOL   H43625536   2.249   5.021   4.892 -0.7500  0.0719  0.5546
   51MOL   H43725537   2.371   4.957   4.986  1.0056  0.5454 -2.4541
   51MOL   H43825538   2.174   5.141   5.112 -3.5917 -1.6693 -2.4919
   51MOL   H43925539   2.012   5.033   4.966  1.2244  1.9710  1.7825
   51MOL   H44025540   1.951   5.043   5.130 -1.9322 -0.6521 -0.6583
   51MOL   H44125541   1.817   4.873   4.995  0.0516  1.4619  1.1127
   51MOL   H44225542   1.915   4.783   5.098  0.3640  0.3230  0.5849
   51MOL   H44325543   1.978   4.838   4.793 -2.4339  1.2341  1.4158
   51MOL   H44425544   2.094   4.777   4.902 -0.5252  1.7687  3.1576
   51MOL   H44525545   1.963   4.581   4.941  1.0314  1.4731  1.0468
   51MOL   H44625546   1.844   4.649   4.820  0.1464 -1.2689 -0.8853
   51MOL   H44725547   1.993   4.650   4.631 -0.3113  0.1156 -0.4772
   51MOL   H44825548   2.130   4.606   4.744 -0.9046 -1.0847  2.1867
   51MOL   H44925549   2.036   4.418   4.605 -1.2511 -2.7865  0.3962
   51MOL   H45025550   2.035   4.382   4.772 -0.5500 -0.7607 -0.3923
   51MOL   H45125551   1.887   4.437   4.707  0.2872 -0.2574  0.6162
   51MOL   C45225552   2.311   5.023   5.234  0.1580 -0.2046 -0.1562
   51MOL   C45325553   2.224   5.050   5.358 -0.5585 -0.0062  0.4072
   51MOL   O45425554   2.201   5.193   5.367  0.1534  0.1371  0.9260
   51MOL   C45525555   2.079   5.227   5.424 -0.0546 -0.4255  0.0586
   51MOL   C45625556   2.073   5.379   5.469 -0.0262 -0.4727 -0.2873
   51MOL   C45725557   2.184   5.429   5.564 -0.5449  0.7029  0.2667
   51MOL   C45825558   2.206   5.580   5.583 -0.2113 -0.4980 -0.1114
   51MOL   C45925559   2.352   5.620   5.612  0.1710  0.0121 -0.1228
   51MOL   C46025560   2.411   5.561   5.739 -0.3357 -0.0351 -0.2105
   51MOL   H46125561   2.355   4.923   5.229  1.6422  0.4030  0.3244
   51MOL   H46225562   2.387   5.102   5.231  0.3120 -0.3696 -0.6920
   51MOL   H46325563   2.131   4.994   5.351  1.4042 -3.2065 -1.5793
   51MOL   H46425564   2.082   5.179   5.522  1.8144 -0.0708  0.2000
   51MOL   H46525565   2.004   5.175   5.365 -0.2568 -0.3425  0.2429
   51MOL   H46625566   1.970   5.403   5.494 -0.7205 -0.4402 -3.0034
   51MOL   H46725567   2.088   5.427   5.372  2.1734  0.6146  0.5439
   51MOL   H46825568   2.173   5.392   5.666  1.1966  0.9557  0.5565
   51MOL   H46925569   2.271   5.379   5.523 -2.0026 -1.4552 -0.2865
   51MOL   H47025570   2.179   5.624   5.487  3.7871  1.3155 -0.5092
   51MOL   H47125571   2.134   5.624   5.653  0.6726  2.5034 -1.0258
   51MOL   H47225572   2.408   5.590   5.523 -0.9873  0.6273 -1.0664
   51MOL   H47325573   2.357   5.727   5.630 -0.2290 -0.1098  0.7394
   51MOL   H47425574   2.511   5.603   5.748 -0.5305  1.0454 -2.7123
   51MOL   H47525575   2.344   5.591   5.820  1.0592 -1.2626  1.4429
   51MOL   H47625576   2.428   5.453   5.737  1.0525  0.1962 -2.5696
   51MOL   C47725577   2.303   5.003   5.487 -0.4357 -0.0761 -0.9831
   51MOL   C47825578   2.434   5.085   5.518  0.5077 -0.6043 -0.4265
   51MOL   O47925579   2.483   5.025   5.637  0.0049  0.2947  0.1891
   51MOL   C48025580   2.582   5.103   5.705 -0.1891 -0.5560 -0.1884
   51MOL   C48125581   2.638   5.009   5.819  0.4103  0.6943  0.5889
   51MOL   C48225582   2.734   5.089   5.907  0.2107 -0.4312  0.1738
   51MOL   C48325583   2.795   5.003   6.023  0.6888  0.5715 -0.2317
   51MOL   C48425584   2.920   5.074   6.085 -0.1559 -0.1311 -0.0768
   51MOL   C48525585   2.974   5.008   6.222  0.0618 -0.4687  0.6945
   51MOL   H48625586   2.245   5.031   5.575  2.8530  0.6214  1.0386
   51MOL   H48725587   2.324   4.896   5.494  1.5474  0.4389  1.1839
   51MOL   H48825588   2.504   5.076   5.435  0.3400 -1.6675 -0.4552
   51MOL   H48925589   2.538   5.200   5.728  2.5420  1.0075 -1.2783
   51MOL   H49025590   2.658   5.126   5.630  0.2492 -0.8115  0.1692
   51MOL   H49125591   2.688   4.922   5.777 -0.3702  0.0331  1.0243
   51MOL   H49225592   2.550   4.977   5.875  0.0999  2.1730  0.9856
   51MOL   H49325593   2.817   5.119   5.843 -0.2582 -1.2110 -0.8034
   51MOL   H49425594   2.687   5.182   5.941 -2.6171 -1.2190 -1.4186
   51MOL   H49525595   2.725   4.982   6.104  2.0919 -0.4643  0.7465
   51MOL   H49625596   2.826   4.905   5.987 -1.3847  0.6438 -2.3416
   51MOL   H49725597   3.007   5.070   6.019 -1.0732 -1.2017 -1.2480
   51MOL   H49825598   2.914   5.181   6.103 -3.2683 -0.3179  0.3229
   51MOL   H49925599   3.067   5.060   6.242 -0.7918  1.4178 -0.1129
   51MOL   H50025600   2.912   5.036   6.307 -2.3599  2.0017 -1.7751
   51MOL   H50125601   2.985   4.900   6.209 -3.5525 -0.8326  0.2068
   51MOL   H50225602   2.400   5.187   5.531  0.9336 -0.5731  0.5088
   52MOL     C125603   5.629   2.216   5.001 -0.2694 -0.0244  0.2731
   52MOL     C225604   5.607   2.074   4.928  0.6276 -0.2309 -0.0099
   52MOL     O325605   5.486   2.010   4.977 -0.2200 -0.1389  0.1609
   52MOL     C425606   5.360   2.073   4.964 -1.2247  0.4979 -0.0288
   52MOL     C525607   5.257   1.959   4.987 -0.0494 -0.5796  0.2429
   52MOL     C625608   5.112   1.997   4.958 -0.6102  0.4990 -0.0610
   52MOL     C725609   5.013   1.877   4.983  0.0435  0.4636 -0.1067
   52MOL     C825610   4.879   1.928   4.935  0.2622 -0.2908  0.2970
   52MOL     C925611   4.756   1.861   5.009 -0.1199 -0.3302 -0.1333
   52MOL    H1025612   5.641   2.194   5.107 -0.0948  1.4875  0.5754
   52MOL    H1125613   5.717   2.267   4.961  0.3375  0.0513  1.6358
   52MOL    H1225614   5.596   2.106   4.824  1.6663 -0.5570 -0.2274
   52MOL    H1325615   5.356   2.098   4.858  2.1182  3.9086  0.5684
   52MOL    H1425616   5.354   2.158   5.031 -0.3527  1.0234 -0.6053
   52MOL    H1525617   5.250   1.925   5.090  0.8115  0.0579  0.5195
   52MOL    H1625618   5.286   1.878   4.919 -0.7169  0.2732 -1.0729
   52MOL    H1725619   5.086   2.081   5.023  0.1268 -0.6599  1.7839
   52MOL    H1825620   5.103   2.023   4.853 -1.4173 -2.9596 -0.9035
   52MOL    H1925621   5.036   1.784   4.930 -1.2887  0.3415 -0.4909
   52MOL    H2025622   5.015   1.847   5.087  0.4113  0.2414 -0.1767
   52MOL    H2125623   4.869   1.899   4.830  1.0373 -2.4149  0.7843
   52MOL    H2225624   4.877   2.037   4.935 -1.6659 -0.2995  1.0939
   52MOL    H2325625   4.660   1.901   4.975  0.3238  0.1284 -0.8770
   52MOL    H2425626   4.751   1.756   4.981 -1.1206 -0.6704  1.2665
   52MOL    H2525627   4.761   1.866   5.117 -1.1172  0.8257 -0.1175
   52MOL    H2625628   5.538   2.274   4.992 -1.1255 -1.0775  1.8260
   52MOL    C2725629   5.741   1.996   4.941 -0.7889 -0.5701 -0.6047
   52MOL    C2825630   5.759   1.882   4.834  0.2606  0.4637  0.1769
   52MOL    O2925631   5.809   1.949   4.722  0.4215 -0.1861  0.3732
   52MOL    C3025632   5.770   1.896   4.590 -0.1323 -0.1494  0.2765
   52MOL    C3125633   5.787   1.986   4.466 -0.3452  0.2480  0.2911
   52MOL    C3225634   5.746   1.908   4.341  0.5868 -0.2342 -0.2250
   52MOL    C3325635   5.795   1.969   4.207 -0.8552 -0.9300 -0.1845
   52MOL    C3425636   5.700   2.072   4.141 -0.1140 -0.4170 -0.1301
   52MOL    C3525637   5.739   2.111   4.002 -0.7855 -0.4205  0.1207
   52MOL    H3625638   5.824   2.067   4.937 -1.0400 -0.3456 -2.1760
   52MOL    H3725639   5.724   1.951   5.038  0.1383  4.9525  2.3018
   52MOL    H3825640   5.659   1.841   4.820  1.2764 -2.1475  0.2033
   52MOL    H3925641   5.671   1.853   4.606  0.9839 -2.7391  0.3149
   52MOL    H4025642   5.825   1.803   4.579 -1.9584 -0.9504 -2.6746
   52MOL    H4125643   5.893   2.009   4.457 -0.5983  1.8169  1.1014
   52MOL    H4225644   5.724   2.075   4.472  1.2421  1.4990 -1.0952
   52MOL    H4325645   5.768   1.802   4.349 -1.7687 -0.7658 -0.6052
   52MOL    H4425646   5.637   1.908   4.339  0.6060  0.5803 -2.1573
   52MOL    H4525647   5.901   1.992   4.211 -1.0382 -0.1123  0.0301
   52MOL    H4625648   5.795   1.885   4.137  2.3375  0.2162 -1.6388
   52MOL    H4725649   5.599   2.030   4.138 -0.7530  1.1598 -1.3611
   52MOL    H4825650   5.705   2.159   4.207  1.7352 -1.1735  0.7659
   52MOL    H4925651   5.687   2.051   3.927 -2.2538 -1.4254  1.8892
   52MOL    H5025652   5.688   2.207   3.992  0.7848  0.4946  0.6716
   52MOL    H5125653   5.845   2.127   3.980 -1.3434  1.0360 -1.6234
   52MOL    C5225654   5.850   1.763   4.867 -0.6259 -0.1731 -0.3610
   52MOL    C5325655   5.776   1.652   4.945  0.5740 -0.6172  0.2160
   52MOL    O5425656   5.680   1.614   4.845 -0.2275  0.1349  0.3104
   52MOL    C5525657   5.548   1.588   4.897 -0.8339 -0.6502 -0.2625
   52MOL    C5625658   5.484   1.495   4.791 -0.1387 -0.3340 -0.0031
   52MOL    C5725659   5.470   1.556   4.650 -0.3013  0.4404  0.0906
   52MOL    C5825660   5.408   1.701   4.643 -0.7243 -0.1133  0.2670
   52MOL    C5925661   5.432   1.764   4.502 -0.4188 -0.1026  0.2487
   52MOL    C6025662   5.321   1.737   4.405 -0.9705  0.2690 -1.0795
   52MOL    H6125663   5.943   1.791   4.916 -0.8514 -1.4852  0.8646
   52MOL    H6225664   5.883   1.720   4.772 -0.0582  0.3112 -0.3891
   52MOL    H6325665   5.735   1.697   5.035 -2.3588 -3.0421  0.1732
   52MOL    H6425666   5.488   1.673   4.929 -0.0655  0.3806 -1.5100
   52MOL    H6525667   5.555   1.517   4.979  3.3176 -1.0210 -0.8112
   52MOL    H6625668   5.395   1.453   4.837 -1.9279  1.7874 -1.4303
   52MOL    H6725669   5.555   1.413   4.775  1.3142  0.6925  1.1329
   52MOL    H6825670   5.570   1.547   4.609 -0.7650 -1.4241 -0.6910
   52MOL    H6925671   5.413   1.483   4.594 -2.6157  1.2346  1.3337
   52MOL    H7025672   5.301   1.693   4.663 -1.4658  1.1913 -2.9594
   52MOL    H7125673   5.456   1.764   4.718  1.8547 -2.6321  0.8226
   52MOL    H7225674   5.443   1.868   4.533  0.6245 -1.5551  5.1407
   52MOL    H7325675   5.530   1.728   4.473 -0.5810  0.4140 -1.0039
   52MOL    H7425676   5.222   1.776   4.429 -0.2079  2.6749 -1.7762
   52MOL    H7525677   5.349   1.781   4.309 -0.4673 -0.5367 -1.3078
   52MOL    H7625678   5.315   1.629   4.385  2.0436 -0.2009  0.3814
   52MOL    C7725679   5.866   1.528   4.972  0.5854  0.2155  0.1853
   52MOL    C7825680   5.958   1.539   5.094 -0.5210 -0.4657  0.1832
   52MOL    O7925681   6.068   1.625   5.061 -0.6321 -0.6976  0.2502
   52MOL    C8025682   6.100   1.706   5.167  0.2612  0.3041  1.1463
   52MOL    C8125683   6.209   1.806   5.120  0.3236 -0.0392  0.1206
   52MOL    C8225684   6.334   1.735   5.055 -0.2244 -0.8103 -0.5793
   52MOL    C8325685   6.440   1.843   5.019 -0.1245  0.3928 -0.5880
   52MOL    C8425686   6.548   1.802   4.924  0.9813  0.4937  0.0629
   52MOL    C8525687   6.617   1.923   4.867  0.2309  0.3511  0.4260
   52MOL    H8625688   5.912   1.495   4.878 -0.1844 -0.0950 -0.0818
   52MOL    H8725689   5.807   1.438   4.985  1.5019 -0.4546 -0.2684
   52MOL    H8825690   5.890   1.581   5.168  0.6023  1.4514  0.1419
   52MOL    H8925691   6.138   1.644   5.248 -0.4455  0.3231  1.4972
   52MOL    H9025692   6.022   1.769   5.210  0.9109  0.6830  1.7644
   52MOL    H9125693   6.240   1.869   5.203 -1.1421  2.7742 -1.3865
   52MOL    H9225694   6.176   1.872   5.040 -0.6236 -0.1164  0.4429
   52MOL    H9325695   6.371   1.661   5.126 -0.4512  1.3378  1.8589
   52MOL    H9425696   6.307   1.689   4.960 -0.2657  0.4611 -1.1919
   52MOL    H9525697   6.378   1.919   4.971 -1.0732  2.5395  3.7970
   52MOL    H9625698   6.483   1.898   5.103 -0.2377 -0.6031  0.1308
   52MOL    H9725699   6.625   1.738   4.966  0.1239 -1.3273 -1.0757
   52MOL    H9825700   6.497   1.741   4.849  0.5248 -0.2813  0.9906
   52MOL    H9925701   6.639   1.991   4.950 -0.1379 -0.1095  0.9008
   52MOL   H10025702   6.705   1.894   4.810 -1.4009  2.2618 -3.2960
   52MOL   H10125703   6.554   1.981   4.799 -0.4850 -0.8217  0.0819
   52MOL   C10225704   6.011   1.401   5.155 -0.6518 -0.1993  0.4748
   52MOL   C10325705   6.117   1.325   5.080 -0.2264 -0.3012 -0.2826
   52MOL   O10425706   6.181   1.250   5.175 -0.0453 -0.5181  0.4278
   52MOL   C10525707   6.287   1.317   5.245  0.4138 -0.0320 -0.1474
   52MOL   C10625708   6.345   1.224   5.356  0.2295 -0.3182  0.0592
   52MOL   C10725709   6.411   1.107   5.281  0.3552  0.0546  0.2149
   52MOL   C10825710   6.490   1.018   5.373  0.5923 -0.6545  0.6849
   52MOL   C10925711   6.409   0.912   5.442 -0.5266  0.4565 -0.4955
   52MOL   C11025712   6.382   0.797   5.345 -0.4936  0.3222  0.4667
   52MOL   H11125713   6.042   1.419   5.257 -1.0956 -1.9570  0.9359
   52MOL   H11225714   5.925   1.333   5.164 -0.5055  0.0045  4.0815
   52MOL   H11325715   6.198   1.384   5.036  1.3009 -0.4511  2.2061
   52MOL   H11425716   6.254   1.405   5.300  1.3623  0.9623 -1.1439
   52MOL   H11525717   6.364   1.352   5.176 -0.5033  1.1735 -0.5604
   52MOL   H11625718   6.256   1.180   5.401  1.0264  0.0969  2.1098
   52MOL   H11725719   6.413   1.270   5.428 -0.7368 -2.8739  2.6983
   52MOL   H11825720   6.338   1.045   5.229  0.5076  0.6024 -0.6594
   52MOL   H11925721   6.492   1.131   5.213  1.6250  0.8347  1.9657
   52MOL   H12025722   6.572   0.975   5.316  2.0583  0.3891  1.9751
   52MOL   H12125723   6.540   1.086   5.441  2.2990  0.0485 -1.2169
   52MOL   H12225724   6.470   0.873   5.524 -1.1490 -1.9878 -1.1439
   52MOL   H12325725   6.312   0.946   5.479 -1.5202 -2.6135 -0.1613
   52MOL   H12425726   6.381   0.709   5.409  0.1025  0.0054  0.0414
   52MOL   H12525727   6.284   0.791   5.298 -0.3779 -0.9804  0.3803
   52MOL   H12625728   6.465   0.776   5.277  1.1090  0.1435  2.4359
   52MOL   C12725729   6.067   1.223   4.984 -0.0765  0.9018  0.1305
   52MOL   C12825730   6.178   1.155   4.907  0.0741  0.4463 -0.6147
   52MOL   O12925731   6.196   1.243   4.793 -0.1214 -0.1064  0.2588
   52MOL   C13025732   6.333   1.284   4.790 -0.2475  0.6985  0.0997
   52MOL   C13125733   6.361   1.384   4.676  0.0280  0.3709  0.4601
   52MOL   C13225734   6.252   1.495   4.654  0.4614 -0.3657  0.2810
   52MOL   C13325735   6.279   1.572   4.526 -0.2171 -0.2606  0.0962
   52MOL   C13425736   6.197   1.700   4.511 -0.5322 -0.5214  0.8806
   52MOL   C13525737   6.275   1.811   4.579  0.2355 -0.3529  0.5189
   52MOL   H13625738   6.018   1.148   5.046 -0.2358  0.1084 -0.9343
   52MOL   H13725739   5.987   1.258   4.919  1.0082  0.4791 -1.4706
   52MOL   H13825740   6.268   1.140   4.967  0.4066 -3.2765 -1.8805
   52MOL   H13925741   6.397   1.196   4.786 -0.6795  0.3755  0.3902
   52MOL   H14025742   6.369   1.330   4.882  0.6572 -0.1132  0.1683
   52MOL   H14125743   6.367   1.326   4.584 -0.6182  0.3188  0.4521
   52MOL   H14225744   6.456   1.434   4.693  0.6533 -0.5340 -0.3356
   52MOL   H14325745   6.154   1.445   4.656 -0.2090  0.9166 -0.1047
   52MOL   H14425746   6.256   1.566   4.737 -0.6979  2.0966 -1.7255
   52MOL   H14525747   6.387   1.587   4.524 -0.3293  0.4919 -0.3204
   52MOL   H14625748   6.260   1.509   4.439 -1.5108  1.0586 -0.5832
   52MOL   H14725749   6.195   1.733   4.407 -0.7817 -2.2375  0.3401
   52MOL   H14825750   6.102   1.703   4.565  0.0976 -1.5678  2.0605
   52MOL   H14925751   6.331   1.792   4.671 -0.3446 -1.6591  0.6132
   52MOL   H15025752   6.350   1.839   4.505 -0.5186  0.7317  0.1580
   52MOL   H15125753   6.221   1.906   4.583  1.3327  0.2644  1.1068
   52MOL   C15225754   6.151   1.012   4.842  0.2963 -0.0021  0.0727
   52MOL   C15325755   6.143   0.888   4.944  0.4601  0.1961 -0.2073
   52MOL   O15425756   6.009   0.880   5.004  0.1543 -0.9351 -0.2809
   52MOL   C15525757   6.025   0.840   5.143 -0.7257 -0.1125  0.4191
   52MOL   C15625758   5.894   0.844   5.231  1.0806 -0.3219 -0.4972
   52MOL   C15725759   5.797   0.730   5.197 -0.0483 -0.2183 -0.5417
   52MOL   C15825760   5.678   0.719   5.300 -0.3365 -0.6338  0.6840
   52MOL   C15925761   5.594   0.586   5.263  0.7357  0.1747  0.0258
   52MOL   C16025762   5.494   0.616   5.153  0.5067  0.6449 -0.4832
   52MOL   H16125763   6.079   1.020   4.760  2.4465  1.4992 -1.7579
   52MOL   H16225764   6.247   0.999   4.792  0.7009  0.1251  0.8236
   52MOL   H16325765   6.223   0.912   5.015  0.6396 -0.4795 -0.1766
   52MOL   H16425766   6.090   0.909   5.196 -1.2917  1.8186 -1.3599
   52MOL   H16525767   6.080   0.747   5.159 -1.6781 -1.2253 -2.5906
   52MOL   H16625768   5.846   0.939   5.207 -0.2865 -0.9477 -0.2414
   52MOL   H16725769   5.928   0.842   5.334  1.1833 -0.2516 -0.5286
   52MOL   H16825770   5.756   0.750   5.098  0.8321  2.0568 -0.4756
   52MOL   H16925771   5.844   0.632   5.200 -0.3682 -0.3462  2.0760
   52MOL   H17025772   5.713   0.707   5.403 -2.2531 -0.7228  1.3566
   52MOL   H17125773   5.618   0.810   5.308 -0.1617 -0.5451  0.9997
   52MOL   H17225774   5.651   0.502   5.222  0.5509 -0.0079  0.1464
   52MOL   H17325775   5.543   0.555   5.354  0.7755 -0.9174 -0.3103
   52MOL   H17425776   5.440   0.707   5.179 -1.3865 -0.5051 -0.2889
   52MOL   H17525777   5.535   0.622   5.052  2.1195  1.0884  0.1739
   52MOL   H17625778   5.409   0.548   5.145  2.2907 -1.3018 -4.0770
   52MOL   C17725779   6.194   0.752   4.890 -0.0038 -0.1762  1.0783
   52MOL   C17825780   6.092   0.675   4.804 -0.3395  0.2241  0.3369
   52MOL   O17925781   6.150   0.631   4.680  0.0661 -0.3345 -0.4076
   52MOL   C18025782   6.155   0.736   4.585 -0.2346 -0.2948  0.1161
   52MOL   C18125783   6.207   0.664   4.462  0.1159  0.4445  0.3885
   52MOL   C18225784   6.099   0.611   4.370  0.3608  0.3426 -0.3192
   52MOL   C18325785   6.157   0.516   4.265 -0.0510  0.2988  0.7060
   52MOL   C18425786   6.057   0.485   4.154 -0.1470  0.7366 -0.0101
   52MOL   C18525787   6.105   0.390   4.045  0.0971 -0.1230 -0.2043
   52MOL   H18625788   6.291   0.759   4.841 -1.1859 -1.0874 -1.4694
   52MOL   H18725789   6.213   0.694   4.981  2.2333  0.8852  1.3294
   52MOL   H18825790   6.007   0.739   4.782 -0.5936  0.0796  0.8633
   52MOL   H18925791   6.218   0.814   4.628 -1.0446 -0.4434  1.6009
   52MOL   H19025792   6.058   0.784   4.572 -0.6103 -1.4035 -1.3554
   52MOL   H19125793   6.280   0.589   4.493 -0.9724 -0.1769  1.4855
   52MOL   H19225794   6.267   0.741   4.413  2.5559 -2.4991 -1.3504
   52MOL   H19325795   6.020   0.555   4.419  2.9271 -2.5023  0.6936
   52MOL   H19425796   6.058   0.698   4.318 -2.7422 -1.3662 -0.8263
   52MOL   H19525797   6.236   0.573   4.215  0.7445 -0.4113  1.1485
   52MOL   H19625798   6.193   0.426   4.314 -0.0904 -1.1262 -1.7776
   52MOL   H19725799   5.969   0.442   4.203  0.0533 -0.0629 -0.3493
   52MOL   H19825800   6.018   0.573   4.103 -0.3324  0.3440 -0.5534
   52MOL   H19925801   6.165   0.441   3.969 -1.2626  1.1657 -0.4307
   52MOL   H20025802   6.166   0.309   4.085  0.3052  0.1527  0.0317
   52MOL   H20125803   6.017   0.343   4.001  0.0724 -0.3747  0.1174
   52MOL   C20225804   6.040   0.550   4.866  0.1078 -0.3177  0.1621
   52MOL   C20325805   5.912   0.509   4.786 -0.6181 -0.4013 -0.2951
   52MOL   O20425806   5.797   0.561   4.842  0.3355 -0.6045  0.5585
   52MOL   C20525807   5.674   0.600   4.772 -0.4098  0.6385 -0.7573
   52MOL   C20625808   5.693   0.742   4.718  0.6953  0.3101  0.1698
   52MOL   C20725809   5.716   0.850   4.833  0.1181 -0.3252  0.1586
   52MOL   C20825810   5.723   1.004   4.787  0.4716 -0.6082 -0.3464
   52MOL   C20925811   5.586   1.072   4.754 -0.5198 -0.5346  0.5261
   52MOL   C21025812   5.500   1.084   4.874 -0.0284 -0.3525 -0.2412
   52MOL   H21125813   6.115   0.471   4.865  0.3933 -0.0574 -1.7479
   52MOL   H21225814   6.027   0.561   4.974 -2.2406 -0.0267 -0.1143
   52MOL   H21325815   5.926   0.558   4.689 -0.4033 -2.0480 -1.1198
   52MOL   H21425816   5.592   0.587   4.843  0.0727  2.6909  0.2021
   52MOL   H21525817   5.658   0.541   4.682  0.1280  0.0084 -0.4420
   52MOL   H21625818   5.605   0.773   4.662 -0.4297 -2.1149  0.5478
   52MOL   H21725819   5.776   0.749   4.648  0.5757  1.9524  0.1678
   52MOL   H21825820   5.639   0.829   4.908 -0.1088  0.4049  0.1346
   52MOL   H21925821   5.811   0.832   4.884  0.6225 -0.4727 -0.8323
   52MOL   H22025822   5.777   1.056   4.865 -0.6166  2.5802 -1.6497
   52MOL   H22125823   5.785   1.011   4.698 -1.7125  2.7480 -1.6985
   52MOL   H22225824   5.612   1.174   4.727  1.0788 -1.0272  0.1527
   52MOL   H22325825   5.539   1.018   4.671  1.9551 -2.5082  0.3656
   52MOL   H22425826   5.463   0.984   4.897 -0.5002  0.1811  1.3388
   52MOL   H22525827   5.556   1.114   4.962  0.1306 -3.2629  0.6918
   52MOL   H22625828   5.414   1.151   4.863 -2.2553 -2.7203  2.1069
   52MOL   C22725829   5.888   0.358   4.759 -0.1807  0.2627  0.9753
   52MOL   C22825830   5.980   0.290   4.657 -0.3428  0.2386 -1.1256
   52MOL   O22925831   6.111   0.274   4.712 -0.1652  0.2961  0.1821
   52MOL   C23025832   6.220   0.293   4.623  0.4396 -0.8400  0.2140
   52MOL   C23125833   6.358   0.288   4.700 -0.6789  0.1014  1.0780
   52MOL   C23225834   6.482   0.317   4.617 -0.0965  0.7864 -0.1113
   52MOL   C23325835   6.485   0.242   4.481 -1.1852 -0.1971  0.0584
   52MOL   C23425836   6.613   0.285   4.415 -0.5405 -0.4258 -0.0057
   52MOL   C23525837   6.652   0.214   4.284  0.4310  0.3126 -0.4482
   52MOL   H23625838   5.879   0.308   4.856 -1.5069  1.3397  1.4380
   52MOL   H23725839   5.789   0.360   4.713  0.3337 -3.7076 -0.4445
   52MOL   H23825840   5.988   0.357   4.571 -1.3404  1.7238 -0.0796
   52MOL   H23925841   6.200   0.397   4.595 -1.9741 -0.8817  1.6400
   52MOL   H24025842   6.206   0.229   4.536  1.8950 -1.7700  0.6396
   52MOL   H24125843   6.367   0.184   4.731  0.5921 -0.6400 -1.6459
   52MOL   H24225844   6.351   0.351   4.788 -1.0184  1.1441  0.3206
   52MOL   H24325845   6.501   0.424   4.608  0.2455  0.9016  1.6538
   52MOL   H24425846   6.569   0.291   4.677  0.5689 -0.7781 -1.7344
   52MOL   H24525847   6.477   0.133   4.489  1.6142 -0.4235  0.2583
   52MOL   H24625848   6.408   0.278   4.413 -0.0180 -1.7183 -2.1141
   52MOL   H24725849   6.600   0.391   4.393  1.5226 -0.3393 -0.9258
   52MOL   H24825850   6.696   0.269   4.484  0.5337 -1.6916 -1.5603
   52MOL   H24925851   6.750   0.242   4.247  0.6501  1.1751  0.7411
   52MOL   H25025852   6.650   0.106   4.297  0.4554  0.4919  1.1961
   52MOL   H25125853   6.578   0.242   4.209 -0.3017  1.2422  0.5871
   52MOL   C25225854   5.926   0.152   4.620  0.4549 -0.8859  0.1551
   52MOL   C25325855   5.791   0.151   4.531 -0.0713 -0.1185 -0.1172
   52MOL   O25425856   5.765   0.014   4.513  0.2322 -0.1014  0.5726
   52MOL   C25525857   5.676   7.742   4.613  0.0914  0.1805  0.2004
   52MOL   C25625858   5.666   7.592   4.602 -0.2788 -0.3065 -0.6927
   52MOL   C25725859   5.803   7.523   4.605 -0.0933  0.4072  0.3067
   52MOL   C25825860   5.782   7.371   4.579  0.3117  0.0977 -0.2190
   52MOL   C25925861   5.906   7.285   4.578  0.0131  0.4572  0.1048
   52MOL   C26025862   5.865   7.142   4.534  0.1171 -0.7711 -0.0756
   52MOL   H26125863   6.002   0.092   4.571  0.6731  0.3046 -1.0046
   52MOL   H26225864   5.918   0.086   4.706 -2.7881 -0.8623 -0.0359
   52MOL   H26325865   5.704   0.203   4.571 -0.8443 -1.0089 -0.6133
   52MOL   H26425866   5.581   0.009   4.582  1.0521  2.0096 -0.1964
   52MOL   H26525867   5.697   0.002   4.713 -1.0290 -1.1612  0.9607
   52MOL   H26625868   5.608   7.574   4.512 -2.4613  3.7695 -0.2315
   52MOL   H26725869   5.600   7.552   4.679  0.3995 -0.7799 -0.3507
   52MOL   H26825870   5.861   7.555   4.519  1.0451 -3.7442 -0.5862
   52MOL   H26925871   5.863   7.542   4.694 -0.6672 -0.5168  0.9080
   52MOL   H27025872   5.707   7.339   4.651 -0.5294  2.4713 -0.0142
   52MOL   H27125873   5.738   7.358   4.480 -1.6725  0.6921  0.5611
   52MOL   H27225874   5.974   7.323   4.502 -1.1209  0.3422 -0.9826
   52MOL   H27325875   5.956   7.282   4.675  2.0999  0.0288 -0.9652
   52MOL   H27425876   5.808   7.111   4.621 -3.4049 -0.0002 -2.0205
   52MOL   H27525877   5.790   7.148   4.455 -0.4699 -0.1412  0.5365
   52MOL   H27625878   5.952   7.079   4.511  0.2178 -0.8134  0.4248
   52MOL   C27725879   5.814   0.197   4.383  0.3957 -0.7753  0.7053
   52MOL   C27825880   5.680   0.257   4.320 -0.1830  0.5418  0.8791
   52MOL   O27925881   5.712   0.382   4.274 -0.1254  0.1710  0.1127
   52MOL   C28025882   5.685   0.481   4.370  0.1500  0.3746 -0.2413
   52MOL   C28125883   5.715   0.630   4.341  0.0611  0.3918 -0.1710
   52MOL   C28225884   5.653   0.659   4.203 -0.4594 -0.5923 -0.2093
   52MOL   C28325885   5.686   0.799   4.144 -0.4011 -0.0396 -0.2915
   52MOL   C28425886   5.838   0.820   4.126  0.5519  1.1349  0.1249
   52MOL   C28525887   5.858   0.946   4.044 -0.5605 -0.3565 -0.3814
   52MOL   H28625888   5.883   0.282   4.381 -2.0461  1.2815  0.5029
   52MOL   H28725889   5.850   0.118   4.317  0.2426 -0.5806  0.3881
   52MOL   H28825890   5.601   0.255   4.396 -1.9666 -1.0709 -0.9555
   52MOL   H28925891   5.737   0.452   4.461  0.3127  1.0244 -0.1291
   52MOL   H29025892   5.582   0.482   4.405 -0.3019  0.6406 -1.5317
   52MOL   H29125893   5.821   0.653   4.342  0.1770 -0.1587  0.1474
   52MOL   H29225894   5.671   0.691   4.420 -2.2618 -1.6613  0.1834
   52MOL   H29325895   5.681   0.582   4.131  0.8488 -1.2273  0.9490
   52MOL   H29425896   5.546   0.642   4.204 -0.5960  0.2104 -0.1968
   52MOL   H29525897   5.645   0.798   4.043  1.3594 -0.7937 -1.0155
   52MOL   H29625898   5.642   0.884   4.196 -0.4356 -1.8512  2.8176
   52MOL   H29725899   5.884   0.834   4.224 -0.6303  1.1839  0.6776
   52MOL   H29825900   5.891   0.734   4.084 -0.4462  0.8609 -0.6122
   52MOL   H29925901   5.779   0.976   3.976 -0.2160 -1.7416 -1.4170
   52MOL   H30025902   5.881   1.033   4.106  0.7113 -1.5548  0.9023
   52MOL   H30125903   5.938   0.935   3.970  1.5805  1.0703  1.6255
   52MOL   C30225904   5.629   0.167   4.209  0.1779  0.2539  0.2292
   52MOL   C30325905   5.511   0.226   4.125 -0.3592  0.4176  0.3527
   52MOL   O30425906   5.409   0.293   4.205 -0.2365  0.0471 -0.2791
   52MOL   C30525907   5.322   0.384   4.139  0.4198 -0.5644 -0.2398
   52MOL   C30625908   5.189   0.383   4.206 -0.7384  0.3942  0.2003
   52MOL   C30725909   5.134   0.244   4.243 -0.0777 -0.1527 -0.8838
   52MOL   C30825910   5.012   0.266   4.337  0.6531  0.5763 -0.3525
   52MOL   C30925911   4.880   0.312   4.278  0.5570  0.0921  0.5458
   52MOL   C31025912   4.758   0.330   4.379 -0.5936 -0.4403 -0.2074
   52MOL   H31125913   5.715   0.135   4.150 -1.1929 -1.2675 -1.0390
   52MOL   H31225914   5.598   0.077   4.263 -1.9282  1.2694  0.7761
   52MOL   H31325915   5.549   0.313   4.071  1.6235 -1.0919 -0.7208
   52MOL   H31425916   5.325   0.373   4.031  0.3452  0.0558 -0.3083
   52MOL   H31525917   5.365   0.484   4.148 -1.7555  0.4730 -1.0251
   52MOL   H31625918   5.125   0.440   4.138 -2.0344 -0.7705  0.4192
   52MOL   H31725919   5.207   0.443   4.295  0.6260 -0.9554  0.8401
   52MOL   H31825920   5.089   0.192   4.158 -1.5243 -1.2243  0.4954
   52MOL   H31925921   5.213   0.183   4.286  0.8905  0.3299 -1.9552
   52MOL   H32025922   4.997   0.168   4.381 -1.6949  1.3473  0.6480
   52MOL   H32125923   5.039   0.333   4.419  2.8726 -0.9297  0.1630
   52MOL   H32225924   4.894   0.410   4.232 -2.1418 -0.0711 -0.7611
   52MOL   H32325925   4.860   0.239   4.200  1.3836 -0.0359  0.4490
   52MOL   H32425926   4.780   0.387   4.469  0.4245  0.5414 -1.0701
   52MOL   H32525927   4.676   0.379   4.328 -0.0510  1.6125  0.8444
   52MOL   H32625928   4.727   0.228   4.404  0.7874 -0.7044  0.4806
   52MOL   C32725929   5.439   0.119   4.040 -0.0083  0.0865  0.3428
   52MOL   C32825930   5.526   0.087   3.918 -0.2111 -0.4679  0.8076
   52MOL   O32925931   5.634   7.769   3.951  0.3852  0.0914 -0.4152
   52MOL   C33025932   5.738   7.755   3.861 -0.0478 -0.2531 -0.0845
   52MOL   C33125933   5.865   0.030   3.921  0.0882 -0.5388  0.4456
   52MOL   C33225934   5.984   7.772   3.830 -0.3290  0.3050  0.2737
   52MOL   C33325935   6.115   0.061   3.877 -0.1247 -0.4081  0.2235
   52MOL   C33425936   6.231   0.018   3.780  0.1541  1.0103 -0.5200
   52MOL   C33525937   6.364   0.084   3.818 -0.3326 -0.2175 -0.7823
   52MOL   H33625938   5.346   0.167   4.012 -0.6538 -1.0287  0.5380
   52MOL   H33725939   5.424   0.026   4.096  0.4860 -0.7732 -0.9270
   52MOL   H33825940   5.579   0.178   3.893 -0.7393  0.1118  1.7877
   52MOL   H33925941   5.721   0.040   3.774  0.0866  0.2613  0.2613
   52MOL   H34025942   5.754   7.650   3.833  0.6966  0.6064 -3.1167
   52MOL   H34125943   5.876   7.769   4.022  1.8940  0.3685  0.6175
   52MOL   H34225944   5.848   0.137   3.928 -0.5999 -0.6848  1.0667
   52MOL   H34325945   5.999   7.664   3.820  0.0816  0.4167 -0.4129
   52MOL   H34425946   5.966   0.028   3.728 -1.1375 -0.4470  0.1534
   52MOL   H34525947   6.101   0.169   3.877 -2.7611 -0.7219 -1.1941
   52MOL   H34625948   6.118   0.031   3.982  1.6329 -1.3503 -0.0667
   52MOL   H34725949   6.228   7.687   3.782 -0.8976  1.0388 -0.4818
   52MOL   H34825950   6.209   0.046   3.677  1.0806 -0.3976 -1.1190
   52MOL   H34925951   6.339   0.188   3.796 -2.0892 -0.5196 -0.3179
   52MOL   H35025952   6.398   0.073   3.921 -1.9822 -0.0759 -0.2057
   52MOL   H35125953   6.453   0.054   3.763  0.2913  0.3609 -0.0837
   52MOL   C35225954   5.443   0.043   3.792  0.1171 -0.0729  0.1407
   52MOL   C35325955   5.376   7.689   3.806 -0.0814  0.3995  0.4939
   52MOL   O35425956   5.469   7.587   3.774 -1.0064  0.5153  0.1858
   52MOL   C35525957   5.457   7.459   3.843  1.2422 -0.6441 -0.1998
   52MOL   C35625958   5.577   7.370   3.805 -0.7206  0.4234 -0.5260
   52MOL   C35725959   5.543   7.297   3.674  0.6422 -0.1606  0.0387
   52MOL   C35825960   5.652   7.202   3.636 -0.3816 -0.8048  0.2307
   52MOL   C35925961   5.654   7.068   3.714  0.0315 -0.3836 -0.2080
   52MOL   C36025962   5.533   6.985   3.695  0.0453  0.4899 -0.1754
   52MOL   H36125963   5.369   0.120   3.771  1.4874  0.8674 -1.4238
   52MOL   H36225964   5.511   0.052   3.707 -1.0837 -0.9279 -0.9381
   52MOL   H36325965   5.347   7.672   3.909  1.3173  1.5635  1.0995
   52MOL   H36425966   5.356   7.422   3.823  1.0669 -0.9155  1.0953
   52MOL   H36525967   5.459   7.481   3.950 -1.2209 -0.2200 -0.1983
   52MOL   H36625968   5.584   7.291   3.879 -1.6711 -0.8998 -1.8182
   52MOL   H36725969   5.673   7.421   3.812 -0.3279 -0.3417 -0.3700
   52MOL   H36825970   5.443   7.253   3.681  0.8685 -0.4026  1.9024
   52MOL   H36925971   5.534   7.364   3.589 -0.4196  1.5885  1.4804
   52MOL   H37025972   5.644   7.165   3.534 -1.7902  1.0411 -0.3629
   52MOL   H37125973   5.740   7.266   3.646  0.1691 -1.5867  0.4624
   52MOL   H37225974   5.742   7.008   3.691  0.0745 -1.2389  2.0745
   52MOL   H37325975   5.673   7.091   3.819  2.5639  1.4980 -1.0435
   52MOL   H37425976   5.515   6.954   3.592  1.0649 -0.5934 -0.0377
   52MOL   H37525977   5.544   6.899   3.761 -1.6493  0.3441 -0.0454
   52MOL   H37625978   5.447   7.039   3.736 -0.9849  0.1556 -1.8417
   52MOL   C37725979   5.251   7.676   3.715  0.4293  0.4482  0.0528
   52MOL   C37825980   5.256   7.709   3.561 -0.4619 -0.5416 -0.1344
   52MOL   O37925981   5.119   7.700   3.511 -0.0464  0.7210  0.0246
   52MOL   C38025982   5.069   0.044   3.474 -0.3926  0.9981  0.3857
   52MOL   C38125983   4.922   0.025   3.433  0.3497 -0.0908 -0.5890
   52MOL   C38225984   4.898   7.724   3.301  0.4562  0.0130 -0.6145
   52MOL   C38325985   4.967   7.775   3.181 -0.5070 -0.2783 -0.4977
   52MOL   C38425986   4.909   7.710   3.052  0.5204 -0.1575 -0.3884
   52MOL   C38525987   4.927   0.016   2.922 -0.0841  0.2051  0.3327
   52MOL   H38625988   5.225   7.572   3.732  2.7227  0.1797  2.3943
   52MOL   H38725989   5.174   7.736   3.763 -1.2783  0.4277 -2.6040
   52MOL   H38825990   5.299   0.029   3.548  1.0379 -1.1442  0.2293
   52MOL   H38925991   5.130   0.093   3.398  0.2415 -0.5205 -0.1085
   52MOL   H39025992   5.072   0.105   3.564  1.4931 -0.2466  1.2071
   52MOL   H39125993   4.880   0.124   3.417 -2.2483 -0.6063  2.5779
   52MOL   H39225994   4.870   7.768   3.522  1.5635  2.0159  1.0040
   52MOL   H39325995   4.924   7.621   3.326  1.9841  0.8109  1.2127
   52MOL   H39425996   4.790   7.729   3.283  0.5940 -0.5742 -1.6331
   52MOL   H39525997   4.945   0.103   3.177 -2.0674 -0.5619  0.1829
   52MOL   H39625998   5.076   7.778   3.186 -0.4749  0.1323 -1.3125
   52MOL   H39725999   4.963   7.615   3.041  0.0390 -0.6469  1.3797
   52MOL   H39826000   4.805   7.680   3.061 -0.3783  2.4003 -1.7455
   52MOL   H39926001   5.027   0.058   2.919 -0.1596  0.5505  2.4595
   52MOL   H40026002   4.905   7.728   2.837 -2.0938  2.1983 -0.7746
   52MOL   H40126003   4.856   0.098   2.908 -0.7400 -0.0244  2.1773
   52MOL   C40226004   5.330   7.603   3.473  0.4156 -0.2984  0.4078
   52MOL   C40326005   5.304   7.596   3.322 -0.2443  0.6432  0.2606
   52MOL   O40426006   5.329   7.465   3.267 -0.0676  0.3084  0.1096
   52MOL   C40526007   5.231   7.362   3.287 -0.4974  0.0663 -0.0477
   52MOL   C40626008   5.307   7.231   3.324  0.3569  0.0545  0.6909
   52MOL   C40726009   5.396   7.190   3.212 -0.2444 -0.4811  0.3035
   52MOL   C40826010   5.497   7.088   3.270  0.0330  0.1837 -0.1731
   52MOL   C40926011   5.576   7.024   3.158 -0.2785  0.0524  0.1550
   52MOL   C41026012   5.673   6.915   3.183 -0.2674 -0.2974 -0.0865
   52MOL   H41126013   5.306   7.506   3.517 -0.5333 -0.5357 -0.6037
   52MOL   H41226014   5.438   7.600   3.484  0.2532 -0.5339  2.0538
   52MOL   H41326015   5.202   7.623   3.294 -1.0649  0.4581  2.9455
   52MOL   H41426016   5.165   7.351   3.201  0.3311 -0.1843 -0.6519
   52MOL   H41526017   5.156   7.388   3.362 -0.9002  0.0223 -0.4317
   52MOL   H41626018   5.237   7.153   3.355  2.0997 -1.2205  1.4891
   52MOL   H41726019   5.363   7.245   3.416 -1.0170  0.4164  1.4860
   52MOL   H41826020   5.341   7.130   3.139 -0.5261 -0.0801  0.1854
   52MOL   H41926021   5.449   7.267   3.157 -0.5922 -1.1211 -0.9443
   52MOL   H42026022   5.565   7.140   3.337 -1.3847  0.9590  0.6663
   52MOL   H42126023   5.449   7.010   3.328  1.1600  0.2849  0.9092
   52MOL   H42226024   5.515   6.985   3.078  0.3621 -2.0466  0.6553
   52MOL   H42326025   5.639   7.098   3.109  1.1232 -1.7399 -0.8092
   52MOL   H42426026   5.735   6.886   3.098  0.6252  1.1089  0.0745
   52MOL   H42526027   5.739   6.930   3.269  0.8272 -0.5428 -0.8715
   52MOL   H42626028   5.608   6.831   3.210  0.1542 -0.0549  1.7786
   52MOL   C42726029   5.386   7.694   3.234  0.5445 -0.3016  0.6966
   52MOL   C42826030   5.350   7.696   3.078  0.2650  0.2132  0.1264
   52MOL   O42926031   5.410   0.034   3.018 -0.1069  0.1120 -0.0940
   52MOL   C43026032   5.341   0.156   3.029  0.1346 -0.2247 -0.0098
   52MOL   C43126033   5.446   0.271   3.026 -0.5230  0.1740 -0.0745
   52MOL   C43226034   5.379   0.408   3.017 -0.3036  0.8177  0.6301
   52MOL   C43326035   5.481   0.527   3.029  0.0186 -0.2029 -0.4565
   52MOL   C43426036   5.416   0.659   2.997  0.8500 -0.3043  0.4239
   52MOL   C43526037   5.515   0.776   3.013  0.3280  0.4419  0.2755
   52MOL   H43626038   5.356   0.009   3.283 -0.8947 -1.1948  1.5448
   52MOL   H43726039   5.492   7.696   3.258  0.8392  1.6995 -0.6484
   52MOL   H43826040   5.244   7.701   3.051  0.3542  0.3012 -0.2139
   52MOL   H43926041   5.272   0.159   3.113  0.2539  1.1025  0.0518
   52MOL   H44026042   5.282   0.168   2.937  0.5314 -1.0284 -0.3716
   52MOL   H44126043   5.509   0.255   2.938 -2.9698 -2.3803 -1.4483
   52MOL   H44226044   5.501   0.272   3.119 -0.7334  0.7256  0.0454
   52MOL   H44326045   5.323   0.400   2.924  0.0756  0.9848  0.3868
   52MOL   H44426046   5.300   0.410   3.093  0.1719  0.0220  1.1566
   52MOL   H44526047   5.524   0.530   3.129 -0.3416 -3.4879 -0.1282
   52MOL   H44626048   5.563   0.492   2.967  1.2728 -0.8162  1.4981
   52MOL   H44726049   5.383   0.654   2.893  2.6731  2.2415 -0.3030
   52MOL   H44826050   5.329   0.672   3.062  1.1221 -0.4242  0.8122
   52MOL   H44926051   5.558   0.776   3.113  1.5213 -0.5139 -0.2270
   52MOL   H45026052   5.586   0.778   2.930 -0.9018 -1.7762 -0.8695
   52MOL   H45126053   5.462   0.870   2.997 -3.3761 -1.8065 -1.4493
   52MOL   C45226054   5.401   7.570   3.003  0.6276 -0.1192  0.1079
   52MOL   C45326055   5.381   7.563   2.849  0.2130 -0.1306 -0.8619
   52MOL   O45426056   5.257   7.511   2.812  0.6820  0.0250  0.2563
   52MOL   C45526057   5.215   7.532   2.676 -0.1261  0.0757  0.3012
   52MOL   C45626058   5.081   7.455   2.649  0.3784  0.2167  0.1206
   52MOL   C45726059   5.078   7.301   2.645  0.2917  0.3919 -0.2066
   52MOL   C45826060   4.957   7.246   2.559 -0.5293 -0.0141 -0.0847
   52MOL   C45926061   4.818   7.259   2.617 -0.0226 -0.3841 -0.1981
   52MOL   C46026062   4.814   7.188   2.750  0.3953 -0.2033 -0.0042
   52MOL   H46126063   5.506   7.561   3.033  0.0954 -3.4117  1.2419
   52MOL   H46226064   5.348   7.482   3.039 -0.3705  0.4106 -0.0457
   52MOL   H46326065   5.394   7.658   2.797  1.3520  0.1342 -0.0984
   52MOL   H46426066   5.286   7.526   2.594 -1.9635  0.3096 -1.3255
   52MOL   H46526067   5.181   7.636   2.676 -1.6162 -0.3991  1.0879
   52MOL   H46626068   5.072   7.500   2.550 -2.4342 -0.4166  0.0435
   52MOL   H46726069   5.000   7.498   2.709  0.3151  1.3012 -0.7240
   52MOL   H46826070   5.170   7.264   2.600  0.3173 -1.4938  1.3147
   52MOL   H46926071   5.066   7.266   2.747 -1.3244 -0.6537 -0.7281
   52MOL   H47026072   4.961   7.307   2.469 -0.6326  0.7981  0.4537
   52MOL   H47126073   4.971   7.144   2.525 -1.2841  0.0042 -0.4613
   52MOL   H47226074   4.802   7.367   2.622 -1.5838 -0.5926 -0.5751
   52MOL   H47326075   4.737   7.222   2.555 -2.7753  1.3758  2.2463
   52MOL   H47426076   4.884   7.105   2.751 -1.1434 -1.5276 -0.6908
   52MOL   H47526077   4.844   7.256   2.830 -0.3624  2.5729 -1.9990
   52MOL   H47626078   4.714   7.147   2.764  1.3109 -3.5610 -2.5285
   52MOL   C47726079   5.494   7.473   2.792  0.2563  0.1234  0.2025
   52MOL   C47826080   5.495   7.323   2.817  0.4499 -0.7727 -0.2821
   52MOL   O47926081   5.568   7.271   2.704  0.0067  0.4837  0.1250
   52MOL   C48026082   5.593   7.126   2.721 -0.0720  0.8397 -0.0143
   52MOL   C48126083   5.486   7.053   2.643 -0.1927  0.0173  0.3624
   52MOL   C48226084   5.471   7.089   2.498 -0.3874 -0.0323  0.4988
   52MOL   C48326085   5.367   7.005   2.427  0.4569 -0.4156  0.0393
   52MOL   C48426086   5.324   7.072   2.292  0.2805 -0.0906 -0.2350
   52MOL   C48526087   5.212   6.992   2.219  0.3011  0.3148  0.2209
   52MOL   H48626088   5.500   7.485   2.684  0.7167 -0.9541  0.1028
   52MOL   H48726089   5.587   7.516   2.829 -0.4086  0.2428  1.7937
   52MOL   H48826090   5.543   7.302   2.912  3.1627  2.1571 -0.9028
   52MOL   H48926091   5.603   7.099   2.826 -1.6333 -0.8071 -0.2761
   52MOL   H49026092   5.692   7.124   2.676  0.1405 -2.7583  0.5218
   52MOL   H49126093   5.389   7.057   2.695 -0.0781 -2.3898  0.8010
   52MOL   H49226094   5.499   6.948   2.668  1.5381  0.5083  1.6234
   52MOL   H49326095   5.438   7.192   2.507  1.3734  0.7097 -1.1068
   52MOL   H49426096   5.557   7.080   2.432 -1.1149  1.4629 -0.6708
   52MOL   H49526097   5.406   6.905   2.415  0.5586 -0.6696  2.2562
   52MOL   H49626098   5.276   7.000   2.488  1.1530  0.2095  1.1504
   52MOL   H49726099   5.291   7.171   2.322  1.1205 -0.1482  0.9214
   52MOL   H49826100   5.408   7.081   2.223 -0.7070 -2.3608 -1.7965
   52MOL   H49926101   5.113   7.028   2.247  1.1575  2.1488  1.0269
   52MOL   H50026102   5.207   7.002   2.110  3.0229  0.9190  0.1230
   52MOL   H50126103   5.218   6.887   2.244 -3.6070  0.3773  1.8498
   52MOL   H50226104   5.394   7.281   2.815 -0.1279  0.5280  0.8270
   53MOL     C126105   7.776   1.750   4.752 -0.0885  0.3022  0.0006
   53MOL     C226106   7.675   1.676   4.657  0.6866 -0.6333 -0.5179
   53MOL     O326107   7.558   1.639   4.730 -0.6835  0.1959  0.0913
   53MOL     C426108   7.438   1.669   4.663  0.3339 -0.6617 -0.1032
   53MOL     C526109   7.321   1.615   4.748  0.7233 -0.1659  0.8592
   53MOL     C626110   7.188   1.656   4.688 -0.7508 -0.3787  0.0836
   53MOL     C726111   7.078   1.585   4.768 -0.1136  0.5607  0.2284
   53MOL     C826112   7.055   1.610   4.919 -0.1018 -0.2721  0.3086
   53MOL     C926113   6.936   1.531   4.985  0.3417 -0.1794  0.7975
   53MOL    H1026114   0.083   1.789   4.696  0.1017 -0.4405 -0.2326
   53MOL    H1126115   7.741   1.842   4.799  0.4449  0.9115 -0.7715
   53MOL    H1226116   7.651   1.742   4.574 -0.4177  1.5152  1.4675
   53MOL    H1326117   7.453   1.618   4.568  0.8931  1.6982 -1.3142
   53MOL    H1426118   7.432   1.777   4.647 -0.5299 -0.8012 -0.7845
   53MOL    H1526119   7.334   1.639   4.854  2.3479 -1.6894  1.0247
   53MOL    H1626120   7.338   1.507   4.747  0.2813 -0.2413  1.0479
   53MOL    H1726121   7.161   1.761   4.699 -0.4925 -0.1228 -1.5632
   53MOL    H1826122   7.176   1.639   4.581  1.1275  1.0205 -0.3907
   53MOL    H1926123   6.980   1.598   4.722 -1.4582 -1.5851  2.3702
   53MOL    H2026124   7.092   1.478   4.753 -0.0219  0.7500 -1.1150
   53MOL    H2126125   7.049   1.718   4.930  0.0247 -0.3230  0.9168
   53MOL    H2226126   7.152   1.582   4.961  0.1663  0.4756  0.1936
   53MOL    H2326127   6.933   1.539   5.094 -2.9195 -2.7363  0.9325
   53MOL    H2426128   6.842   1.560   4.939  0.0399 -1.6857  0.4716
   53MOL    H2526129   6.954   1.426   4.962 -1.9752 -0.3401 -0.4249
   53MOL    H2626130   0.039   1.676   4.821 -0.7519 -1.2057 -1.1980
   53MOL    C2726131   7.728   1.540   4.600  0.0752  0.1186 -0.2463
   53MOL    C2826132   0.069   1.547   4.511  0.0760  0.1399 -0.1475
   53MOL    O2926133   0.138   1.424   4.521 -0.4184 -0.0067  0.5183
   53MOL    C3026134   0.234   1.414   4.628  0.4021 -0.1163  0.6039
   53MOL    C3126135   0.285   1.270   4.627  0.9516  0.8005 -0.2031
   53MOL    C3226136   0.387   1.236   4.735 -0.2969 -0.5659 -0.0220
   53MOL    C3326137   0.447   1.099   4.712  0.4888 -0.0914 -0.1898
   53MOL    C3426138   0.357   0.981   4.746  0.6172  0.0654  0.7086
   53MOL    C3526139   0.416   0.847   4.718 -0.1844 -0.7015  0.1902
   53MOL    H3626140   7.744   1.475   4.686 -0.9309  0.9486  0.5785
   53MOL    H3726141   7.637   1.501   4.554 -0.5567  3.2134 -1.7457
   53MOL    H3826142   0.129   1.636   4.532 -0.8225  0.7420 -0.1059
   53MOL    H3926143   0.174   1.433   4.717 -3.1344 -0.2623 -1.6243
   53MOL    H4026144   0.310   1.489   4.606  1.1617 -0.7827  0.9626
   53MOL    H4126145   0.329   1.254   4.529  0.0809 -0.3845 -0.4065
   53MOL    H4226146   0.202   1.200   4.637  0.6882  1.0907 -0.3386
   53MOL    H4326147   0.459   1.317   4.726  0.3494 -1.0737  0.5277
   53MOL    H4426148   0.341   1.241   4.833 -2.5628 -2.4658 -0.9303
   53MOL    H4526149   0.481   1.098   4.608  0.3149  0.9301 -0.2614
   53MOL    H4626150   0.527   1.079   4.783  0.2342  1.8697  0.6934
   53MOL    H4726151   0.327   0.986   4.851  0.4844  0.0382  0.6719
   53MOL    H4826152   0.266   0.999   4.689  1.0319  1.9260  0.6096
   53MOL    H4926153   0.342   0.769   4.733  1.4529 -1.9403  2.0129
   53MOL    H5026154   0.458   0.838   4.617  0.8301 -1.2290  0.6547
   53MOL    H5126155   0.499   0.829   4.786 -0.3096  0.0878  0.5593
   53MOL    C5226156   0.019   1.552   4.359 -0.0403 -0.4357 -0.2895
   53MOL    C5326157   0.141   1.557   4.263  0.7241 -0.6031 -0.1182
   53MOL    O5426158   0.082   1.540   4.139  0.1648  0.0158 -0.3501
   53MOL    C5526159   0.097   1.417   4.081 -0.2756 -0.1235  0.0256
   53MOL    C5626160   0.028   1.436   3.943  0.6844  0.4414 -0.2628
   53MOL    C5726161   7.658   1.472   3.953  0.4398  0.2576  0.4955
   53MOL    C5826162   7.620   1.538   3.826 -0.2885 -0.9691  0.3546
   53MOL    C5926163   7.466   1.557   3.801 -0.3077  0.2217  0.5131
   53MOL    C6026164   7.380   1.434   3.777 -0.1296 -0.8712  0.3269
   53MOL    H6126165   7.734   1.641   4.358 -0.3362 -0.6509 -1.3168
   53MOL    H6226166   7.733   1.469   4.333 -0.1711  0.1455 -1.8661
   53MOL    H6326167   0.216   1.486   4.297  0.2932 -1.5675 -1.1560
   53MOL    H6426168   0.038   1.341   4.132  0.2421 -2.0599 -2.1499
   53MOL    H6526169   0.200   1.384   4.078  0.0817  0.7859  1.6536
   53MOL    H6626170   0.055   1.356   3.874 -1.2058  0.1197 -0.6471
   53MOL    H6726171   0.081   1.514   3.888 -1.4693 -0.3034 -3.4662
   53MOL    H6826172   7.602   1.380   3.971 -0.1514  0.6784  0.8338
   53MOL    H6926173   7.630   1.528   4.042 -2.4797 -0.0212 -0.2142
   53MOL    H7026174   7.666   1.637   3.825  1.1597 -1.6335  0.4605
   53MOL    H7126175   7.659   1.487   3.738 -3.4372 -0.5390 -1.3663
   53MOL    H7226176   7.430   1.615   3.885 -0.1485 -0.2741  0.9313
   53MOL    H7326177   7.463   1.608   3.705 -0.1551  0.9561  0.9004
   53MOL    H7426178   7.429   1.360   3.713  1.7087 -0.3305  1.0558
   53MOL    H7526179   7.357   1.398   3.878 -0.0931 -2.3377 -0.1767
   53MOL    H7626180   7.287   1.462   3.730  0.3886  1.1820  0.4708
   53MOL    C7726181   0.192   1.702   4.249 -0.3685  0.2372  0.0589
   53MOL    C7826182   0.302   1.713   4.143 -0.5104 -0.5358 -0.1169
   53MOL    O7926183   0.411   1.650   4.203  0.3939 -0.0602 -0.4142
   53MOL    C8026184   0.503   1.592   4.112  0.1798  0.8964 -0.0498
   53MOL    C8126185   0.646   1.639   4.132 -0.2895 -0.5281  0.7350
   53MOL    C8226186   0.748   1.553   4.051 -0.1912  0.6300 -0.3480
   53MOL    C8326187   0.884   1.625   4.044 -0.4837  0.3086  0.1062
   53MOL    C8426188   0.961   1.642   4.179 -0.4167  0.2448 -0.4234
   53MOL    C8526189   1.036   1.514   4.216  0.3057  0.4894  0.7922
   53MOL    H8626190   0.236   1.722   4.347 -0.1316 -1.0688  0.2315
   53MOL    H8726191   0.113   1.772   4.224 -0.1472  0.2787 -0.5343
   53MOL    H8826192   0.275   1.661   4.051  0.3752 -1.6670  0.2453
   53MOL    H8926193   0.480   1.604   4.006 -2.0565 -1.1319  0.1486
   53MOL    H9026194   0.513   1.484   4.117 -0.7751  0.8513  1.1929
   53MOL    H9126195   0.682   1.634   4.235 -2.7619  0.5106  1.6967
   53MOL    H9226196   0.650   1.739   4.090 -0.0138 -0.3731  1.1304
   53MOL    H9326197   0.751   1.458   4.104  0.2582  0.4512 -0.6940
   53MOL    H9426198   0.718   1.537   3.948 -1.5289  0.6399  0.0281
   53MOL    H9526199   0.944   1.579   3.965  0.3562  0.0386  0.9003
   53MOL    H9626200   0.869   1.724   3.999 -0.3557 -0.3046 -1.3311
   53MOL    H9726201   1.036   1.718   4.158 -1.7710  1.9378  0.7747
   53MOL    H9826202   0.895   1.674   4.260  0.0466  1.4925 -0.5366
   53MOL    H9926203   1.130   1.507   4.162 -0.3856  1.0274 -0.5024
   53MOL   H10026204   1.057   1.521   4.323  1.6815  0.8460  0.5138
   53MOL   H10126205   0.961   1.437   4.199 -0.2931  0.9965  1.1232
   53MOL   C10226206   0.351   1.860   4.116 -0.5962  0.5602 -0.2927
   53MOL   C10326207   0.268   1.939   4.010 -0.4299 -0.1229  0.1241
   53MOL   O10426208   0.132   1.958   4.059 -0.0373 -0.1030 -0.3460
   53MOL   C10526209   0.034   1.966   3.953 -0.5079  0.0848  0.2216
   53MOL   C10626210   7.682   2.004   4.019 -0.3649 -0.0399  0.4134
   53MOL   C10726211   7.625   1.894   4.111  0.2802  0.0898 -0.5110
   53MOL   C10826212   7.486   1.928   4.168 -0.1612  0.2640 -0.1470
   53MOL   C10926213   7.442   1.808   4.245 -0.0655 -1.5525 -0.3596
   53MOL   C11026214   7.334   1.840   4.342  0.0189 -0.2441  0.5800
   53MOL   H11126215   0.367   1.916   4.208  0.8178 -1.1603  0.5316
   53MOL   H11226216   0.451   1.857   4.074  0.0934 -2.9456  1.3853
   53MOL   H11326217   0.272   1.877   3.920  1.7682 -0.1156  0.2005
   53MOL   H11426218   0.040   1.864   3.916  2.9342 -0.3227  1.6934
   53MOL   H11526219   0.069   2.035   3.876 -1.8370  0.2987 -0.1939
   53MOL   H11626220   7.613   2.051   3.949 -0.7309 -1.4777 -0.2072
   53MOL   H11726221   7.710   2.092   4.078  2.1128 -1.1441  0.9744
   53MOL   H11826222   7.622   1.804   4.049  0.0908 -0.0077 -0.3594
   53MOL   H11926223   7.688   1.876   4.197 -0.2108  0.7014 -0.0170
   53MOL   H12026224   7.495   2.020   4.226 -0.9307  0.2998 -0.0828
   53MOL   H12126225   7.418   1.942   4.084 -0.1189 -0.2073 -0.2568
   53MOL   H12226226   7.404   1.729   4.179 -0.2382 -2.1749  0.4791
   53MOL   H12326227   7.517   1.756   4.303  1.5478 -0.3032 -1.2958
   53MOL   H12426228   7.248   1.867   4.280  1.0507 -0.9833 -1.2396
   53MOL   H12526229   7.330   1.741   4.386  2.0835 -2.0702 -3.0857
   53MOL   H12626230   7.358   1.920   4.411  1.2429  0.1963 -0.3281
   53MOL   C12726231   0.316   2.076   3.988  0.3680 -0.4028 -0.5326
   53MOL   C12826232   0.408   2.088   3.866  1.0617  0.0822 -0.1074
   53MOL   O12926233   0.515   1.990   3.868  0.5690  0.0856  0.2469
   53MOL   C13026234   0.544   1.935   3.742 -0.5061 -0.2680  0.5420
   53MOL   C13126235   0.681   1.864   3.759  0.3302 -0.1218 -0.5519
   53MOL   C13226236   0.724   1.806   3.625  0.1977  0.1014  0.2569
   53MOL   C13326237   0.855   1.732   3.626  0.0030 -0.6450  0.2518
   53MOL   C13426238   0.894   1.658   3.495  0.4829  0.3433 -0.3492
   53MOL   C13526239   1.030   1.597   3.496  0.8960  0.4335 -0.5546
   53MOL   H13626240   0.234   2.148   3.982 -1.3500 -2.2787 -0.1041
   53MOL   H13726241   0.377   2.107   4.072 -0.5610  0.6382 -0.2124
   53MOL   H13826242   0.337   2.047   3.793 -1.0132 -0.8563  2.3593
   53MOL   H13926243   0.557   2.004   3.658 -0.0019  1.0653  1.6978
   53MOL   H14026244   0.467   1.861   3.719  0.5082 -1.4574  0.9572
   53MOL   H14126245   0.669   1.792   3.840  0.4482  2.0819  1.4607
   53MOL   H14226246   0.758   1.931   3.796  0.1466  0.0293 -0.4425
   53MOL   H14326247   0.649   1.737   3.583 -0.4385  1.5631 -1.0727
   53MOL   H14426248   0.727   1.890   3.555 -0.8554  0.2638  0.3914
   53MOL   H14526249   0.937   1.791   3.667 -0.6743 -0.8309  1.8848
   53MOL   H14626250   0.846   1.654   3.701 -1.1537 -0.4821  0.2783
   53MOL   H14726251   0.817   1.585   3.472  0.2520  0.7336 -0.8235
   53MOL   H14826252   0.888   1.734   3.417  1.2792  0.2702 -0.4846
   53MOL   H14926253   1.105   1.676   3.500  0.8937  0.4758 -1.2511
   53MOL   H15026254   1.045   1.520   3.572  0.4615  1.7100  0.8462
   53MOL   H15126255   1.049   1.547   3.401  3.4949 -1.6895  0.9836
   53MOL   C15226256   0.452   2.231   3.812  0.5093  0.2148  0.0620
   53MOL   C15326257   0.354   2.314   3.734 -0.1054 -0.2836 -0.5372
   53MOL   O15426258   0.243   2.331   3.826 -0.6800 -0.6977  0.6895
   53MOL   C15526259   0.120   2.374   3.766  0.3825 -0.0663  0.1853
   53MOL   C15626260   0.040   2.459   3.866 -0.1705  0.1397  0.6631
   53MOL   C15726261   7.768   2.380   3.991 -0.3651  0.1364  0.5526
   53MOL   C15826262   7.673   2.475   4.068 -0.5450  0.4570 -0.7043
   53MOL   C15926263   7.603   2.393   4.186 -0.1619  0.1180 -0.6113
   53MOL   C16026264   7.674   2.432   4.315 -0.3061 -0.1382 -0.4172
   53MOL   H16126265   0.493   2.290   3.894  0.7045 -1.4659  1.1982
   53MOL   H16226266   0.540   2.215   3.750  1.1728  0.9136  0.8172
   53MOL   H16326267   0.331   2.253   3.647  1.7438 -1.2426 -0.3703
   53MOL   H16426268   0.062   2.283   3.746  1.1202 -0.5718  0.3361
   53MOL   H16526269   0.130   2.422   3.669  0.9989 -2.0811 -0.7707
   53MOL   H16626270   7.734   2.490   3.804 -1.9572 -2.5584  1.6674
   53MOL   H16726271   0.086   2.553   3.897 -0.9235  1.7385 -2.7902
   53MOL   H16826272   7.724   2.284   3.964  1.5013 -1.0202  1.5499
   53MOL   H16926273   0.077   2.353   4.051  0.0984 -2.9296 -1.4153
   53MOL   H17026274   7.726   2.566   4.096  1.0612 -0.3189 -1.1113
   53MOL   H17126275   7.597   2.507   3.997 -1.2503  2.1948  0.7990
   53MOL   H17226276   7.495   2.409   4.194  0.0094  2.2047 -2.1309
   53MOL   H17326277   7.609   2.287   4.162  1.0185 -0.2051  1.0495
   53MOL   H17426278   7.626   2.380   4.398  1.5576 -0.6689  0.3572
   53MOL   H17526279   7.778   2.402   4.310 -0.1622  0.2813  0.0139
   53MOL   H17626280   7.659   2.538   4.335  1.7217  1.0194 -4.5534
   53MOL   C17726281   0.410   2.447   3.688  0.2195 -0.1576  0.2476
   53MOL   C17826282   0.514   2.460   3.568 -0.0790  0.3652 -0.4323
   53MOL   O17926283   0.454   2.520   3.450 -0.1626  0.2049 -0.0145
   53MOL   C18026284   0.361   2.434   3.392 -0.0505  0.5206 -0.3124
   53MOL   C18126285   0.334   2.482   3.249 -0.5297 -0.5345 -0.0025
   53MOL   C18226286   0.222   2.406   3.177 -0.3363 -0.0992  0.4624
   53MOL   C18326287   0.247   2.256   3.164  0.6642 -0.4351 -0.3233
   53MOL   C18426288   0.136   2.188   3.087 -0.0024  0.2839  0.5938
   53MOL   C18526289   0.166   2.039   3.068 -0.5942  0.9528 -0.3179
   53MOL   H18626290   0.327   2.513   3.662  0.9353  0.5082 -0.3550
   53MOL   H18726291   0.458   2.498   3.771 -0.7793  1.2793 -0.0474
   53MOL   H18826292   0.546   2.361   3.537  1.7614  0.6402  0.4970
   53MOL   H18926293   0.265   2.446   3.442  0.3912 -0.4372  0.7980
   53MOL   H19026294   0.395   2.330   3.391 -1.8003 -0.0793 -2.9161
   53MOL   H19126295   0.425   2.468   3.191 -2.2211  1.5894 -3.3083
   53MOL   H19226296   0.298   2.585   3.251 -0.4368 -0.4836 -0.7423
   53MOL   H19326297   0.126   2.425   3.224  0.2380  1.2835  1.1017
   53MOL   H19426298   0.235   2.441   3.075  0.4378 -1.3077  0.1252
   53MOL   H19526299   0.339   2.230   3.112  0.7209  1.3071 -1.1063
   53MOL   H19626300   0.255   2.200   3.257  2.5226 -1.9138 -1.3237
   53MOL   H19726301   0.041   2.202   3.138 -1.1978 -0.9289 -1.2043
   53MOL   H19826302   0.131   2.241   2.991 -0.0459 -1.4672 -0.4045
   53MOL   H19926303   0.266   2.026   3.026  0.1544 -0.8514  1.9084
   53MOL   H20026304   0.161   1.977   3.158  1.5583 -0.2277 -0.9746
   53MOL   H20126305   0.104   1.990   2.993 -1.8099  3.1238 -0.7831
   53MOL   C20226306   0.640   2.540   3.605  0.4116  0.0490  0.0312
   53MOL   C20326307   0.732   2.485   3.713 -0.1565 -0.5883 -0.0654
   53MOL   O20426308   0.827   2.584   3.753 -0.4681  0.0944  0.6426
   53MOL   C20526309   0.782   2.676   3.852 -0.3229  0.0662  0.2061
   53MOL   C20626310   0.826   2.617   3.990 -0.5827 -0.0779 -0.0956
   53MOL   C20726311   0.973   2.595   4.018 -0.4441  0.3418  0.1668
   53MOL   C20826312   1.010   2.522   4.149 -0.0981 -0.0283 -0.3193
   53MOL   C20926313   1.162   2.500   4.170 -0.3023 -0.4716  0.3309
   53MOL   C21026314   1.208   2.452   4.306  0.3678  1.1099  0.3360
   53MOL   H21126315   0.695   2.560   3.513  2.6109 -2.3986  0.7768
   53MOL   H21226316   0.600   2.633   3.647 -0.1575  0.0516 -0.5133
   53MOL   H21326317   0.676   2.466   3.804 -1.4201  0.4231 -0.6210
   53MOL   H21426318   0.674   2.690   3.854 -0.5725 -1.8628  2.3658
   53MOL   H21526319   0.831   2.769   3.821 -2.9916  1.1162 -1.0891
   53MOL   H21626320   0.770   2.524   4.001  1.6200 -1.2007  2.0069
   53MOL   H21726321   0.793   2.683   4.070  1.3506  2.4660 -1.3201
   53MOL   H21826322   1.026   2.536   3.943 -0.3083  0.1212  0.4331
   53MOL   H21926323   1.021   2.693   4.022  0.1376  0.0388  0.7447
   53MOL   H22026324   0.967   2.567   4.239  0.2097  0.5907 -0.4828
   53MOL   H22126325   0.969   2.421   4.151 -0.3237  0.0723  0.6566
   53MOL   H22226326   1.207   2.436   4.094 -1.8480 -1.2289  0.0327
   53MOL   H22326327   1.215   2.594   4.158 -0.3799 -0.5816 -0.9178
   53MOL   H22426328   1.146   2.363   4.323  1.0947  0.7486  1.1325
   53MOL   H22526329   1.311   2.418   4.308 -0.5902 -2.1347 -0.9488
   53MOL   H22626330   1.190   2.522   4.387 -0.1453  0.3737  0.8704
   53MOL   C22726331   0.806   2.353   3.667  0.0554  0.1407 -0.2563
   53MOL   C22826332   0.889   2.280   3.779 -0.2064 -0.0850  0.5856
   53MOL   O22926333   0.791   2.219   3.856  0.0998 -0.4340 -0.2319
   53MOL   C23026334   0.827   2.222   4.003 -0.0973  0.1537 -0.2008
   53MOL   C23126335   0.771   2.101   4.077 -0.0517  0.1363  0.1837
   53MOL   C23226336   0.792   2.111   4.233 -0.9962  0.1124 -0.2628
   53MOL   C23326337   0.807   1.970   4.293 -0.6233  0.2569 -0.1825
   53MOL   C23426338   0.827   1.955   4.446  0.2149  0.4772 -0.3122
   53MOL   C23526339   0.821   1.817   4.512 -0.2057 -0.1372 -0.0329
   53MOL   H23626340   0.724   2.283   3.655 -0.2639  0.5101 -0.2193
   53MOL   H23726341   0.866   2.355   3.576  1.2423  2.9813  0.5334
   53MOL   H23826342   0.948   2.345   3.842  0.3318 -1.0691  1.1086
   53MOL   H23926343   0.799   2.314   4.053  0.1551 -0.1916  0.5839
   53MOL   H24026344   0.935   2.221   4.021 -0.2564  0.4191  0.7700
   53MOL   H24126345   0.817   2.014   4.031  1.8910  0.1000  2.1196
   53MOL   H24226346   0.664   2.091   4.059 -0.3890  2.4436  0.6993
   53MOL   H24326347   0.888   2.161   4.250 -1.2490  0.9269 -1.1473
   53MOL   H24426348   0.716   2.173   4.281 -1.0928 -0.1893 -0.0306
   53MOL   H24526349   0.720   1.912   4.264 -0.8065  1.0941 -1.2962
   53MOL   H24626350   0.881   1.918   4.232 -1.2150 -0.4546 -0.3058
   53MOL   H24726351   0.917   2.006   4.482 -0.4153 -0.1807  2.2930
   53MOL   H24826352   0.747   2.022   4.479 -0.5621 -1.8953  2.8506
   53MOL   H24926353   0.899   1.751   4.476 -0.0087 -0.7199  1.4226
   53MOL   H25026354   0.825   1.821   4.621  0.6837  1.3018 -0.1000
   53MOL   H25126355   0.723   1.779   4.484  0.3616 -1.7776  0.1475
   53MOL   C25226356   0.970   2.168   3.716 -0.0034 -0.2485 -0.1529
   53MOL   C25326357   1.123   2.207   3.703  0.0722 -0.1662 -0.0111
   53MOL   O25426358   1.197   2.117   3.617  0.0756  0.6801 -0.1508
   53MOL   C25526359   1.184   2.153   3.484 -0.3865 -0.5611 -0.4879
   53MOL   C25626360   1.241   2.035   3.395  0.6013 -0.6627 -0.0256
   53MOL   C25726361   1.390   2.002   3.412 -0.4490  0.5059  0.7562
   53MOL   C25826362   1.451   1.897   3.315 -0.3308 -0.4055 -0.2640
   53MOL   C25926363   1.586   1.846   3.366  0.3756  0.1383  0.2087
   53MOL   C26026364   1.636   1.735   3.273  0.3890 -0.0240 -0.4128
   53MOL   H26126365   0.979   2.079   3.778 -0.1755  1.4490  2.3986
   53MOL   H26226366   0.925   2.139   3.621  0.9166  1.5958 -1.1785
   53MOL   H26326367   1.148   2.307   3.669  1.6673  0.2761  2.3451
   53MOL   H26426368   1.244   2.242   3.464 -0.1952 -1.2237 -2.9876
   53MOL   H26526369   1.079   2.165   3.458 -0.3817  0.5011 -0.0462
   53MOL   H26626370   1.215   2.053   3.291 -0.1956  2.3367  0.6581
   53MOL   H26726371   1.186   1.946   3.427 -0.2871  0.8782  2.8372
   53MOL   H26826372   1.445   2.094   3.392  0.3051 -0.2972 -1.0076
   53MOL   H26926373   1.415   1.987   3.517 -1.9798 -3.0426  0.6761
   53MOL   H27026374   1.376   1.819   3.305 -1.8328  1.2616 -2.5790
   53MOL   H27126375   1.447   1.931   3.212  0.2613  1.6853  0.3683
   53MOL   H27226376   1.657   1.929   3.369 -0.6755  1.2718 -3.7374
   53MOL   H27326377   1.585   1.804   3.467  1.0872 -2.4358 -0.8184
   53MOL   H27426378   1.745   1.727   3.278  0.4388  0.9263  0.0212
   53MOL   H27526379   1.598   1.634   3.289  0.3233 -0.0667 -0.8443
   53MOL   H27626380   1.606   1.747   3.169  1.1759  0.9389 -0.5355
   53MOL   C27726381   1.190   2.188   3.842  0.5924 -0.3720 -0.3362
   53MOL   C27826382   1.334   2.247   3.847  0.1077  0.7519  0.3103
   53MOL   O27926383   1.313   2.390   3.851  0.0239  0.0416 -0.2689
   53MOL   C28026384   1.378   2.467   3.746  0.2521  1.1423 -0.0875
   53MOL   C28126385   1.326   2.614   3.757  0.0537  0.3103 -0.0782
   53MOL   C28226386   1.407   2.683   3.874  0.7930  0.5675 -0.6475
   53MOL   C28326387   1.343   2.817   3.911 -0.2218 -0.3113  0.8882
   53MOL   C28426388   1.433   2.907   3.997 -0.2254 -0.4508 -0.1369
   53MOL   C28526389   1.525   2.998   3.916  0.5688  0.1500  0.0983
   53MOL   H28626390   1.137   2.245   3.918  1.5983  1.3301 -0.8729
   53MOL   H28726391   1.190   2.082   3.869  0.7462 -0.0516  0.9367
   53MOL   H28826392   1.378   2.212   3.754  1.8669  0.3747  1.2642
   53MOL   H28926393   1.350   2.429   3.648  2.5793 -0.6954 -0.0773
   53MOL   H29026394   1.486   2.470   3.754  0.3858 -0.4715 -1.2160
   53MOL   H29126395   1.221   2.603   3.783 -0.3420  3.1141 -0.2402
   53MOL   H29226396   1.347   2.679   3.672  2.1162  1.1826  1.0508
   53MOL   H29326397   1.415   2.615   3.959 -0.5395  1.0017 -0.1666
   53MOL   H29426398   1.509   2.700   3.839  1.0090 -0.9554 -0.7947
   53MOL   H29526399   1.321   2.869   3.817 -1.5053 -2.4429 -0.0216
   53MOL   H29626400   1.248   2.802   3.962  0.3760 -2.1431  1.5043
   53MOL   H29726401   1.368   2.963   4.065 -1.8744 -2.8723  0.3184
   53MOL   H29826402   1.504   2.845   4.051  0.0551 -0.9322 -1.0622
   53MOL   H29926403   1.476   3.085   3.872 -0.6935 -0.4397  0.3095
   53MOL   H30026404   1.603   3.044   3.977  2.0541 -0.1434 -1.5378
   53MOL   H30126405   1.560   2.942   3.830 -0.9558 -2.2450  0.9910
   53MOL   C30226406   1.407   2.200   3.973  0.3659 -0.1534  0.7971
   53MOL   C30326407   1.556   2.206   3.951 -0.1858  0.0335 -0.1614
   53MOL   O30426408   1.586   2.111   3.856 -0.2063 -0.6366 -0.2302
   53MOL   C30526409   1.687   2.126   3.760  0.3629 -0.1415 -0.0876
   53MOL   C30626410   1.711   1.990   3.694 -0.3905  0.8554  0.0701
   53MOL   C30726411   1.779   1.887   3.791 -0.3289 -1.2601  0.0066
   53MOL   C30826412   1.798   1.749   3.736  0.0888 -0.0685 -0.1357
   53MOL   C30926413   1.885   1.663   3.832  0.0676  0.1065  0.4501
   53MOL   C31026414   1.794   1.582   3.922  0.3236  0.6500  0.5886
   53MOL   H31126415   1.377   2.267   4.054  2.9315  0.5896  1.2078
   53MOL   H31226416   1.365   2.105   4.006 -0.4628 -0.3077 -0.6466
   53MOL   H31326417   1.590   2.307   3.926  0.3951  0.4935  2.3665
   53MOL   H31426418   1.778   2.163   3.808 -0.1343 -0.7107  1.3152
   53MOL   H31526419   1.653   2.194   3.681 -2.0285 -0.7139  0.4209
   53MOL   H31626420   1.761   2.005   3.599  0.5481 -2.4910 -0.0263
   53MOL   H31726421   1.608   1.954   3.685  0.0149 -0.6130  1.1088
   53MOL   H31826422   1.879   1.927   3.803 -0.1032 -1.7536 -0.2437
   53MOL   H31926423   1.724   1.885   3.885 -3.5859  1.8918 -1.6688
   53MOL   H32026424   1.701   1.703   3.715  0.6650 -2.0966  1.4629
   53MOL   H32126425   1.858   1.748   3.645 -0.4975 -0.2710 -0.5229
   53MOL   H32226426   1.945   1.598   3.768  0.7270  1.0581  0.0946
   53MOL   H32326427   1.960   1.720   3.886  0.9077  0.3931 -0.9972
   53MOL   H32426428   1.856   1.504   3.967  2.3637  3.4084  2.7354
   53MOL   H32526429   1.735   1.646   3.987 -0.4513  0.5874 -0.0519
   53MOL   H32626430   1.721   1.528   3.862  1.3409  0.2500 -0.3007
   53MOL   C32726431   1.630   2.160   4.076  0.2868  0.2000 -0.1508
   53MOL   C32826432   1.643   2.270   4.188  0.7179 -0.1704 -0.1006
   53MOL   O32926433   1.700   2.205   4.303 -0.4395 -0.0751  0.1969
   53MOL   C33026434   1.595   2.139   4.379 -0.1462 -0.0314 -0.0248
   53MOL   C33126435   1.658   2.024   4.447 -0.5840 -0.2093  0.5248
   53MOL   C33226436   1.703   1.909   4.347  0.3204 -0.5401 -0.0118
   53MOL   C33326437   1.808   1.808   4.401 -0.4307 -0.1995  0.0963
   53MOL   C33426438   1.837   1.686   4.308 -0.3466  0.2027  0.1203
   53MOL   C33526439   1.945   1.588   4.364 -0.0386  0.2637 -0.3042
   53MOL   H33626440   1.728   2.119   4.052  0.7938  0.8091  0.8319
   53MOL   H33726441   1.577   2.068   4.101 -0.8503  0.3452 -1.9495
   53MOL   H33826442   1.549   2.323   4.200  0.6475 -0.5894  1.1933
   53MOL   H33926443   1.511   2.099   4.322 -1.3436  0.4829  1.3330
   53MOL   H34026444   1.551   2.215   4.444  0.9239  1.1502 -0.6486
   53MOL   H34126445   1.583   1.988   4.518  0.6173 -0.6759  1.5806
   53MOL   H34226446   1.745   2.057   4.503  0.6318  0.2278 -1.5705
   53MOL   H34326447   1.610   1.860   4.321 -0.6099  0.4201  1.4247
   53MOL   H34426448   1.737   1.948   4.251 -1.5573  1.7493  0.1994
   53MOL   H34526449   1.893   1.865   4.439 -1.3338  1.1453  0.1019
   53MOL   H34626450   1.773   1.767   4.496  2.8894 -0.0909  1.4298
   53MOL   H34726451   1.751   1.622   4.294  0.4899 -0.4380 -2.3274
   53MOL   H34826452   1.857   1.715   4.205  1.4200  0.8192  0.6079
   53MOL   H34926453   2.044   1.630   4.385 -0.4193  1.3067 -0.5478
   53MOL   H35026454   1.913   1.537   4.455 -1.3313  2.8772  0.7906
   53MOL   H35126455   1.958   1.510   4.289  0.0725 -0.8487  0.8527
   53MOL   C35226456   1.744   2.375   4.139 -0.0307  0.2534  0.4164
   53MOL   C35326457   1.771   2.495   4.227 -0.7762 -0.1911 -0.1718
   53MOL   O35426458   1.648   2.565   4.232  0.0072  0.4259 -0.1423
   53MOL   C35526459   1.609   2.630   4.354 -0.4895  0.3752 -0.4648
   53MOL   C35626460   1.480   2.708   4.323  0.2197 -0.1515 -0.6776
   53MOL   C35726461   1.409   2.754   4.449 -0.0795  0.4005 -0.0690
   53MOL   C35826462   1.494   2.868   4.519 -0.1395 -0.3482 -0.4003
   53MOL   C35926463   1.451   2.901   4.663 -0.2039  0.2101  0.4290
   53MOL   C36026464   1.311   2.962   4.680 -0.0779  0.1436  0.7542
   53MOL   H36126465   1.841   2.326   4.133 -0.1150  0.0122  0.9887
   53MOL   H36226466   1.723   2.405   4.036  1.1196 -0.5357 -0.0642
   53MOL   H36326467   1.808   2.452   4.320 -0.0629 -2.2994 -1.3923
   53MOL   H36426468   1.688   2.702   4.377  0.4358 -1.0508  0.9158
   53MOL   H36526469   1.606   2.556   4.433  0.7870  1.2806  0.4585
   53MOL   H36626470   1.412   2.651   4.260  0.4242 -0.8767 -0.2353
   53MOL   H36726471   1.495   2.802   4.268  1.7578  0.3723  0.5936
   53MOL   H36826472   1.304   2.778   4.429  0.3863  1.6576 -1.1112
   53MOL   H36926473   1.391   2.668   4.512 -1.4978 -0.4494 -1.5845
   53MOL   H37026474   1.598   2.837   4.508 -0.0631  0.0238 -0.7345
   53MOL   H37126475   1.474   2.961   4.464  1.0007 -0.6565 -1.3454
   53MOL   H37226476   1.460   2.815   4.728  1.3260 -0.5086 -0.7163
   53MOL   H37326477   1.527   2.971   4.699  0.5623 -1.1143  1.4260
   53MOL   H37426478   1.244   2.881   4.652 -0.1971 -0.1971  2.0114
   53MOL   H37526479   1.298   2.986   4.786 -0.3828  1.0182  0.5242
   53MOL   H37626480   1.290   3.049   4.618 -0.2091 -0.5427 -0.1729
   53MOL   C37726481   1.881   2.586   4.163 -0.5828 -0.1125 -0.5053
   53MOL   C37826482   1.924   2.704   4.259 -0.5190  0.0617  0.3127
   53MOL   O37926483   2.021   2.782   4.184  0.3547 -0.1958  0.2619
   53MOL   C38026484   1.969   2.887   4.101  0.4535 -0.3217 -0.3355
   53MOL   C38126485   2.094   2.936   4.025 -0.1490 -0.3870 -0.3286
   53MOL   C38226486   2.149   2.832   3.916 -0.0952  0.4861  0.2254
   53MOL   C38326487   2.298   2.839   3.892 -0.3977 -0.4736 -0.1418
   53MOL   C38426488   2.335   2.749   3.766 -0.3755  0.2742 -0.4567
   53MOL   C38526489   2.485   2.757   3.714  0.4006  0.3087 -0.1810
   53MOL   H38626490   1.973   2.539   4.130  0.1272 -0.4981  1.9390
   53MOL   H38726491   1.837   2.646   4.083 -0.7341  1.3342  0.6333
   53MOL   H38826492   1.846   2.777   4.280  0.9632  1.7521  0.0682
   53MOL   H38926493   1.917   2.960   4.163 -1.7952 -2.3577  0.2706
   53MOL   H39026494   1.894   2.853   4.029 -1.2613 -0.1874  1.3452
   53MOL   H39126495   2.161   2.968   4.105 -1.1620  1.2657 -0.1305
   53MOL   H39226496   2.062   3.031   3.982 -0.0702  0.1897  0.8526
   53MOL   H39326497   2.110   2.733   3.943 -1.8084  1.4024  1.1532
   53MOL   H39426498   2.100   2.853   3.821 -3.6797  0.5253  2.0200
   53MOL   H39526499   2.324   2.943   3.876 -2.2842  0.0671  0.1134
   53MOL   H39626500   2.362   2.811   3.975 -0.2017 -0.7624 -0.3849
   53MOL   H39726501   2.310   2.646   3.789  1.1692 -0.1121 -0.4910
   53MOL   H39826502   2.275   2.767   3.676 -1.6270  1.4203  0.5772
   53MOL   H39926503   2.495   2.854   3.666  2.0825  1.3897  2.2887
   53MOL   H40026504   2.557   2.739   3.794  1.0429  1.1425 -0.5696
   53MOL   H40126505   2.504   2.693   3.628  0.9578  0.2119  0.0137
   53MOL   C40226506   1.987   2.673   4.397 -0.1962 -0.0953 -0.2097
   53MOL   C40326507   2.117   2.585   4.398  0.1286 -0.4738  0.0946
   53MOL   O40426508   2.110   2.526   4.530 -0.3126 -0.3473  0.4112
   53MOL   C40526509   2.057   2.397   4.536 -1.0285 -0.4841 -0.0290
   53MOL   C40626510   2.068   2.340   4.678 -0.1687  1.2733  0.9064
   53MOL   C40726511   1.974   2.410   4.779  0.7036 -0.8101 -0.1416
   53MOL   C40826512   1.830   2.413   4.726 -0.8850 -0.4014 -0.0807
   53MOL   C40926513   1.727   2.414   4.837  0.1009  0.6236  0.3486
   53MOL   C41026514   1.598   2.478   4.786  0.0052 -0.3648 -0.0100
   53MOL   H41126515   1.907   2.630   4.458  0.4526 -2.9554 -1.2836
   53MOL   H41226516   2.004   2.767   4.448  1.4811  0.6677 -2.1256
   53MOL   H41326517   2.113   2.505   4.324 -1.9629 -0.9280  0.6755
   53MOL   H41426518   2.123   2.334   4.476  0.6122  1.3734 -0.2260
   53MOL   H41526519   1.954   2.390   4.502 -0.6982  0.1332 -1.1715
   53MOL   H41626520   2.167   2.352   4.722  0.0328  1.5938  0.3663
   53MOL   H41726521   2.046   2.233   4.670  3.4382  0.4817  0.3040
   53MOL   H41826522   1.991   2.351   4.870  2.4590 -1.2390 -0.7354
   53MOL   H41926523   2.004   2.513   4.798 -3.4845  0.4938 -0.0199
   53MOL   H42026524   1.820   2.498   4.659  0.4535 -0.5717 -0.5027
   53MOL   H42126525   1.810   2.322   4.670 -0.6277  0.4850 -1.6313
   53MOL   H42226526   1.705   2.315   4.875 -2.7986  0.4151 -1.7180
   53MOL   H42326527   1.766   2.473   4.920 -1.0312  1.0704  0.5621
   53MOL   H42426528   1.528   2.495   4.868  0.6310 -0.6966  0.6003
   53MOL   H42526529   1.626   2.574   4.742  0.6636 -0.7719 -0.4923
   53MOL   H42626530   1.552   2.415   4.710 -0.5296 -2.4690  1.9896
   53MOL   C42726531   2.245   2.667   4.388 -0.1242 -0.4612 -0.3000
   53MOL   C42826532   2.365   2.581   4.396 -0.1185  0.7972 -0.1783
   53MOL   O42926533   2.357   2.499   4.281  0.4665  0.2539  0.1949
   53MOL   C43026534   2.430   2.371   4.296  0.1972 -0.0667 -0.5687
   53MOL   C43126535   2.406   2.291   4.177 -0.2723 -0.4368 -0.1061
   53MOL   C43226536   2.254   2.247   4.154  0.3510 -0.0055 -0.3896
   53MOL   C43326537   2.248   2.185   4.011  0.2743  0.1550 -0.1144
   53MOL   C43426538   2.101   2.139   3.966 -0.2007 -0.6003  0.0455
   53MOL   C43526539   2.083   2.087   3.831 -0.0020  0.3094  0.2928
   53MOL   H43626540   2.243   2.729   4.299  0.6386  0.2617  0.1861
   53MOL   H43726541   2.241   2.742   4.466  0.1259 -0.4802 -0.2697
   53MOL   H43826542   2.354   2.514   4.481 -1.5500 -1.9084 -2.4291
   53MOL   H43926543   2.394   2.322   4.386  1.7613  1.3055  0.8373
   53MOL   H44026544   2.538   2.383   4.307 -0.2226  2.3916  1.3649
   53MOL   H44126545   2.462   2.199   4.195  0.9788  0.2670 -0.4001
   53MOL   H44226546   2.447   2.339   4.088 -0.0832 -1.6859 -0.7093
   53MOL   H44326547   2.234   2.179   4.236 -0.8550 -0.0718 -0.7180
   53MOL   H44426548   2.185   2.332   4.159  2.1570  1.5399 -0.8901
   53MOL   H44526549   2.281   2.265   3.945 -3.8285  2.8765  0.9485
   53MOL   H44626550   2.315   2.100   4.014  2.7005  2.0423  1.3131
   53MOL   H44726551   2.063   2.069   4.041 -1.3012 -0.4443 -0.3514
   53MOL   H44826552   2.030   2.220   3.978  0.4188 -0.0080 -0.2811
   53MOL   H44926553   2.106   1.981   3.844  1.7139  0.6483  0.0886
   53MOL   H45026554   1.983   2.110   3.793 -0.3983 -0.7086  0.7084
   53MOL   H45126555   2.155   2.132   3.763  1.7432 -0.5540  1.5528
   53MOL   C45226556   2.492   2.661   4.406  0.4344  0.0363 -0.0913
   53MOL   C45326557   2.540   2.696   4.544  0.2264  0.7372 -0.5719
   53MOL   O45426558   2.444   2.782   4.605 -0.4190 -0.1153  0.1361
   53MOL   C45526559   2.444   2.796   4.746 -0.4363 -0.0442  0.5301
   53MOL   C45626560   2.340   2.895   4.809  0.2020 -0.1390  0.2550
   53MOL   C45726561   2.204   2.847   4.759 -0.4771  0.3998 -0.6773
   53MOL   C45826562   2.085   2.917   4.817  0.0098 -0.2515  0.2434
   53MOL   C45926563   1.961   2.837   4.788  0.2724 -0.5963 -0.3054
   53MOL   C46026564   1.837   2.913   4.838 -0.0845  0.0913  0.0346
   53MOL   H46126565   2.570   2.602   4.358 -0.2820  0.4569 -1.8147
   53MOL   H46226566   2.473   2.744   4.337 -1.0736 -1.4546 -1.5003
   53MOL   H46326567   2.572   2.615   4.610  1.5322 -0.1731 -2.2743
   53MOL   H46426568   2.546   2.819   4.779 -0.4363  2.0442 -0.8460
   53MOL   H46526569   2.425   2.700   4.795  0.8206 -0.6875 -0.2149
   53MOL   H46626570   2.372   2.995   4.780 -1.4858  0.7053  1.1611
   53MOL   H46726571   2.344   2.885   4.918 -0.0652  1.1107  0.3931
   53MOL   H46826572   2.199   2.872   4.653 -0.2933  2.0301 -0.3081
   53MOL   H46926573   2.194   2.739   4.767 -3.3593  0.8569  3.5403
   53MOL   H47026574   2.101   2.914   4.925 -1.3802 -0.6741  0.4383
   53MOL   H47126575   2.086   3.023   4.790 -2.3985 -0.5925 -1.3339
   53MOL   H47226576   1.957   2.814   4.682  0.1012  0.7684 -0.6077
   53MOL   H47326577   1.971   2.742   4.841 -0.9841  0.7449  2.4631
   53MOL   H47426578   1.815   3.015   4.806 -4.0474 -0.7786 -0.2689
   53MOL   H47526579   1.742   2.861   4.829  0.8458 -1.0643 -3.8788
   53MOL   H47626580   1.839   2.928   4.946 -2.9324 -1.1567  0.3016
   53MOL   C47726581   2.671   2.778   4.531 -0.1703  0.1757 -0.0769
   53MOL   C47826582   2.787   2.691   4.497 -0.5465  0.5079  0.2165
   53MOL   O47926583   2.908   2.768   4.478  0.2709  0.5007 -0.1138
   53MOL   C48026584   3.026   2.690   4.467  0.2563 -0.0441 -0.8553
   53MOL   C48126585   3.129   2.787   4.420  0.5380  0.4682 -0.2570
   53MOL   C48226586   3.273   2.720   4.424  0.1125 -0.2687  0.3767
   53MOL   C48326587   3.390   2.820   4.422 -0.0339 -0.2061  0.0145
   53MOL   C48426588   3.515   2.752   4.480 -0.6198 -0.1527  0.0074
   53MOL   C48526589   3.627   2.858   4.492  0.0279  0.1048  0.7953
   53MOL   H48626590   2.669   2.858   4.457  1.4831 -0.3397 -0.7096
   53MOL   H48726591   2.701   2.827   4.623  1.4035 -1.2026  0.1629
   53MOL   H48826592   2.806   2.629   4.585 -0.6534 -0.5314 -0.4864
   53MOL   H48926593   3.021   2.607   4.396 -0.3220 -1.5520  0.9011
   53MOL   H49026594   3.056   2.642   4.560  1.8660  0.5320 -1.0570
   53MOL   H49126595   3.131   2.868   4.493 -1.2863 -0.6356  1.0528
   53MOL   H49226596   3.106   2.832   4.323  0.8260  1.3230  0.0672
   53MOL   H49326597   3.286   2.668   4.519  2.8542  0.4088  0.4032
   53MOL   H49426598   3.278   2.646   4.345  0.3456 -0.5140  0.6235
   53MOL   H49526599   3.402   2.856   4.320  0.1964 -3.7479 -1.2737
   53MOL   H49626600   3.370   2.909   4.481  2.8071  0.6227 -0.1847
   53MOL   H49726601   3.510   2.708   4.580 -0.5118  0.5688  0.3314
   53MOL   H49826602   3.535   2.674   4.407 -3.4473 -0.9224 -0.0245
   53MOL   H49926603   3.714   2.800   4.526  0.0487  0.2184  0.9357
   53MOL   H50026604   3.647   2.897   4.393  1.2763 -3.9893 -0.6875
   53MOL   H50126605   3.602   2.937   4.563  0.1183  0.8643 -0.0117
   53MOL   H50226606   2.764   2.628   4.411  1.1608  0.6406 -0.3504
   54MOL     C126607   4.998   3.353   6.618 -0.2783  0.1484 -1.0573
   54MOL     C226608   4.961   3.325   6.768 -0.5162 -0.0729  1.0705
   54MOL     O326609   4.870   3.219   6.777 -0.0716  0.6951 -0.1596
   54MOL     C426610   4.916   3.090   6.733 -0.2889 -0.5443  0.2221
   54MOL     C526611   4.818   2.980   6.773 -0.5120 -0.0844 -0.7589
   54MOL     C626612   4.823   2.943   6.917  0.7228  0.2042 -0.1870
   54MOL     C726613   4.731   2.824   6.941  0.1266 -0.7888  0.3385
   54MOL     C826614   4.706   2.797   7.091 -0.4570  0.1335 -0.1585
   54MOL     C926615   4.583   2.711   7.146 -0.1360 -0.4246 -0.3533
   54MOL    H1026616   5.065   3.439   6.617 -1.6133  1.2073 -0.6864
   54MOL    H1126617   5.054   3.278   6.562  1.4110  0.4401  0.1745
   54MOL    H1226618   5.049   3.295   6.826 -0.6480 -0.3357  1.1400
   54MOL    H1326619   5.018   3.065   6.761  0.0824  1.5451  0.8140
   54MOL    H1426620   4.916   3.085   6.624 -2.4342  0.0975  0.1714
   54MOL    H1526621   4.851   2.886   6.727 -0.2447 -0.3452 -0.0512
   54MOL    H1626622   4.715   2.997   6.742 -0.7523  0.3891  0.2801
   54MOL    H1726623   4.922   2.924   6.957  0.0069  0.5038  1.7721
   54MOL    H1826624   4.781   3.027   6.973  3.0863  0.4172  1.3411
   54MOL    H1926625   4.634   2.829   6.892  0.6648 -0.7807 -0.7533
   54MOL    H2026626   4.779   2.735   6.899  1.0130  0.5544 -1.5420
   54MOL    H2126627   4.704   2.892   7.144  0.1897 -0.4057  0.8669
   54MOL    H2226628   4.799   2.743   7.110 -0.2284  0.7654  0.5526
   54MOL    H2326629   4.486   2.753   7.119 -0.4243  0.5257  2.0381
   54MOL    H2426630   4.591   2.611   7.104  1.3367 -0.2326 -0.5741
   54MOL    H2526631   4.593   2.704   7.255  1.8566  1.4159 -0.3661
   54MOL    H2626632   4.905   3.363   6.562  0.3891  0.2089 -2.1756
   54MOL    C2726633   4.893   3.444   6.823  0.1770 -0.1311 -0.4936
   54MOL    C2826634   4.889   3.444   6.975 -0.4940  1.0026 -0.0934
   54MOL    O2926635   4.847   3.575   6.998 -0.3688  0.0214 -0.6297
   54MOL    C3026636   4.959   3.664   7.017  0.0880  0.0846 -0.3350
   54MOL    C3126637   4.924   3.812   7.029 -0.1542  0.1069 -0.0999
   54MOL    C3226638   4.854   3.838   7.169 -1.0516  0.0886  0.0578
   54MOL    C3326639   4.704   3.828   7.172 -0.1683 -0.3140  0.7908
   54MOL    C3426640   4.652   3.822   7.316 -0.7788 -0.4774 -0.1325
   54MOL    C3526641   4.502   3.810   7.328  0.2702  0.0717  0.6569
   54MOL    H3626642   4.947   3.530   6.785  0.2549  0.5861  1.2029
   54MOL    H3726643   4.791   3.442   6.785  0.2712 -1.6295 -0.7189
   54MOL    H3826644   4.987   3.419   7.015 -1.4303 -1.0497  0.9853
   54MOL    H3926645   5.037   3.658   6.941  2.0965  2.3966  1.4550
   54MOL    H4026646   5.013   3.641   7.108  0.1723 -0.1915 -0.4548
   54MOL    H4126647   4.866   3.842   6.941 -1.4988 -0.8406  0.4425
   54MOL    H4226648   5.015   3.870   7.027 -1.0191  1.5055  0.6298
   54MOL    H4326649   4.886   3.755   7.233  2.8360  0.8597 -0.7484
   54MOL    H4426650   4.885   3.931   7.218 -1.4541 -0.1533  0.7789
   54MOL    H4526651   4.667   3.916   7.120  3.3875  0.1456 -1.1361
   54MOL    H4626652   4.678   3.737   7.119  1.2955 -2.5986  3.7847
   54MOL    H4726653   4.704   3.741   7.367  0.2448 -0.4430 -1.0991
   54MOL    H4826654   4.692   3.910   7.367 -0.0157 -0.0043 -1.5088
   54MOL    H4926655   4.460   3.737   7.259 -1.7972  0.4049  1.5204
   54MOL    H5026656   4.478   3.790   7.432 -0.0905 -0.7944  0.4096
   54MOL    H5126657   4.447   3.904   7.317 -2.3149 -1.6146 -1.6778
   54MOL    C5226658   4.793   3.347   7.047 -0.3066  0.2700  0.3372
   54MOL    C5326659   4.803   3.326   7.199 -0.6107 -0.9063  0.5191
   54MOL    O5426660   4.931   3.284   7.246  0.3155 -0.3442  0.5143
   54MOL    C5526661   4.970   3.160   7.187  0.0450  0.2376  0.3122
   54MOL    C5626662   5.091   3.095   7.256  0.1687 -0.4122  0.0367
   54MOL    C5726663   5.098   2.943   7.242  0.2960 -0.1541 -0.6616
   54MOL    C5826664   5.191   2.876   7.349 -0.2492 -0.0878  0.4020
   54MOL    C5926665   5.199   2.726   7.340 -0.7336  0.8690 -0.1218
   54MOL    C6026666   5.275   2.670   7.459 -0.0648  0.8305  0.8728
   54MOL    H6126667   4.799   3.248   7.002  0.2253  0.2171  0.5275
   54MOL    H6226668   4.693   3.385   7.025 -0.1456  0.7468  0.4196
   54MOL    H6326669   4.720   3.257   7.218 -0.8202 -1.1971 -1.3227
   54MOL    H6426670   4.995   3.167   7.081 -1.0206  3.0225  0.1869
   54MOL    H6526671   4.884   3.096   7.204  0.1606  0.3938  1.5787
   54MOL    H6626672   5.082   3.107   7.364  1.2501 -0.6420  0.1590
   54MOL    H6726673   5.186   3.145   7.236 -0.5377  0.2654 -1.7133
   54MOL    H6826674   5.000   2.898   7.259 -0.0460  0.5596 -0.7450
   54MOL    H6926675   5.120   2.915   7.139  2.2109 -2.0320  0.2212
   54MOL    H7026676   5.296   2.906   7.339  0.0649 -0.3084  2.7666
   54MOL    H7126677   5.162   2.904   7.450 -0.1778 -1.1844  0.7363
   54MOL    H7226678   5.104   2.674   7.331 -0.1882 -0.1982  0.1614
   54MOL    H7326679   5.244   2.703   7.243 -0.3634  0.0807  0.2342
   54MOL    H7426680   5.287   2.563   7.441  1.2382  0.9840  0.7740
   54MOL    H7526681   5.380   2.701   7.456 -0.6824  2.9166 -0.5691
   54MOL    H7626682   5.229   2.685   7.556 -0.2776 -2.3696  1.3049
   54MOL    C7726683   4.748   3.439   7.283 -0.1439 -0.0429  0.4010
   54MOL    C7826684   4.735   3.408   7.435  0.2275  0.1333  0.5028
   54MOL    O7926685   4.615   3.472   7.480  0.3260  0.1671 -0.1824
   54MOL    C8026686   4.567   3.431   7.606  0.1365  1.1783  0.4944
   54MOL    C8126687   4.425   3.485   7.633 -0.1703  0.1594  0.3242
   54MOL    C8226688   4.321   3.448   7.529  0.0101  0.7481 -0.3294
   54MOL    C8326689   4.175   3.517   7.554  0.7072  1.1270 -0.0757
   54MOL    C8426690   4.079   3.431   7.466 -0.1083  0.3210  0.4104
   54MOL    C8526691   3.955   3.520   7.417 -0.1502  0.6952 -0.4253
   54MOL    H8626692   4.655   3.473   7.238 -0.9455 -0.1293  1.9768
   54MOL    H8726693   4.815   3.523   7.260  0.8949 -0.9990 -0.1643
   54MOL    H8826694   4.721   3.301   7.453 -1.4048  0.6436  2.4372
   54MOL    H8926695   4.631   3.454   7.692 -1.2253 -1.3825  2.2457
   54MOL    H9026696   4.562   3.323   7.620  2.2688  0.8158 -1.1620
   54MOL    H9126697   4.428   3.594   7.637 -0.2152  0.1964 -0.6261
   54MOL    H9226698   4.390   3.448   7.729  2.1167 -2.9601  0.0278
   54MOL    H9326699   4.354   3.479   7.430 -2.1013  1.0479 -0.9792
   54MOL    H9426700   4.299   3.341   7.526 -0.3396  0.8682 -2.6975
   54MOL    H9526701   4.135   3.511   7.655  0.0233 -2.0469 -0.4873
   54MOL    H9626702   4.180   3.618   7.514 -2.5690  0.3619 -2.6329
   54MOL    H9726703   4.130   3.377   7.386  0.2222 -0.2605  1.0055
   54MOL    H9826704   4.041   3.350   7.530 -0.9791 -0.7341 -1.4196
   54MOL    H9926705   3.977   3.577   7.327  1.8902  0.8372  0.1389
   54MOL   H10026706   3.864   3.463   7.396 -0.0388  0.2567  0.2761
   54MOL   H10126707   3.909   3.581   7.495  0.3386  1.7849 -0.9856
   54MOL   C10226708   4.865   3.442   7.515 -0.9431  0.0318  0.3397
   54MOL   C10326709   4.952   3.319   7.569  0.0912  0.1018 -0.0785
   54MOL   O10426710   5.067   3.373   7.626  0.3383  0.0086 -0.3759
   54MOL   C10526711   5.182   3.346   7.553 -0.1313 -0.9705 -0.2630
   54MOL   C10626712   5.263   3.233   7.628 -0.7641  0.0008  0.2764
   54MOL   C10726713   5.375   3.179   7.547 -0.3024 -0.5232 -0.4641
   54MOL   C10826714   5.492   3.282   7.546 -0.2128 -0.3566 -0.3746
   54MOL   C10926715   5.581   3.284   7.418 -0.8257 -0.2249 -0.3061
   54MOL   C11026716   5.658   3.153   7.390 -0.7936  0.1922  0.5025
   54MOL   H11126717   4.933   3.503   7.456 -1.5985  0.8549  0.4244
   54MOL   H11226718   4.836   3.511   7.595 -1.0992 -0.0846  0.3839
   54MOL   H11326719   4.979   3.248   7.491 -0.5450  1.1286 -1.2581
   54MOL   H11426720   5.242   3.437   7.549  1.0777 -1.6984  0.5832
   54MOL   H11526721   5.166   3.321   7.448 -2.5903 -2.5650  0.4598
   54MOL   H11626722   5.192   3.151   7.634 -2.2168  1.0445 -1.9705
   54MOL   H11726723   5.298   3.281   7.720  0.0142 -0.4767  0.2367
   54MOL   H11826724   5.401   3.084   7.592  1.6645 -0.8645 -2.2430
   54MOL   H11926725   5.343   3.157   7.445 -2.7962  2.6086 -0.4482
   54MOL   H12026726   5.444   3.379   7.560 -2.1439 -1.0725 -1.8814
   54MOL   H12126727   5.552   3.266   7.636  0.6286  0.2718 -0.8257
   54MOL   H12226728   5.516   3.294   7.330  1.9174  1.6238 -2.1959
   54MOL   H12326729   5.649   3.368   7.414 -0.5272 -0.3704  1.4970
   54MOL   H12426730   5.734   3.173   7.314 -1.0080 -0.4676  0.1118
   54MOL   H12526731   5.712   3.112   7.475  0.7801 -2.2173 -1.5948
   54MOL   H12626732   5.597   3.075   7.344  2.5548 -2.6637  0.6767
   54MOL   C12726733   4.883   3.253   7.694 -0.5761  0.1939 -0.3104
   54MOL   C12826734   4.793   3.127   7.684  0.2051  0.5793 -0.7751
   54MOL   O12926735   4.781   3.078   0.041 -0.0848  0.1822 -0.4018
   54MOL   C13026736   4.677   3.130   0.119  0.7085 -0.1251  0.5773
   54MOL   C13126737   4.638   3.028   0.224 -0.4573  0.5953 -0.6733
   54MOL   C13226738   4.511   3.072   0.309 -0.4557 -0.3231 -0.0213
   54MOL   C13326739   4.531   3.149   0.434  0.1441  0.8376 -0.0272
   54MOL   C13426740   4.604   3.287   0.421 -0.0716  0.1817 -0.0313
   54MOL   C13526741   4.603   3.349   0.562  0.3040 -0.2929  0.2174
   54MOL   H13626742   4.966   3.214   7.752 -0.0197 -0.6979 -1.6755
   54MOL   H13726743   4.845   3.328   7.763  3.8567  1.4060  1.0072
   54MOL   H13826744   4.694   3.145   7.641 -1.2852 -1.7738  1.5702
   54MOL   H13926745   4.589   3.139   0.056  1.3126  0.5133 -0.1882
   54MOL   H14026746   4.718   3.222   0.162  0.2069  0.2948  0.1573
   54MOL   H14126747   4.726   3.007   0.285  0.4355  1.2112 -1.7014
   54MOL   H14226748   4.608   2.933   0.179 -0.8033  0.5512 -0.3399
   54MOL   H14326749   4.441   3.125   0.244  1.8933  1.2646 -1.3172
   54MOL   H14426750   4.452   2.986   0.340 -0.7103  0.0519  0.5355
   54MOL   H14526751   4.438   3.174   0.484  1.0504 -2.6374  3.6177
   54MOL   H14626752   4.589   3.092   0.507  0.4573  0.9647 -0.1751
   54MOL   H14726753   4.709   3.275   0.396 -0.0037 -0.0347  0.3486
   54MOL   H14826754   4.550   3.338   0.341 -0.6632 -1.4795 -0.7193
   54MOL   H14926755   4.662   3.282   0.625  1.2219  1.2895  1.0586
   54MOL   H15026756   4.652   3.446   0.556 -0.3779  0.0568  0.2915
   54MOL   H15126757   4.506   3.370   0.608  0.7764 -1.5715  1.8606
   54MOL   C15226758   4.860   3.008   7.619  1.2547 -0.0287  0.6009
   54MOL   C15326759   4.771   2.883   7.590 -0.1649 -0.3626 -0.0009
   54MOL   O15426760   4.677   2.922   7.486 -0.1090 -0.7097  0.4624
   54MOL   C15526761   4.544   2.889   7.520 -0.6383 -0.6211  0.3251
   54MOL   C15626762   4.453   2.928   7.401 -0.2492 -0.3861  0.0238
   54MOL   C15726763   4.494   3.073   7.361  0.3569  0.1802 -0.0312
   54MOL   C15826764   4.376   3.143   7.286  0.6637 -0.5476 -0.1932
   54MOL   C15926765   4.337   3.069   7.153 -0.2649 -0.7630  0.2348
   54MOL   C16026766   4.206   3.123   7.093  0.2087 -0.0596  0.6783
   54MOL   H16126767   4.887   3.033   7.516 -2.4712  0.3930 -0.3494
   54MOL   H16226768   4.953   2.977   7.666  1.6126 -0.6054 -0.4625
   54MOL   H16326769   4.719   2.863   7.684 -1.9395  0.6275 -0.7422
   54MOL   H16426770   4.506   2.934   7.611 -0.4674 -1.0563  0.6123
   54MOL   H16526771   4.534   2.782   7.538  0.8781 -0.5268  1.9715
   54MOL   H16626772   4.347   2.920   7.424 -0.1298  1.4551  1.3097
   54MOL   H16726773   4.461   2.864   7.313 -2.8165 -3.5455  1.9508
   54MOL   H16826774   4.516   3.127   7.453  0.1603 -0.1782  0.2261
   54MOL   H16926775   4.589   3.070   7.309 -0.8150 -0.9185 -2.1771
   54MOL   H17026776   4.285   3.132   7.345  1.0807  0.1995  0.5995
   54MOL   H17126777   4.395   3.248   7.263 -1.9545 -0.2066 -1.0729
   54MOL   H17226778   4.419   3.090   7.085 -0.0184 -0.4259  0.6361
   54MOL   H17326779   4.333   2.961   7.159 -1.1127 -0.7584 -0.0583
   54MOL   H17426780   4.186   3.229   7.108  1.8016  0.2705  0.5867
   54MOL   H17526781   4.199   3.090   6.989  2.0939 -1.5382  0.9851
   54MOL   H17626782   4.125   3.069   7.142 -1.5206  1.5536 -0.3623
   54MOL   C17726783   4.857   2.757   7.544 -0.5313 -0.5897 -0.6485
   54MOL   C17826784   4.781   2.630   7.552  0.0167 -0.1067  0.4168
   54MOL   O17926785   4.854   2.530   7.485  0.3364 -0.0574 -0.0405
   54MOL   C18026786   4.846   2.511   7.346 -0.4554 -0.0022 -0.4774
   54MOL   C18126787   4.959   2.410   7.299  0.1187 -0.1142  0.3769
   54MOL   C18226788   4.980   2.412   7.151  0.5360 -0.5640 -0.2650
   54MOL   C18326789   5.050   2.284   7.111  0.0058 -0.1864  0.2741
   54MOL   C18426790   5.202   2.279   7.152  0.5449 -0.8230 -0.1978
   54MOL   C18526791   5.269   2.151   7.096  0.9819  0.1673  0.2689
   54MOL   H18626792   4.905   2.780   7.449  0.6795 -0.8674 -0.1166
   54MOL   H18726793   4.944   2.740   7.608 -1.0033 -0.7834 -0.0440
   54MOL   H18826794   4.683   2.639   7.505  0.1589 -1.1929 -0.0924
   54MOL   H18926795   4.875   2.608   7.306  3.0315 -0.6926  0.2262
   54MOL   H19026796   4.743   2.483   7.324  0.2500 -2.3327 -1.0013
   54MOL   H19126797   4.936   2.313   7.343  0.5715 -0.4428 -0.0964
   54MOL   H19226798   5.053   2.439   7.345 -0.0456  0.1836  0.5255
   54MOL   H19326799   4.885   2.422   7.100 -0.7354 -3.1562  1.4598
   54MOL   H19426800   5.042   2.497   7.123 -1.3822  1.2332  0.8054
   54MOL   H19526801   5.005   2.199   7.162 -0.6941 -1.1773 -1.9082
   54MOL   H19626802   5.037   2.257   7.006 -1.6365  0.0713  0.3951
   54MOL   H19726803   5.256   2.362   7.107  5.5407 -2.7106  1.9879
   54MOL   H19826804   5.203   2.289   7.260 -0.7802 -2.8369  0.0225
   54MOL   H19926805   5.242   2.050   7.126  0.8443  0.1409  0.0559
   54MOL   H20026806   5.245   2.160   6.990  0.6056 -0.6910  0.2829
   54MOL   H20126807   5.375   2.159   7.121  1.4301  1.0184 -1.7897
   54MOL   C20226808   4.756   2.579   7.693  0.2077 -0.1172  0.3727
   54MOL   C20326809   4.649   2.473   7.707  0.2663  0.6855  0.2395
   54MOL   O20426810   4.611   2.480   0.066  0.2685 -0.2354 -0.2291
   54MOL   C20526811   4.471   2.518   0.092  0.2667 -0.2167  0.3071
   54MOL   C20626812   4.435   2.515   0.240 -0.3919 -0.0072  0.8013
   54MOL   C20726813   4.485   2.633   0.306  0.0311 -1.0032  0.3822
   54MOL   C20826814   4.471   2.634   0.455  0.1045 -0.1155  0.2752
   54MOL   C20926815   4.544   2.751   0.518 -0.3268 -0.2208 -0.7335
   54MOL   C21026816   4.551   2.752   0.668 -0.1388 -0.1231  0.0035
   54MOL   H21126817   4.849   2.538   7.733  1.2433  1.3647 -0.4628
   54MOL   H21226818   4.727   2.658   7.763 -2.2367 -0.0527 -0.6818
   54MOL   H21326819   4.566   2.493   7.640 -0.1304 -0.5609  0.3379
   54MOL   H21426820   4.404   2.463   0.025 -0.6843  1.1659  0.1076
   54MOL   H21526821   4.474   2.622   0.062 -0.9026 -0.3137 -0.1597
   54MOL   H21626822   4.470   2.423   0.287  0.4175 -0.0248  0.1763
   54MOL   H21726823   4.328   2.521   0.257 -0.6626 -0.8909 -0.5391
   54MOL   H21826824   4.580   2.670   0.268  0.2300 -0.4390  1.4018
   54MOL   H21926825   4.412   2.708   0.277  0.7823  0.4149  2.0624
   54MOL   H22026826   4.364   2.635   0.475 -0.4410 -0.2817 -2.4428
   54MOL   H22126827   4.508   2.541   0.499 -2.4756 -0.2945  2.2530
   54MOL   H22226828   4.642   2.779   0.482  0.4094  0.4263  1.6540
   54MOL   H22326829   4.476   2.831   0.491 -1.4301 -0.9550 -0.2000
   54MOL   H22426830   4.458   2.737   0.723  0.7047  3.8129  2.7081
   54MOL   H22526831   4.619   2.678   0.712  0.9586  1.3232  0.7730
   54MOL   H22626832   4.597   2.839   0.714 -0.1317  0.0463 -0.3257
   54MOL   C22726833   4.707   2.328   7.685 -0.2079 -0.3533  0.4587
   54MOL   C22826834   4.601   2.213   7.671  0.1834 -0.6709  0.1366
   54MOL   O22926835   4.514   2.247   7.556 -0.3886 -0.6012 -0.9587
   54MOL   C23026836   4.377   2.209   7.575  0.5991  0.1859 -1.1096
   54MOL   C23126837   4.294   2.216   7.453 -0.6945  0.1444 -0.6112
   54MOL   C23226838   4.288   2.361   7.402  0.3828  0.1584  1.1858
   54MOL   C23326839   4.190   2.374   7.284  0.4448  0.3768  0.0822
   54MOL   C23426840   4.215   2.487   7.184  0.0456  0.1970  0.2775
   54MOL   C23526841   4.151   2.620   7.232 -0.2736  0.0109  0.1925
   54MOL   H23626842   4.771   2.324   7.597 -0.4394 -2.4842  0.3665
   54MOL   H23726843   4.764   2.305   7.775  0.6109  1.3599  0.3933
   54MOL   H23826844   4.532   2.218   7.756 -1.2413  1.0770 -1.0895
   54MOL   H23926845   4.325   2.273   7.645  2.2827  1.9954 -1.4548
   54MOL   H24026846   4.376   2.103   7.603  1.6102  0.6270  0.6609
   54MOL   H24126847   4.189   2.190   7.468 -0.2380 -0.5431  1.4800
   54MOL   H24226848   4.335   2.156   7.371  1.2810  0.4797  0.1042
   54MOL   H24326849   4.252   2.436   7.472 -0.7015  0.0163  0.8026
   54MOL   H24426850   4.387   2.384   7.365  0.0413 -0.6265 -0.2548
   54MOL   H24526851   4.213   2.296   7.212 -1.4601  0.2443 -0.4232
   54MOL   H24626852   4.083   2.366   7.306  0.3299  0.7622 -0.3231
   54MOL   H24726853   4.323   2.491   7.166  0.1998 -0.2439  1.0831
   54MOL   H24826854   4.179   2.459   7.085  1.8316  1.7630 -0.8676
   54MOL   H24926855   4.207   2.668   7.312  0.7221 -0.0030 -0.4852
   54MOL   H25026856   4.154   2.700   7.157  2.7280  1.3967  1.7017
   54MOL   H25126857   4.046   2.607   7.254 -0.5239  0.9172 -0.4018
   54MOL   C25226858   4.642   2.065   7.660  0.1770  0.3026  0.5927
   54MOL   C25326859   4.590   1.960   7.754  0.7713 -0.2798 -0.6385
   54MOL   O25426860   4.450   1.927   7.746  0.0837  0.1737 -0.2785
   54MOL   C25526861   4.410   1.831   7.647 -0.0490 -0.4331 -0.8871
   54MOL   C25626862   4.259   1.843   7.619  0.4278  0.0934 -0.1620
   54MOL   C25726863   4.225   1.752   7.500 -0.0737 -0.6074  0.0782
   54MOL   C25826864   4.257   1.831   7.371 -0.1893  0.4737  0.5515
   54MOL   C25926865   4.206   1.749   7.253 -0.3120  0.2246  0.2442
   54MOL   C26026866   4.239   1.806   7.116 -0.0188 -0.1962 -0.0171
   54MOL   H26126867   4.621   2.029   7.559 -2.8579  0.6735  1.0565
   54MOL   H26226868   4.751   2.068   7.661  0.2122  1.9878 -2.3699
   54MOL   H26326869   4.640   1.868   7.724 -0.0515 -0.9309 -0.0401
   54MOL   H26426870   4.430   1.733   7.690  0.6007 -0.3332 -0.9659
   54MOL   H26526871   4.477   1.831   7.561  3.5590 -0.7967  1.8353
   54MOL   H26626872   4.234   1.945   7.589 -0.9622 -0.5969 -1.4065
   54MOL   H26726873   4.193   1.826   7.703 -1.9682 -0.6931 -2.1554
   54MOL   H26826874   4.277   1.657   7.489  0.9914 -0.1227  0.8593
   54MOL   H26926875   4.119   1.728   7.513 -0.1034 -1.9011 -2.1967
   54MOL   H27026876   4.212   1.930   7.363  3.1132  2.0840  0.6711
   54MOL   H27126877   4.365   1.848   7.364 -0.0813 -1.1365 -1.8797
   54MOL   H27226878   4.247   1.649   7.260  0.4435  0.7040  3.1120
   54MOL   H27326879   4.097   1.748   7.255 -0.3073  0.5583  0.7667
   54MOL   H27426880   4.168   1.774   7.039 -2.4074  0.0831  2.0017
   54MOL   H27526881   4.232   1.915   7.121  3.1498  0.1371 -1.8613
   54MOL   H27626882   4.339   1.774   7.086 -0.5021  0.8051 -2.7824
   54MOL   C27726883   4.620   1.984   0.122  0.0029  0.2940  0.4145
   54MOL   C27826884   4.774   1.999   0.166  0.3637 -0.1417 -0.8839
   54MOL   O27926885   4.776   2.067   0.298 -1.1802 -0.3622  0.6234
   54MOL   C28026886   4.791   2.206   0.298 -0.3531  0.6397 -0.4987
   54MOL   C28126887   4.803   2.251   0.442  0.2698  0.0536  0.7853
   54MOL   C28226888   4.840   2.394   0.454 -0.4242 -0.2171 -0.4259
   54MOL   C28326889   4.851   2.432   0.603  0.1138 -0.3131  0.5283
   54MOL   C28426890   4.878   2.582   0.630  0.2046 -0.8358 -0.6702
   54MOL   C28526891   4.915   2.622   0.775  0.3099  0.7192  0.0553
   54MOL   H28626892   4.571   2.080   0.138  0.8522  1.1834 -2.0585
   54MOL   H28726893   4.581   1.906   0.187  0.3382  0.4014  0.7464
   54MOL   H28826894   4.827   2.057   0.090  1.4312 -1.1722 -0.9418
   54MOL   H28926895   4.700   2.246   0.253 -0.3300 -0.1466 -1.2671
   54MOL   H29026896   4.873   2.234   0.231 -0.8675  0.7644 -1.0783
   54MOL   H29126897   4.876   2.193   0.500  1.1482  1.3668  1.0159
   54MOL   H29226898   4.707   2.235   0.491  0.4549 -1.1491  0.7815
   54MOL   H29326899   4.935   2.427   0.413  0.7595 -0.6974  1.8022
   54MOL   H29426900   4.757   2.456   0.419 -1.3120 -0.8522  0.5211
   54MOL   H29526901   4.762   2.408   0.660 -0.8617 -1.7742 -1.5264
   54MOL   H29626902   4.929   2.368   0.644  1.3218  0.8926  0.1601
   54MOL   H29726903   4.954   2.615   0.561 -0.3501  1.4490 -0.2354
   54MOL   H29826904   4.797   2.649   0.604  0.0565 -0.3440  0.9906
   54MOL   H29926905   4.896   2.729   0.780 -1.2413  0.6062 -2.7826
   54MOL   H30026906   4.845   2.572   0.843 -0.1258  0.6673 -0.4248
   54MOL   H30126907   5.019   2.600   0.797  0.3778 -1.1228 -1.8974
   54MOL   C30226908   4.843   1.872   0.188  0.0860 -0.0685  0.3372
   54MOL   C30326909   4.993   1.862   0.231  0.0646 -0.6234  0.3517
   54MOL   O30426910   5.046   1.754   0.158  0.5518 -0.3419 -0.1206
   54MOL   C30526911   5.149   1.794   0.072 -0.2238 -0.9763 -0.3115
   54MOL   C30626912   5.228   1.675   0.014 -0.2358  0.2452  0.3332
   54MOL   C30726913   5.138   1.589   7.704 -0.6448  0.7221  0.5994
   54MOL   C30826914   5.212   1.472   7.642  0.8415 -0.8767 -0.5729
   54MOL   C30926915   5.124   1.395   7.547  0.2342  0.2717 -0.3162
   54MOL   C31026916   5.190   1.278   7.477  0.0952  1.0159 -0.4106
   54MOL   H31126917   4.781   1.807   0.250  2.3850 -3.2664 -0.5402
   54MOL   H31226918   4.853   1.832   0.086  0.3502 -1.6057  0.9480
   54MOL   H31326919   5.051   1.951   0.206 -2.9163  0.4821 -3.0135
   54MOL   H31426920   5.216   1.868   0.117 -0.2638  0.1361 -2.0303
   54MOL   H31526921   5.089   1.851   0.001  0.1470 -1.5372 -1.0894
   54MOL   H31626922   5.271   1.621   0.098 -0.4995  1.7304  1.4326
   54MOL   H31726923   5.323   1.708   7.751  0.5016  1.2706  2.7470
   54MOL   H31826924   5.048   1.556   7.756  0.7776 -1.6837  1.6080
   54MOL   H31926925   5.106   1.651   7.620 -0.2786 -0.4733 -0.4441
   54MOL   H32026926   5.295   1.509   7.582  1.9544  0.4729  1.7355
   54MOL   H32126927   5.263   1.414   7.718  0.5061  0.2296  0.5229
   54MOL   H32226928   5.041   1.346   7.597  1.6931 -1.0375  0.8643
   54MOL   H32326929   5.087   1.465   7.472 -0.5038 -1.0307 -1.1954
   54MOL   H32426930   5.266   1.300   7.402  1.3752  0.6399  0.7481
   54MOL   H32526931   5.233   1.201   7.542 -0.7034 -0.4965 -1.6539
   54MOL   H32626932   5.115   1.235   7.411  1.9218  0.9767 -2.5052
   54MOL   C32726933   5.003   1.837   0.382 -0.3404  0.2193 -0.5954
   54MOL   C32826934   5.147   1.841   0.435 -0.1626 -0.6095 -0.1813
   54MOL   O32926935   5.172   1.979   0.428 -0.1051 -0.2819 -0.3432
   54MOL   C33026936   5.301   2.017   0.393 -0.2342  0.3399  0.1623
   54MOL   C33126937   5.304   2.151   0.328  0.4038 -0.1737 -0.1096
   54MOL   C33226938   5.265   2.269   0.414  0.5922  0.8163 -0.2254
   54MOL   C33326939   5.232   2.393   0.332 -0.3483  0.2869 -0.7077
   54MOL   C33426940   5.222   2.521   0.405 -0.1121  0.5810  0.9413
   54MOL   C33526941   5.347   2.603   0.387  0.3447 -0.2919  0.5041
   54MOL   H33626942   4.962   1.737   0.398  0.8887 -0.0172  1.2356
   54MOL   H33726943   4.943   1.909   0.438 -0.3821 -0.6762  0.5255
   54MOL   H33826944   5.210   1.780   0.369 -0.6780 -1.4277  0.0699
   54MOL   H33926945   5.354   1.945   0.331 -0.7302  0.4717 -0.4134
   54MOL   H34026946   5.371   2.011   0.476  1.5132 -2.3728 -1.4498
   54MOL   H34126947   5.248   2.146   0.234 -0.0917  0.4173  0.1532
   54MOL   H34226948   5.408   2.160   0.298  0.5571 -1.7917 -0.1063
   54MOL   H34326949   5.177   2.236   0.469 -1.0435  1.5710 -2.2861
   54MOL   H34426950   5.341   2.296   0.487 -0.7820 -0.4551  1.7319
   54MOL   H34526951   5.303   2.397   0.250  0.0037 -0.6334 -0.4492
   54MOL   H34626952   5.131   2.372   0.295 -1.4129  0.4555  1.9757
   54MOL   H34726953   5.139   2.579   0.366 -0.7200 -0.3754  0.8022
   54MOL   H34826954   5.202   2.499   0.510 -1.0102 -0.2208  0.6078
   54MOL   H34926955   5.339   2.701   0.434  2.1832 -0.8808  2.1494
   54MOL   H35026956   5.426   2.543   0.433  1.6238  0.3467 -0.8106
   54MOL   H35126957   5.383   2.621   0.286 -0.3929 -1.4398  0.0322
   54MOL   C35226958   5.159   1.777   0.576  0.3100  0.1196 -0.2791
   54MOL   C35326959   5.298   1.713   0.611  0.0133 -0.3039 -0.4005
   54MOL   O35426960   5.406   1.804   0.628  0.2186 -0.7702  0.8859
   54MOL   C35526961   5.397   1.902   0.728  0.3624 -0.0582  0.0885
   54MOL   C35626962   5.527   1.983   0.728  0.6467 -0.2036  0.3157
   54MOL   C35726963   5.658   1.897   0.737  0.3559 -0.3610 -0.2030
   54MOL   C35826964   5.791   1.978   0.771 -0.6604 -0.7355  0.8076
   54MOL   C35926965   5.931   1.913   0.731  0.1049 -0.0185  0.7048
   54MOL   C36026966   5.945   1.773   0.774 -0.2482  0.8421  0.0134
   54MOL   H36126967   5.125   1.835   0.661 -0.1179 -2.4658  1.3591
   54MOL   H36226968   5.101   1.685   0.582  0.6527 -0.1345 -0.7884
   54MOL   H36326969   5.281   1.674   0.712 -0.4160  0.0257 -0.3434
   54MOL   H36426970   5.394   1.842   0.819 -1.0868 -0.4787 -0.2220
   54MOL   H36526971   5.309   1.965   0.718  0.4841  0.5598  2.6166
   54MOL   H36626972   5.522   2.053   0.811  0.3443 -2.1058  1.9443
   54MOL   H36726973   5.529   2.045   0.639 -0.6935  0.1891  0.5471
   54MOL   H36826974   5.640   1.822   0.814  2.2064 -1.5191 -0.8523
   54MOL   H36926975   5.664   1.846   0.641  2.3229  0.7957 -0.7289
   54MOL   H37026976   5.782   2.074   0.720  2.1875 -0.1038  1.4098
   54MOL   H37126977   5.795   1.991   0.879  1.8226  1.0425  0.5421
   54MOL   H37226978   5.945   1.930   0.625 -3.5107 -0.3425  0.1081
   54MOL   H37326979   6.008   1.971   0.781  1.2977 -0.8124 -0.1979
   54MOL   H37426980   5.901   1.758   0.873 -3.4725  1.4641 -1.2649
   54MOL   H37526981   5.898   1.698   0.710 -2.4693  1.6228  0.6558
   54MOL   H37626982   6.048   1.740   0.765 -0.0593  1.5930 -0.5531
   54MOL   C37726983   5.345   1.599   0.521  0.0559  0.0932  0.1403
   54MOL   C37826984   5.471   1.517   0.576  0.3626 -0.1198 -0.4760
   54MOL   O37926985   5.512   1.433   0.467 -0.7346 -0.0811  0.5766
   54MOL   C38026986   5.621   1.489   0.399 -0.0954  0.4250 -0.2979
   54MOL   C38126987   5.654   1.412   0.268  0.2307  0.1162  1.0110
   54MOL   C38226988   5.550   1.438   0.155  0.9827  0.2809  0.5923
   54MOL   C38326989   5.574   1.362   0.022 -0.4253  0.0028 -0.0022
   54MOL   C38426990   5.540   1.214   0.033 -0.2122 -0.5220 -0.6695
   54MOL   C38526991   5.576   1.141   7.680  0.0781  0.1680 -0.2271
   54MOL   H38626992   5.260   1.532   0.507  1.6320 -1.7066 -1.0874
   54MOL   H38726993   5.369   1.652   0.429 -0.7847  2.3100  1.1686
   54MOL   H38826994   5.543   1.592   0.609  1.3119 -2.2002  2.4174
   54MOL   H38926995   5.712   1.489   0.459 -1.8308  0.8977  2.3871
   54MOL   H39026996   5.610   1.591   0.362  2.8544  1.0400  0.3857
   54MOL   H39126997   5.660   1.306   0.293  1.6783 -0.6668 -2.3151
   54MOL   H39226998   5.753   1.441   0.232 -0.4881  2.4799  0.8689
   54MOL   H39326999   5.454   1.409   0.197  0.2430  0.7950 -0.7221
   54MOL   H39427000   5.536   1.544   0.137  1.6422 -0.1519 -2.8601
   54MOL   H39527001   5.510   1.413   7.728 -1.2136 -2.5662 -1.1666
   54MOL   H39627002   5.673   1.375   7.757 -0.6744  1.8991 -0.0428
   54MOL   H39727003   5.599   1.163   0.109  0.5131 -0.4949 -1.2130
   54MOL   H39827004   5.438   1.196   0.068 -0.1631  0.7067  0.1364
   54MOL   H39927005   5.558   1.033   7.685  1.4293 -0.1613 -2.1482
   54MOL   H40027006   5.507   1.185   7.607 -0.9955  0.3755  0.8791
   54MOL   H40127007   5.679   1.158   7.653  0.4012 -1.7658 -0.3001
   54MOL   C40227008   5.441   1.427   0.698  0.4261  0.0354 -0.1323
   54MOL   C40327009   5.553   1.326   0.728  0.4741 -0.1082  0.0605
   54MOL   O40427010   5.498   1.197   0.769  0.2168  0.6279  0.4391
   54MOL   C40527011   5.494   1.097   0.660 -0.0718 -0.0403 -0.2539
   54MOL   C40627012   5.374   1.014   0.690 -0.7825  0.0122 -0.4119
   54MOL   C40727013   5.368   0.900   0.588  0.5342  0.4425 -0.7297
   54MOL   C40827014   5.231   0.826   0.596  0.1292 -0.6852  0.1576
   54MOL   C40927015   5.227   0.693   0.515 -0.1743 -1.0169  0.1506
   54MOL   C41027016   5.223   0.562   0.588  0.0807  0.0262  0.7356
   54MOL   H41127017   5.350   1.369   0.681  0.7096 -0.1842 -0.9273
   54MOL   H41227018   5.420   1.491   0.783  0.1544 -0.8944  0.5154
   54MOL   H41327019   5.619   1.307   0.643 -0.3883  0.2970 -0.7061
   54MOL   H41427020   5.591   1.052   0.638  0.1789 -0.6738  1.9540
   54MOL   H41527021   5.470   1.152   0.569  0.5240  2.6223  1.1361
   54MOL   H41627022   5.284   1.071   0.669  0.1386  1.7955  0.3330
   54MOL   H41727023   5.372   0.983   0.794  0.1942  1.4872  0.0628
   54MOL   H41827024   5.380   0.943   0.489 -0.1625  0.7267 -0.6983
   54MOL   H41927025   5.448   0.829   0.609  0.5696  1.0704  1.4221
   54MOL   H42027026   5.208   0.801   0.700 -3.3187  1.0264 -0.0961
   54MOL   H42127027   5.158   0.897   0.555  0.1068  0.0963  1.5256
   54MOL   H42227028   5.140   0.705   0.451 -1.7590 -0.4524  2.3635
   54MOL   H42327029   5.301   0.685   0.435  0.9507  0.6593  0.9769
   54MOL   H42427030   5.130   0.524   0.632  0.6640 -1.5030  0.6958
   54MOL   H42527031   5.240   0.487   0.511  0.8298  1.2916 -0.3437
   54MOL   H42627032   5.298   0.553   0.667 -0.6096 -1.5805  1.2290
   54MOL   C42727033   5.646   1.375   0.841  0.1185  0.2298 -0.1861
   54MOL   C42827034   5.781   1.301   0.837  0.2284 -0.1371 -0.9984
   54MOL   O42927035   5.861   1.346   0.733 -0.1372 -0.1855  0.7972
   54MOL   C43027036   5.986   1.272   0.703 -0.0935  0.6658 -0.2090
   54MOL   C43127037   6.010   1.281   0.554 -0.8378  0.0513 -0.1149
   54MOL   C43227038   6.067   1.417   0.515 -0.5227 -0.7164  0.2445
   54MOL   C43327039   6.071   1.452   0.363  0.2478 -0.2192 -0.4061
   54MOL   C43427040   6.128   1.594   0.335  0.3053 -0.8012 -0.3328
   54MOL   C43527041   6.175   1.603   0.190  0.2913  0.2388 -0.1215
   54MOL   H43627042   5.659   1.483   0.834 -2.0468  0.5943  0.9802
   54MOL   H43727043   5.598   1.354   0.937 -0.0999 -1.1982 -0.5984
   54MOL   H43827044   5.768   1.197   0.809 -0.1247 -0.4117  0.1584
   54MOL   H43927045   5.977   1.166   0.725  2.0418  0.6687  0.7953
   54MOL   H44027046   6.071   1.316   0.755  0.5790 -1.6431  0.7065
   54MOL   H44127047   5.918   1.264   0.499  0.9700  0.3183 -3.3435
   54MOL   H44227048   6.079   1.204   0.519 -2.0316  0.0019 -2.4654
   54MOL   H44327049   5.999   1.489   0.561 -0.9155 -0.9757  0.0801
   54MOL   H44427050   6.168   1.431   0.551 -0.6733  1.4351 -0.0883
   54MOL   H44527051   6.138   1.375   0.325  2.2453  0.7772  1.0119
   54MOL   H44627052   5.974   1.447   0.314  0.2112 -0.2666 -0.3281
   54MOL   H44727053   6.062   1.674   0.367 -1.4286 -2.6692  0.8823
   54MOL   H44827054   6.220   1.611   0.390 -1.3624  2.1091  1.6931
   54MOL   H44927055   6.101   1.590   0.111 -0.7170  0.9815  0.6752
   54MOL   H45027056   6.222   1.696   0.158  1.1663 -0.5185 -1.0508
   54MOL   H45127057   6.258   1.538   0.163  0.2463  0.7673 -1.5861
   54MOL   C45227058   5.855   1.296   0.978 -0.6694 -0.4980 -0.0934
   54MOL   C45327059   5.798   1.193   1.079 -0.0107  0.2118 -0.2377
   54MOL   O45427060   5.861   1.232   1.199  0.5360  0.2353 -0.4223
   54MOL   C45527061   5.776   1.267   1.308 -0.6653  0.2197 -0.4767
   54MOL   C45627062   5.868   1.300   1.430 -1.3979  0.1738 -0.0863
   54MOL   C45727063   5.950   1.422   1.414 -1.2018 -0.2143 -0.4705
   54MOL   C45827064   6.016   1.474   1.542 -0.1500 -0.5677 -0.2561
   54MOL   C45927065   5.928   1.541   1.651 -0.4805 -0.6087 -0.3100
   54MOL   C46027066   6.021   1.581   1.763 -0.4134 -0.6332 -0.5214
   54MOL   H46127067   5.960   1.279   0.954 -0.2453  1.9351 -0.0793
   54MOL   H46227068   5.854   1.394   1.026  1.9391 -0.7563  0.5826
   54MOL   H46327069   5.690   1.205   1.088  0.1494  0.3434  1.7773
   54MOL   H46427070   5.716   1.178   1.328 -1.6826  0.7067 -1.3205
   54MOL   H46527071   5.717   1.357   1.289 -1.9002 -0.6919 -0.9793
   54MOL   H46627072   5.929   1.212   1.449 -0.2336  0.4681 -2.3136
   54MOL   H46727073   5.806   1.326   1.516  0.6883 -0.3520  1.5965
   54MOL   H46827074   6.028   1.375   1.353 -0.2543 -1.3152  1.5292
   54MOL   H46927075   5.899   1.494   1.350 -1.3177  1.1474  1.1421
   54MOL   H47027076   6.085   1.398   1.580 -0.6029 -0.7274  0.2475
   54MOL   H47127077   6.088   1.550   1.510 -1.4500  1.1004  0.7296
   54MOL   H47227078   5.879   1.627   1.605  2.1639  1.2854  0.3271
   54MOL   H47327079   5.855   1.474   1.697  2.1057 -1.0492  3.4443
   54MOL   H47427080   5.946   1.615   1.834  0.2726 -1.0366  0.4114
   54MOL   H47527081   6.073   1.503   1.818  0.1939 -1.6328 -2.4601
   54MOL   H47627082   6.088   1.665   1.743  1.6167 -1.7177  1.3933
   54MOL   C47727083   5.833   1.046   1.056  0.1019 -0.3021 -0.6856
   54MOL   C47827084   5.744   0.961   0.959  0.5210  0.9339 -0.7084
   54MOL   O47927085   5.771   0.825   0.980 -0.5873 -0.0882  0.2449
   54MOL   C48027086   5.699   0.746   0.887  0.6489  0.4316 -0.8733
   54MOL   C48127087   5.669   0.620   0.966  0.0161 -0.0920  0.2339
   54MOL   C48227088   5.547   0.626   1.063 -0.3397  0.4687 -0.1596
   54MOL   C48327089   5.529   0.501   1.144 -0.0001  0.9979 -0.7098
   54MOL   C48427090   5.621   0.480   1.269  0.1140  0.1703 -0.4377
   54MOL   C48527091   5.593   0.367   1.374  0.3087  0.3128 -0.6805
   54MOL   H48627092   5.935   1.048   1.017  1.0842  0.5419  1.8671
   54MOL   H48727093   5.830   1.012   1.159  0.6780 -0.7555 -0.8143
   54MOL   H48827094   5.642   0.988   0.987  1.5205  3.3535  0.7564
   54MOL   H48927095   5.756   0.723   0.797 -1.0184 -1.6419 -1.4417
   54MOL   H49027096   5.609   0.798   0.853 -0.2472 -1.7044 -1.9007
   54MOL   H49127097   5.752   0.586   1.029  0.3344  0.1531 -0.0484
   54MOL   H49227098   5.643   0.538   0.899  0.2518  0.3061 -0.3469
   54MOL   H49327099   5.548   0.715   1.127 -1.3919  0.5354 -0.2224
   54MOL   H49427100   5.459   0.640   1.000  0.0913  4.0980 -0.0936
   54MOL   H49527101   5.426   0.511   1.179 -0.2573  0.6841 -1.3721
   54MOL   H49627102   5.538   0.412   1.082  2.8275  0.6931  0.0479
   54MOL   H49727103   5.723   0.453   1.243  0.9857 -1.1945  3.9958
   54MOL   H49827104   5.614   0.574   1.325  0.0763 -1.8077  2.9667
   54MOL   H49927105   5.626   0.268   1.345  0.0020 -0.0937  0.3252
   54MOL   H50027106   5.646   0.403   1.463  1.3056 -2.4670 -0.1011
   54MOL   H50127107   5.489   0.357   1.406  1.2029 -1.2706  1.9389
   54MOL   H50227108   5.762   0.989   0.855  0.5027  1.3411 -0.6024
   55MOL     C127109   1.162   4.456   6.645 -0.1592 -0.4228  0.5672
   55MOL     C227110   1.161   4.434   6.799  0.3899  0.2874 -0.1947
   55MOL     O327111   1.279   4.367   6.835  0.5181 -0.1636  0.4733
   55MOL     C427112   1.394   4.444   6.857  0.4131  0.7773  0.3162
   55MOL     C527113   1.403   4.469   7.003 -0.5647 -0.6673  0.5298
   55MOL     C627114   1.532   4.547   7.045 -0.0680  0.4700 -1.0974
   55MOL     C727115   1.561   4.574   7.199  0.1555 -0.0124  0.2252
   55MOL     C827116   1.683   4.656   7.233  0.3768  0.2113 -0.1095
   55MOL     C927117   1.677   4.806   7.230 -0.1805  0.8570 -0.4679
   55MOL    H1027118   1.154   4.365   6.585 -0.2899 -0.5335  0.7538
   55MOL    H1127119   1.081   4.527   6.628  1.4249  1.2414 -0.2093
   55MOL    H1227120   1.151   4.531   6.847  2.1186  0.9549 -1.1466
   55MOL    H1327121   1.400   4.539   6.804 -0.8507  0.8114  0.2293
   55MOL    H1427122   1.477   4.383   6.821 -0.3163  0.6416 -1.2033
   55MOL    H1527123   1.390   4.377   7.059 -1.1809 -0.8973  0.0149
   55MOL    H1627124   1.315   4.515   7.048  0.1192  0.4933  0.6935
   55MOL    H1727125   1.622   4.497   7.009  1.3564  1.3106  1.2194
   55MOL    H1827126   1.524   4.645   6.998  2.3153  0.8936 -0.6714
   55MOL    H1927127   1.475   4.623   7.244  0.3819 -0.5528  1.2656
   55MOL    H2027128   1.558   4.477   7.248 -1.2422  0.1717  0.5439
   55MOL    H2127129   1.761   4.620   7.167 -1.2161 -0.8813 -1.4347
   55MOL    H2227130   1.728   4.636   7.330 -0.0076 -0.7803 -0.1305
   55MOL    H2327131   1.594   4.843   7.291  0.7256  1.1935  0.5659
   55MOL    H2427132   1.767   4.847   7.276 -0.1480 -0.3528  0.5796
   55MOL    H2527133   1.671   4.846   7.129  0.2986  0.4932 -0.6416
   55MOL    H2627134   1.260   4.501   6.625  0.7640 -2.7055 -0.3106
   55MOL    C2727135   1.043   4.350   6.842  0.4079 -0.3665  0.9772
   55MOL    C2827136   1.016   4.317   6.989 -0.0914 -0.1541 -0.0910
   55MOL    O2927137   0.958   4.433   7.041  0.1751 -0.2552 -0.2216
   55MOL    C3027138   1.005   4.464   7.176 -0.5226  0.2405  0.0873
   55MOL    C3127139   0.881   4.533   7.235 -0.0392  0.0643  0.5926
   55MOL    C3227140   0.749   4.455   7.239 -0.6248  0.5117  0.4057
   55MOL    C3327141   0.646   4.506   7.333  0.0072 -0.0600  0.0503
   55MOL    C3427142   0.623   4.660   7.341 -0.1279  0.3521 -0.5306
   55MOL    C3527143   0.534   4.713   7.227 -0.0500  0.3256  0.5196
   55MOL    H3627144   0.954   4.400   6.804  1.0119 -0.5829 -0.7992
   55MOL    H3727145   1.056   4.261   6.780 -2.1013  0.1758 -0.4050
   55MOL    H3827146   1.113   4.298   7.034  0.3839 -0.8918 -1.3951
   55MOL    H3927147   1.082   4.540   7.160 -0.3296 -0.0012 -0.1302
   55MOL    H4027148   1.034   4.379   7.238 -0.5345  1.1022  1.2949
   55MOL    H4127149   0.861   4.626   7.180 -1.6487  0.4916  1.8632
   55MOL    H4227150   0.917   4.564   7.333  1.0242  1.2360 -0.1436
   55MOL    H4327151   0.704   4.446   7.140  0.9238  0.3628 -0.2916
   55MOL    H4427152   0.780   4.356   7.270  0.1183  0.3318 -0.8687
   55MOL    H4527153   0.554   4.448   7.339 -0.3406  0.4422 -0.3963
   55MOL    H4627154   0.695   4.471   7.424 -0.5308 -1.3840 -0.1625
   55MOL    H4727155   0.573   4.682   7.435  0.7213  2.4515 -0.5413
   55MOL    H4827156   0.718   4.713   7.343  0.3767 -0.5521 -0.1187
   55MOL    H4927157   0.535   4.821   7.211 -4.2352  0.2313 -0.8286
   55MOL    H5027158   0.571   4.671   7.134 -2.2033 -0.6021  0.0565
   55MOL    H5127159   0.434   4.672   7.239  0.0639 -0.0052  0.3501
   55MOL    C5227160   0.927   4.194   7.015 -0.3303  0.6260  0.1155
   55MOL    C5327161   0.985   4.049   6.979  0.0852  0.6182  0.4998
   55MOL    O5427162   1.074   4.025   7.089 -0.1328 -0.4897 -0.4990
   55MOL    C5527163   1.185   3.934   7.082  0.4532  0.0092 -0.5592
   55MOL    C5627164   1.253   3.899   7.224  0.4984  0.1524  0.0264
   55MOL    C5727165   1.162   3.799   7.308 -0.2733  0.3451  0.2161
   55MOL    C5827166   1.247   3.712   7.404 -0.7007  0.4424  0.1988
   55MOL    C5927167   1.168   3.625   7.509 -0.3076  0.6678  0.5217
   55MOL    C6027168   1.100   3.508   7.437 -0.4026 -0.1889 -0.0309
   55MOL    H6127169   0.836   4.194   6.956  1.6223  1.7697 -3.0243
   55MOL    H6227170   0.907   4.196   7.122 -3.2028  1.4266 -0.3854
   55MOL    H6327171   1.048   4.055   6.890 -0.4788  0.0576  0.0622
   55MOL    H6427172   1.257   3.986   7.019  2.1523  0.7692  1.9374
   55MOL    H6527173   1.161   3.841   7.031  2.9389 -0.0759 -1.6209
   55MOL    H6627174   1.275   3.991   7.279 -0.9876 -0.1738  1.2052
   55MOL    H6727175   1.347   3.855   7.192  1.5125 -0.0559  3.1310
   55MOL    H6827176   1.088   3.855   7.364  0.7656  2.3570 -0.3584
   55MOL    H6927177   1.099   3.729   7.253 -1.4250  0.3034  1.5699
   55MOL    H7027178   1.313   3.642   7.354  0.9805  0.6028  2.1282
   55MOL    H7127179   1.315   3.772   7.465  1.1095 -1.2923 -0.0918
   55MOL    H7227180   1.232   3.575   7.580 -1.4991 -1.1019  0.3653
   55MOL    H7327181   1.094   3.677   7.571 -2.3997  0.1661 -1.4671
   55MOL    H7427182   1.040   3.445   7.504  2.8467  0.2781  3.5014
   55MOL    H7527183   1.029   3.541   7.362 -1.7655 -0.0506  1.3112
   55MOL    H7627184   1.168   3.440   7.385  2.6288  2.1387  0.7742
   55MOL    C7727185   0.875   3.943   6.980 -0.5583 -0.1309  0.0958
   55MOL    C7827186   0.789   3.948   6.856 -0.1948 -0.1729  0.0237
   55MOL    O7927187   0.649   3.923   6.888 -0.2333  0.2358 -0.3605
   55MOL    C8027188   0.563   4.029   6.898  0.8724 -0.8927 -0.0053
   55MOL    C8127189   0.428   3.988   6.950 -0.3427  0.4357 -0.1616
   55MOL    C8227190   0.360   3.885   6.862 -0.0243  0.2690  0.3275
   55MOL    C8327191   0.221   3.849   6.907 -0.2732  0.1612  0.0331
   55MOL    C8427192   0.154   3.736   6.830  0.1388  0.1134  0.7483
   55MOL    C8527193   0.095   3.788   6.694  0.0317 -0.1458  0.2134
   55MOL    H8627194   0.823   3.935   7.076 -2.6855  0.3025 -0.9852
   55MOL    H8727195   0.926   3.847   6.991  0.6298  0.6606  1.7229
   55MOL    H8827196   0.802   4.042   6.804 -2.4858 -0.3909 -1.0245
   55MOL    H8927197   0.558   4.062   6.794  1.0571 -1.2530 -0.1258
   55MOL    H9027198   0.585   4.114   6.963 -2.0093  0.1311 -0.2948
   55MOL    H9127199   0.362   4.075   6.947  0.4527  1.0269 -0.6640
   55MOL    H9227200   0.433   3.941   7.048 -1.9457 -1.6691 -1.0582
   55MOL    H9327201   0.370   3.917   6.758 -1.1817  1.6744  0.6218
   55MOL    H9427202   0.421   3.795   6.865 -1.8607 -1.1712 -3.1238
   55MOL    H9527203   0.230   3.804   7.006  1.4894 -1.0878 -0.6755
   55MOL    H9627204   0.153   3.933   6.915 -0.5914  0.0441 -1.4338
   55MOL    H9727205   0.233   3.665   6.806 -0.8231  0.0468 -2.5611
   55MOL    H9827206   0.078   3.691   6.893  1.2194 -2.5847  0.1672
   55MOL    H9927207   0.169   3.846   6.640 -0.7089  1.4300  0.8672
   55MOL   H10027208   0.067   3.704   6.631  1.6720  0.1401 -0.9498
   55MOL   H10127209   0.015   3.861   6.707  0.3910  0.8383 -2.7758
   55MOL   C10227210   0.840   3.850   6.745  0.5077 -0.1643  1.0352
   55MOL   C10327211   0.756   3.871   6.614  0.3050  0.4451  0.6847
   55MOL   O10427212   0.835   3.869   6.492  0.1953  0.0391  0.0631
   55MOL   C10527213   0.906   3.754   6.460  0.2446 -0.0529 -0.5569
   55MOL   C10627214   0.887   3.755   6.301  0.4403  0.5325 -0.2832
   55MOL   C10727215   0.973   3.642   6.240 -0.2905  0.3679  0.6024
   55MOL   C10827216   0.992   3.662   6.081  0.8991 -0.5874  0.1505
   55MOL   C10927217   1.072   3.550   6.010 -0.0541  0.2887 -0.0346
   55MOL   C11027218   1.087   3.568   5.859 -0.3333  0.3143 -0.4488
   55MOL   H11127219   0.946   3.871   6.727 -0.0585  1.0103 -1.1441
   55MOL   H11227220   0.827   3.744   6.769 -1.5923 -0.0212  0.6362
   55MOL   H11327221   0.719   3.972   6.598 -3.1635 -0.5231  1.9648
   55MOL   H11427222   0.874   3.659   6.501  0.6259  0.3770  0.7563
   55MOL   H11527223   1.013   3.766   6.478  0.1999 -1.1287  0.4743
   55MOL   H11627224   0.929   3.850   6.266  1.0681  1.3563  2.5894
   55MOL   H11727225   0.781   3.745   6.282 -0.4077  3.8682  2.1661
   55MOL   H11827226   1.070   3.652   6.290  0.4145 -1.0863 -0.4200
   55MOL   H11927227   0.932   3.544   6.266  2.3084 -0.2648  2.6175
   55MOL   H12027228   0.898   3.643   6.028  0.8464 -1.2160  0.4543
   55MOL   H12127229   1.024   3.762   6.054  0.8813 -0.6040  0.0676
   55MOL   H12227230   1.168   3.563   6.061  0.4232  0.1309 -0.8787
   55MOL   H12327231   1.028   3.452   6.030 -0.9638  0.9789  1.3749
   55MOL   H12427232   0.990   3.567   5.810 -0.8414 -2.2312  0.5029
   55MOL   H12527233   1.143   3.658   5.835  1.8291 -0.4810  1.3348
   55MOL   H12627234   1.148   3.487   5.819  0.4554  0.1121  1.1039
   55MOL   C12727235   0.630   3.776   6.608 -0.3892 -0.0218  0.0647
   55MOL   C12827236   0.534   3.816   6.491  0.0265 -0.2198 -0.1462
   55MOL   O12927237   0.487   3.949   6.512  0.0577 -0.4062  0.4077
   55MOL   C13027238   0.465   4.029   6.399 -0.3400 -1.1107 -0.1842
   55MOL   C13127239   0.450   4.180   6.450  0.1465 -0.0486 -0.2639
   55MOL   C13227240   0.394   4.265   6.342 -0.3039 -0.4546 -0.3577
   55MOL   C13327241   0.377   4.411   6.363 -0.0342  0.2791  0.5413
   55MOL   C13427242   0.279   4.461   6.473 -0.8244  0.9024 -0.0447
   55MOL   C13527243   0.267   4.609   6.459 -0.0061  0.5518 -0.2555
   55MOL   H13627244   0.664   3.673   6.603 -0.5835 -0.2406  2.5793
   55MOL   H13727245   0.570   3.790   6.698  0.5540  0.3311  0.6515
   55MOL   H13827246   0.599   3.814   6.404 -1.0956  0.7317 -1.0264
   55MOL   H13927247   0.379   3.988   6.347  0.3371 -0.6479 -1.7111
   55MOL   H14027248   0.548   4.040   6.329 -0.3332 -2.0300 -0.3319
   55MOL   H14127249   0.547   4.220   6.478  0.2558  0.0093 -0.7171
   55MOL   H14227250   0.385   4.184   6.537 -0.9503 -2.1179 -0.9418
   55MOL   H14327251   0.450   4.260   6.249 -1.7154 -3.2685 -1.1236
   55MOL   H14427252   0.293   4.231   6.320 -0.8729 -0.0789  1.5579
   55MOL   H14527253   0.475   4.457   6.373  0.2376  0.3618 -2.1199
   55MOL   H14627254   0.344   4.455   6.269  2.2691 -0.3183 -0.5814
   55MOL   H14727255   0.186   4.406   6.465 -0.2380 -0.4367  2.0700
   55MOL   H14827256   0.317   4.440   6.573  3.4823  1.4452 -1.4632
   55MOL   H14927257   0.199   4.629   6.375 -0.6854  0.7974  0.3493
   55MOL   H15027258   0.220   4.663   6.541  0.4649  2.3150 -1.1095
   55MOL   H15127259   0.367   4.652   6.447 -0.0925  1.8414  3.0391
   55MOL   C15227260   0.409   3.727   6.477  0.3214 -0.4828  0.0957
   55MOL   C15327261   0.433   3.588   6.424  0.6497 -0.0023 -0.2472
   55MOL   O15427262   0.311   3.526   6.455 -0.7531 -0.5887 -0.1995
   55MOL   C15527263   0.314   3.449   6.574 -0.0722 -0.6873 -0.0688
   55MOL   C15627264   0.179   3.389   6.594  0.7300 -0.3635  0.1578
   55MOL   C15727265   0.161   3.326   6.729  0.4690  0.6337  0.7305
   55MOL   C15827266   0.039   3.234   6.727  0.3834  0.0654 -0.5746
   55MOL   C15927267   0.029   3.150   6.852 -0.2157  0.2433  0.1720
   55MOL   C16027268   7.664   3.081   6.866 -0.5241  0.6606  0.5524
   55MOL   H16127269   0.366   3.718   6.577  2.0461 -1.1799  0.7847
   55MOL   H16227270   0.327   3.777   6.425  1.0926 -0.0432 -0.7052
   55MOL   H16327271   0.518   3.538   6.469  0.9689 -0.4250 -1.2873
   55MOL   H16427272   0.330   3.515   6.660 -0.0003 -2.1560  1.0724
   55MOL   H16527273   0.403   3.386   6.581 -0.7850 -1.8011 -0.9527
   55MOL   H16627274   0.166   3.316   6.514  1.2554 -0.0803 -0.1812
   55MOL   H16727275   0.101   3.461   6.569 -0.5137 -1.7701 -0.1480
   55MOL   H16827276   0.252   3.275   6.761 -0.3738 -2.4083 -1.4478
   55MOL   H16927277   0.161   3.406   6.803  1.1840  1.2370  0.0760
   55MOL   H17027278   7.732   3.303   6.723  0.8295  0.5846 -1.1521
   55MOL   H17127279   0.048   3.164   6.644  0.2305  0.0127 -0.5475
   55MOL   H17227280   0.114   3.083   6.840 -0.4079  0.2344 -1.2301
   55MOL   H17327281   0.040   3.228   6.928 -0.6423  0.9272 -0.4650
   55MOL   H17427282   7.658   2.998   6.795  2.1421  0.5431  0.3955
   55MOL   H17527283   7.666   3.040   6.967 -0.7857 -0.1114  0.2537
   55MOL   H17627284   7.579   3.146   6.849  0.8488  2.1793 -0.7056
   55MOL   C17727285   0.449   3.587   6.272  0.2135  0.5771  0.0655
   55MOL   C17827286   0.457   3.444   6.226  0.0166 -0.7536  0.2615
   55MOL   O17927287   0.410   3.445   6.093  0.2682  0.8793 -0.3228
   55MOL   C18027288   0.369   3.317   6.035 -0.0554 -0.3408  0.2061
   55MOL   C18127289   0.269   3.345   5.922 -0.5910 -0.1436  0.6711
   55MOL   C18227290   0.328   3.399   5.786 -0.4223  0.6617 -0.0053
   55MOL   C18327291   0.437   3.502   5.783 -0.3695 -0.0300  0.8541
   55MOL   C18427292   0.461   3.554   5.644  0.9298 -0.5304  0.3702
   55MOL   C18527293   0.550   3.680   5.633 -0.2279  0.1630  0.2001
   55MOL   H18627294   0.354   3.628   6.237 -1.4603 -1.2820  2.2341
   55MOL   H18727295   0.527   3.657   6.242  0.8006  0.0306  0.3048
   55MOL   H18827296   0.378   3.394   6.284 -1.1850  0.1973 -0.5364
   55MOL   H18927297   0.311   3.272   6.115  1.8057 -1.5280  0.9235
   55MOL   H19027298   0.458   3.264   6.000  0.9249  1.8202 -0.6548
   55MOL   H19127299   0.204   3.427   5.953  0.1589  1.2857 -1.4777
   55MOL   H19227300   0.197   3.265   5.904  0.0092 -0.7962  1.0938
   55MOL   H19327301   0.364   3.311   5.732  1.1169  0.0810  1.9184
   55MOL   H19427302   0.245   3.445   5.732 -1.9950 -0.8562  1.0603
   55MOL   H19527303   0.410   3.584   5.848  0.7014 -0.4675  1.8684
   55MOL   H19627304   0.534   3.477   5.826  0.2461 -2.6328 -1.8163
   55MOL   H19727305   0.498   3.477   5.576  0.4903  0.2560 -0.7687
   55MOL   H19827306   0.371   3.596   5.601  1.2231  0.8917  1.1191
   55MOL   H19927307   0.548   3.715   5.529  0.2422  1.3698  0.5924
   55MOL   H20027308   0.531   3.763   5.700  1.8637  1.1830 -0.4078
   55MOL   H20127309   0.653   3.653   5.656 -0.3932 -0.6450  0.0114
   55MOL   C20227310   0.607   3.403   6.237 -0.0573  0.9275 -0.1872
   55MOL   C20327311   0.630   3.246   6.246 -0.1630 -0.1646 -0.6851
   55MOL   O20427312   0.606   3.210   6.382 -0.5917  0.1486 -0.5111
   55MOL   C20527313   0.482   3.148   6.415 -0.1123  0.3967 -0.8459
   55MOL   C20627314   0.501   3.097   6.560 -0.1805  0.0860  0.1805
   55MOL   C20727315   0.634   3.023   6.584  0.1061 -0.9659  0.3847
   55MOL   C20827316   0.645   2.985   6.732 -0.0419 -0.3971  0.2334
   55MOL   C20927317   0.762   2.880   6.760 -0.4323 -0.2928 -0.2356
   55MOL   C21027318   0.898   2.946   6.757  0.4325 -0.7360  0.2381
   55MOL   H21127319   0.648   3.436   6.142 -2.0217 -1.5908 -1.9696
   55MOL   H21227320   0.653   3.462   6.316  0.9905  0.1084 -0.1893
   55MOL   H21327321   0.569   3.185   6.179 -0.1756 -0.2676 -0.5793
   55MOL   H21427322   0.477   3.065   6.344 -2.4404  0.0583 -0.3208
   55MOL   H21527323   0.393   3.211   6.412 -1.1764 -1.1265 -2.0856
   55MOL   H21627324   0.416   3.033   6.584 -0.0111 -0.1497  0.1539
   55MOL   H21727325   0.488   3.185   6.623  1.3263  0.1416  0.4303
   55MOL   H21827326   0.640   2.933   6.522 -3.1945 -0.4245 -0.8733
   55MOL   H21927327   0.710   3.096   6.561  1.2291 -2.8300 -2.1228
   55MOL   H22027328   0.667   3.070   6.797  0.4012 -1.1049  1.0224
   55MOL   H22127329   0.557   2.942   6.780 -0.8003  0.5564 -0.2710
   55MOL   H22227330   0.748   2.840   6.860 -1.7812  0.5300 -0.0911
   55MOL   H22327331   0.761   2.808   6.678  0.5293  2.4755 -2.7803
   55MOL   H22427332   0.971   2.868   6.780  1.1791 -0.3940 -0.9020
   55MOL   H22527333   0.919   2.981   6.656  2.7149  0.8287  1.1942
   55MOL   H22627334   0.916   3.029   6.826 -1.2555 -0.3441  0.2116
   55MOL   C22727335   0.776   3.207   6.205  0.2034 -0.0356 -0.2598
   55MOL   C22827336   0.814   3.061   6.176  0.3958  0.0894  0.1375
   55MOL   O22927337   0.955   3.049   6.153  0.2365  0.1285 -0.3372
   55MOL   C23027338   1.005   3.101   6.036  0.1823  0.1278 -0.0823
   55MOL   C23127339   1.119   3.014   5.989 -0.0286  1.1832  0.4096
   55MOL   C23227340   1.171   3.059   5.848  0.9808  0.1705  0.3058
   55MOL   C23327341   1.296   2.987   5.800 -0.2345 -0.3393  0.4082
   55MOL   C23427342   1.359   3.055   5.677  0.0651  0.3460 -0.3441
   55MOL   C23527343   1.478   2.973   5.628  0.2256 -0.6016  0.2945
   55MOL   H23627344   0.803   3.263   6.115 -0.9670 -1.5129 -1.5640
   55MOL   H23727345   0.844   3.252   6.277  1.0989 -1.7724 -0.0058
   55MOL   H23827346   0.753   3.036   6.089  1.1661 -0.1960 -0.3292
   55MOL   H23927347   1.041   3.202   6.056 -1.6353  1.0451 -1.3462
   55MOL   H24027348   0.929   3.109   5.959  0.1842  0.9910  0.0078
   55MOL   H24127349   1.091   2.909   5.998  1.9613  0.6569  0.7590
   55MOL   H24227350   1.201   3.020   6.060  0.1746 -0.6465  0.3659
   55MOL   H24327351   1.090   3.044   5.777  0.3937  1.0698  0.7847
   55MOL   H24427352   1.189   3.166   5.848  2.3246 -0.0482  0.5591
   55MOL   H24527353   1.369   2.967   5.878  1.1775 -3.3593 -1.5687
   55MOL   H24627354   1.262   2.890   5.763  0.7142 -0.8186  0.8008
   55MOL   H24727355   1.283   3.044   5.600 -2.6936  0.0177  2.3549
   55MOL   H24827356   1.387   3.160   5.687  2.2009 -0.0561 -1.6280
   55MOL   H24927357   1.550   2.954   5.707  0.4758 -0.5243  0.0895
   55MOL   H25027358   1.453   2.883   5.571 -1.8278  0.1736 -0.0779
   55MOL   H25127359   1.545   3.034   5.567 -1.6089  1.1528  0.0053
   55MOL   C25227360   0.783   2.966   6.298 -0.7383 -0.3421  0.1490
   55MOL   C25327361   0.792   2.823   6.248 -0.0752  0.7483  0.6413
   55MOL   O25427362   0.690   2.786   6.156  0.1959  0.3253 -0.2819
   55MOL   C25527363   0.737   2.772   6.018  0.9653  0.0957 -0.4000
   55MOL   C25627364   0.622   2.723   5.930  0.3211  0.6162  0.4441
   55MOL   C25727365   0.518   2.833   5.916  0.1142 -0.9346 -0.2447
   55MOL   C25827366   0.383   2.800   5.849 -0.2091 -0.5126 -0.4855
   55MOL   C25927367   0.295   2.924   5.827 -0.5334 -0.6144  0.1922
   55MOL   C26027368   0.157   2.906   5.760 -0.0169 -0.2991 -0.5156
   55MOL   H26127369   0.848   2.989   6.383 -1.7696  1.4048  0.4796
   55MOL   H26227370   0.680   2.982   6.329 -1.3296 -1.1592 -1.3363
   55MOL   H26327371   0.889   2.816   6.199  0.5783 -0.5596  2.0923
   55MOL   H26427372   0.807   2.692   5.993 -2.7845 -3.2452 -0.6239
   55MOL   H26527373   0.761   2.866   5.969 -0.4453  1.6262  1.7471
   55MOL   H26627374   0.578   2.646   5.993 -0.2181  1.3711  1.0030
   55MOL   H26727375   0.652   2.691   5.831  0.0883 -0.3886  0.6941
   55MOL   H26827376   0.483   2.882   6.007  3.7196  0.3678  0.5443
   55MOL   H26927377   0.564   2.909   5.853 -1.7347  0.7800  0.4246
   55MOL   H27027378   0.394   2.747   5.755 -0.8798 -1.3847 -0.0866
   55MOL   H27127379   0.325   2.729   5.908 -0.1515  1.4413  2.0272
   55MOL   H27227380   0.272   2.970   5.923 -0.1374  0.6763 -0.3282
   55MOL   H27327381   0.346   2.997   5.765 -2.6593  0.3717 -0.4643
   55MOL   H27427382   0.128   3.005   5.725  0.7712  1.1614  2.7545
   55MOL   H27527383   0.168   2.843   5.672  3.5109 -0.6535  0.0955
   55MOL   H27627384   0.071   2.878   5.821  1.7429 -2.8308  0.8897
   55MOL   C27727385   0.783   2.719   6.367  0.6199  0.2857  0.2627
   55MOL   C27827386   0.850   2.578   6.339 -0.0042  0.5250 -0.7296
   55MOL   O27927387   0.916   2.527   6.461  0.0843 -0.7588 -0.5556
   55MOL   C28027388   0.830   2.480   6.567 -0.3311 -0.3474 -0.3265
   55MOL   C28127389   0.912   2.421   6.678  0.4086  0.0261 -0.1062
   55MOL   C28227390   1.020   2.511   6.742 -0.6450  0.4858 -0.2811
   55MOL   C28327391   1.051   2.474   6.889 -0.4838  0.3618  0.0153
   55MOL   C28427392   1.164   2.549   6.947  0.4986  0.0280 -0.0700
   55MOL   C28527393   1.178   2.524   7.100  0.5051  0.6454 -0.4394
   55MOL   H28627394   0.818   2.763   6.460  2.2876  1.2237 -0.8017
   55MOL   H28727395   0.678   2.714   6.396  0.2767  0.4114 -0.9273
   55MOL   H28827396   0.926   2.604   6.265 -0.1249  0.2106 -0.9672
   55MOL   H28927397   0.774   2.389   6.544  0.1456 -1.1872  1.7052
   55MOL   H29027398   0.764   2.549   6.619 -1.2307 -2.8099  1.8884
   55MOL   H29127399   0.961   2.328   6.649 -0.7944 -0.5151 -0.4136
   55MOL   H29227400   0.847   2.392   6.761  1.1488 -0.8754  0.1671
   55MOL   H29327401   1.114   2.513   6.687 -0.7437  0.0594 -0.4706
   55MOL   H29427402   0.992   2.616   6.739 -0.3231  0.6121  1.0864
   55MOL   H29527403   0.955   2.469   6.940  0.5141 -0.1785  1.8702
   55MOL   H29627404   1.077   2.369   6.900 -1.0397  0.2586  0.3408
   55MOL   H29727405   1.255   2.511   6.902 -0.1889  0.4499 -1.9030
   55MOL   H29827406   1.153   2.656   6.927 -1.2172  0.1453  1.3496
   55MOL   H29927407   1.107   2.590   7.150 -4.0350 -3.0701 -1.7523
   55MOL   H30027408   1.145   2.423   7.121 -0.5990  1.1314  0.1997
   55MOL   H30127409   1.280   2.531   7.138  0.0597 -1.5229  1.2897
   55MOL   C30227410   0.752   2.479   6.268 -0.2087 -0.0063 -0.3596
   55MOL   C30327411   0.826   2.370   6.181 -0.4798  0.1148 -0.0427
   55MOL   O30427412   0.725   2.293   6.117 -0.0146 -0.4750  0.0871
   55MOL   C30527413   0.694   2.335   5.987  0.3531 -0.6621  0.6455
   55MOL   C30627414   0.620   2.226   5.911 -0.2505 -0.2644  0.1306
   55MOL   C30727415   0.582   2.270   5.765 -0.2885  0.1786 -0.3743
   55MOL   C30827416   0.484   2.171   5.705 -0.3539  0.0298 -0.0107
   55MOL   C30927417   0.436   2.229   5.569 -0.0813  0.1232 -0.4293
   55MOL   C31027418   0.324   2.150   5.508  0.0505  0.0706 -0.1582
   55MOL   H31127419   0.689   2.433   6.345 -1.6904  1.7521 -0.4808
   55MOL   H31227420   0.675   2.528   6.209 -0.0061  0.6166 -0.1078
   55MOL   H31327421   0.887   2.418   6.105  1.2818  0.7236  1.6897
   55MOL   H31427422   0.785   2.348   5.929 -0.0025 -3.2068 -0.5294
   55MOL   H31527423   0.635   2.427   5.990  0.3149 -0.2980 -4.9067
   55MOL   H31627424   0.534   2.191   5.968 -1.2708  0.4477 -0.9412
   55MOL   H31727425   0.686   2.141   5.894  0.0819 -0.0494  0.3560
   55MOL   H31827426   0.533   2.367   5.770 -2.2995 -0.8461  0.5612
   55MOL   H31927427   0.670   2.273   5.700  1.0174 -0.6546  1.2975
   55MOL   H32027428   0.526   2.071   5.693 -1.5185 -0.2366 -2.0953
   55MOL   H32127429   0.394   2.171   5.767 -0.7460  0.9052 -0.5704
   55MOL   H32227430   0.391   2.327   5.585 -2.7899 -0.9762 -1.0733
   55MOL   H32327431   0.522   2.244   5.505 -0.0777  1.2613 -0.1824
   55MOL   H32427432   0.239   2.135   5.574  0.7218 -0.1079  0.6811
   55MOL   H32527433   0.294   2.201   5.417 -0.0028  0.8895  0.3133
   55MOL   H32627434   0.355   2.052   5.472  2.7049  0.2769  1.4175
   55MOL   C32727435   0.904   2.268   6.264 -0.2017 -0.5124 -0.0956
   55MOL   C32827436   0.985   2.163   6.180 -0.1274 -0.6203 -0.6609
   55MOL   O32927437   1.112   2.137   6.243 -0.4472 -0.6922 -0.1016
   55MOL   C33027438   1.219   2.226   6.212  0.6682 -0.3848 -0.2805
   55MOL   C33127439   1.319   2.242   6.324  0.3859  0.4237 -0.4904
   55MOL   C33227440   1.263   2.315   6.447 -0.7283  0.3846  0.0048
   55MOL   C33327441   1.365   2.334   6.559  0.5519 -0.1670  0.4562
   55MOL   C33427442   1.452   2.459   6.554 -0.6829 -0.4639 -0.3310
   55MOL   C33527443   1.581   2.438   6.637 -0.4931 -0.3738 -1.0094
   55MOL   H33627444   0.851   2.220   6.346  0.1854  1.1171  1.1314
   55MOL   H33727445   0.982   2.329   6.311 -1.4642  0.9530  0.1122
   55MOL   H33827446   1.013   2.209   6.085  2.4622 -2.0032 -0.6112
   55MOL   H33927447   1.174   2.325   6.202 -2.5870 -1.5374  1.9591
   55MOL   H34027448   1.270   2.206   6.117  1.6439 -1.2134  0.4086
   55MOL   H34127449   1.382   2.316   6.275 -0.2788  2.4318  1.6081
   55MOL   H34227450   1.367   2.149   6.354 -0.7127  0.1084  0.3300
   55MOL   H34327451   1.211   2.407   6.418 -1.6611 -0.9332 -2.6671
   55MOL   H34427452   1.178   2.256   6.481 -0.8050 -0.3411 -1.4206
   55MOL   H34527453   1.328   2.324   6.661  0.8567  3.7127  1.0163
   55MOL   H34627454   1.435   2.250   6.560  0.2754 -0.4520 -1.6331
   55MOL   H34727455   1.481   2.486   6.453  0.0467  0.2973  0.0754
   55MOL   H34827456   1.400   2.538   6.609 -0.5986 -2.8163  3.2723
   55MOL   H34927457   1.642   2.364   6.584  2.8306 -0.5717  2.8746
   55MOL   H35027458   1.641   2.529   6.625  1.4899 -1.5672 -0.3244
   55MOL   H35127459   1.566   2.407   6.740 -0.9640  0.1665 -0.9128
   55MOL   C35227460   0.910   2.024   6.177  0.2878 -0.4668 -0.2784
   55MOL   C35327461   1.000   1.910   6.119  0.3448 -0.4655  0.0490
   55MOL   O35427462   1.007   1.950   5.984  0.2830 -0.2095  0.3705
   55MOL   C35527463   1.085   1.866   5.897  0.1769  0.1686  0.1398
   55MOL   C35627464   1.074   1.936   5.759 -0.7404  0.0041 -0.4597
   55MOL   C35727465   0.922   1.957   5.719 -0.6404 -0.4761  0.1868
   55MOL   C35827466   0.897   2.033   5.585 -0.7813 -0.4135  0.5695
   55MOL   C35927467   0.974   1.974   5.466 -0.1439 -0.1255 -0.0732
   55MOL   C36027468   0.932   2.043   5.335  0.5436  0.0018  0.2983
   55MOL   H36127469   0.881   2.003   6.279  1.1765  0.3571  0.1554
   55MOL   H36227470   0.820   2.039   6.117  0.2725  0.1288 -0.1081
   55MOL   H36327471   1.102   1.904   6.158  1.0796 -2.9210 -2.1563
   55MOL   H36427472   1.045   1.765   5.888  0.9676 -0.0544 -0.8756
   55MOL   H36527473   1.189   1.845   5.923  0.1835 -0.9356 -0.7118
   55MOL   H36627474   1.117   1.871   5.683 -0.8462 -0.5430 -0.0605
   55MOL   H36727475   1.120   2.035   5.760  0.3615 -0.4580 -3.1120
   55MOL   H36827476   0.856   1.870   5.723 -2.4623  0.8864  0.1509
   55MOL   H36927477   0.882   2.021   5.798 -2.6625 -1.0061 -0.3949
   55MOL   H37027478   0.790   2.037   5.568 -0.7096 -2.2526 -0.4696
   55MOL   H37127479   0.925   2.138   5.593 -2.9964  0.5571 -3.4972
   55MOL   H37227480   1.081   1.980   5.481 -0.0533 -3.1312  0.7061
   55MOL   H37327481   0.961   1.866   5.466 -1.7640  0.0459 -1.8087
   55MOL   H37427482   0.897   2.145   5.353 -0.9579 -0.5694  0.7048
   55MOL   H37527483   1.016   2.041   5.265  0.1196  0.6479 -0.2365
   55MOL   H37627484   0.843   1.996   5.293  1.0765  0.7955 -1.8206
   55MOL   C37727485   0.940   1.771   6.143  0.0812  0.6720 -0.2932
   55MOL   C37827486   1.025   1.675   6.234 -0.1921 -0.1773 -0.5119
   55MOL   O37927487   0.958   1.547   6.227 -0.1229 -0.6045  0.0349
   55MOL   C38027488   0.993   1.471   6.113  0.1422  0.3808 -0.3795
   55MOL   C38127489   0.907   1.346   6.109 -0.1358  0.3364  0.0186
   55MOL   C38227490   0.939   1.239   6.007 -0.0359 -0.4592 -0.5859
   55MOL   C38327491   1.068   1.156   6.037  0.0409  0.1244  0.3772
   55MOL   C38427492   1.104   1.052   5.933 -0.4659  0.3946  0.4348
   55MOL   C38527493   1.013   0.930   5.927  0.4113 -0.0377  0.1724
   55MOL   H38627494   0.844   1.790   6.193 -1.2948 -3.9354 -0.9544
   55MOL   H38727495   0.914   1.724   6.049 -1.4769  0.5633  0.1752
   55MOL   H38827496   1.121   1.670   6.182 -0.1842  0.9221 -0.6191
   55MOL   H38927497   1.095   1.437   6.130 -1.0929 -2.0146  2.9043
   55MOL   H39027498   0.991   1.524   6.019 -0.5120 -0.7528 -1.0178
   55MOL   H39127499   0.801   1.371   6.107  0.0147  1.0000  0.0434
   55MOL   H39227500   0.925   1.299   6.206 -0.4345 -1.2600 -0.6839
   55MOL   H39327501   0.851   1.178   5.993 -0.1041 -0.3918 -0.4562
   55MOL   H39427502   0.954   1.291   5.912  0.2638  1.7207  0.6040
   55MOL   H39527503   1.152   1.225   6.031 -0.6377  0.9073 -0.4059
   55MOL   H39627504   1.060   1.113   6.136 -2.3728 -1.3285 -0.3950
   55MOL   H39727505   1.109   1.094   5.832 -0.7010 -1.2434 -0.2716
   55MOL   H39827506   1.207   1.019   5.949 -0.2590  1.0007  0.3485
   55MOL   H39927507   1.038   0.888   5.829 -0.5351  0.3537 -0.2466
   55MOL   H40027508   1.025   0.857   6.007 -1.5419  0.2565  0.7585
   55MOL   H40127509   0.908   0.960   5.935  0.8158  0.6927  3.2597
   55MOL   C40227510   1.035   1.725   6.377 -0.3565  0.2365 -0.7986
   55MOL   C40327511   1.157   1.673   6.459 -0.0777 -0.7829  0.4138
   55MOL   O40427512   1.275   1.689   6.379  0.2101  0.4896  0.3199
   55MOL   C40527513   1.338   1.813   6.395 -0.1649 -0.2781  0.4313
   55MOL   C40627514   1.452   1.845   6.294  0.0612  0.0807 -0.2880
   55MOL   C40727515   1.410   1.855   6.152 -0.6389  0.6175  0.0993
   55MOL   C40827516   1.525   1.895   6.053  0.1542 -0.5121 -0.6078
   55MOL   C40927517   1.487   1.901   5.908 -0.0166  0.0283  0.8688
   55MOL   C41027518   1.399   2.031   5.873  0.4171 -0.9275 -0.0306
   55MOL   H41127519   0.940   1.711   6.429 -0.2051  1.2411 -0.2230
   55MOL   H41227520   1.042   1.834   6.385  0.9503  0.1008  0.0017
   55MOL   H41327521   1.164   1.721   6.557 -0.6888  1.0445 -0.4239
   55MOL   H41427522   1.390   1.807   6.490 -0.2047  0.9142  0.5358
   55MOL   H41527523   1.264   1.893   6.403 -0.7766 -0.6871 -0.9530
   55MOL   H41627524   1.533   1.773   6.304 -1.4673 -1.6560  0.0254
   55MOL   H41727525   1.491   1.941   6.327 -0.6790  0.4491 -0.4735
   55MOL   H41827526   1.379   1.754   6.124 -1.1222 -0.3710  3.9579
   55MOL   H41927527   1.334   1.932   6.137  0.4597  2.1621  2.2424
   55MOL   H42027528   1.574   1.987   6.083 -1.5633  0.6458 -1.3295
   55MOL   H42127529   1.609   1.829   6.076  0.8830  1.0593  1.3745
   55MOL   H42227530   1.583   1.909   5.858 -0.4196  1.3544  0.2599
   55MOL   H42327531   1.447   1.804   5.880 -0.1878  0.4977 -0.5877
   55MOL   H42427532   1.459   2.113   5.913 -1.6061 -0.4805  2.2361
   55MOL   H42527533   1.372   2.048   5.769  0.2922 -1.1401 -0.0344
   55MOL   H42627534   1.304   2.032   5.927 -0.1923 -1.0380 -1.0900
   55MOL   C42727535   1.153   1.521   6.486 -0.4693 -0.2208  0.2423
   55MOL   C42827536   1.066   1.465   6.606 -0.1072 -0.4049 -0.0814
   55MOL   O42927537   1.042   1.321   6.607 -0.1005 -0.3496 -0.1704
   55MOL   C43027538   0.938   1.284   6.521 -0.4071  0.1892 -0.4838
   55MOL   C43127539   0.952   1.136   6.489 -0.1547 -0.5346  0.6367
   55MOL   C43227540   1.086   1.095   6.432  0.1076 -0.4134  0.1347
   55MOL   C43327541   1.083   0.950   6.374 -0.6868 -0.4699 -0.2965
   55MOL   C43427542   1.218   0.908   6.312 -0.1303  0.9000  0.1564
   55MOL   C43527543   1.336   0.904   6.409  0.1139 -0.1271 -0.5058
   55MOL   H43627544   1.133   1.468   6.393  2.6560 -1.5070  0.2572
   55MOL   H43727545   1.258   1.500   6.509  0.4071 -0.8341 -3.9011
   55MOL   H43827546   0.970   1.517   6.604  0.3939  0.5432  0.1376
   55MOL   H43927547   0.967   1.340   6.432 -0.2235 -2.4724 -2.1213
   55MOL   H44027548   0.837   1.319   6.545  0.0049 -0.3565  2.1089
   55MOL   H44127549   0.874   1.089   6.430  0.3685 -0.9800  0.3003
   55MOL   H44227550   0.934   1.091   6.587 -0.0248 -1.7941  0.0889
   55MOL   H44327551   1.103   1.172   6.357 -2.1294  0.9088  0.9350
   55MOL   H44427552   1.167   1.099   6.505  1.9214  0.0040 -1.8480
   55MOL   H44527553   1.043   0.879   6.447 -1.1297 -1.5260 -1.5329
   55MOL   H44627554   1.017   0.958   6.287 -1.0133 -0.4989 -0.0528
   55MOL   H44727555   1.203   0.812   6.264  0.5684  0.1287  1.4760
   55MOL   H44827556   1.248   0.969   6.227  2.9848 -1.0713 -0.2249
   55MOL   H44927557   1.364   1.003   6.444  1.3017 -0.1124 -1.4782
   55MOL   H45027558   1.325   0.838   6.496  0.4755 -0.4554 -0.7065
   55MOL   H45127559   1.429   0.865   6.369  0.9653 -1.4662  2.5689
   55MOL   C45227560   1.131   1.500   6.745  0.4105  0.2289  0.6439
   55MOL   C45327561   1.054   1.504   6.870  0.2745  0.4469 -0.3323
   55MOL   O45427562   0.938   1.591   6.871  0.0418 -0.7422 -0.2747
   55MOL   C45527563   0.813   1.528   6.839  0.3651 -0.2651 -0.2654
   55MOL   C45627564   0.705   1.636   6.822 -0.3690 -0.1715 -0.6107
   55MOL   C45727565   0.719   1.709   6.687 -0.8885  0.0385  0.0610
   55MOL   C45827566   0.688   1.859   6.694  0.2320 -0.7369  0.1170
   55MOL   C45927567   0.706   1.935   6.562 -0.6183  0.1870  0.0267
   55MOL   C46027568   0.662   2.079   6.584 -0.0863 -0.3352  0.3083
   55MOL   H46127569   1.219   1.438   6.759 -0.1033 -0.5779  0.3168
   55MOL   H46227570   1.176   1.598   6.731 -0.1225  0.7596  2.4388
   55MOL   H46327571   1.021   1.401   6.885  2.7295 -0.2302  0.7099
   55MOL   H46427572   0.766   1.474   6.922 -0.5076 -0.8735 -1.1498
   55MOL   H46527573   0.825   1.464   6.752  3.2160 -0.3864  0.1747
   55MOL   H46627574   0.721   1.699   6.910  0.1141 -1.5650  0.3168
   55MOL   H46727575   0.607   1.589   6.813  0.1102 -0.9896 -1.6774
   55MOL   H46827576   0.824   1.697   6.662 -0.2599  1.1351  2.0604
   55MOL   H46927577   0.663   1.663   6.606  1.4281 -0.9999 -0.9939
   55MOL   H47027578   0.591   1.875   6.739 -0.5872 -2.5618 -0.9097
   55MOL   H47127579   0.762   1.906   6.759  1.1248  1.7120 -2.5932
   55MOL   H47227580   0.807   1.937   6.521 -0.4750  0.2049  0.3816
   55MOL   H47327581   0.650   1.884   6.484 -0.7157 -0.1409  0.3120
   55MOL   H47427582   0.667   2.132   6.489 -0.6515  0.3169  0.6382
   55MOL   H47527583   0.556   2.086   6.609  0.0732  1.0078  0.6519
   55MOL   H47627584   0.714   2.137   6.660  1.7018 -0.0794 -1.0860
   55MOL   C47727585   1.152   1.543   6.986 -0.2955 -0.1740 -0.0273
   55MOL   C47827586   1.202   1.685   6.987  0.6802  0.0646  0.8891
   55MOL   O47927587   1.258   1.700   7.115 -0.0715  0.5767 -0.1067
   55MOL   C48027588   1.339   1.815   7.129 -0.2708  0.1713 -0.3113
   55MOL   C48127589   1.394   1.829   7.273  0.8484 -0.1580  0.0130
   55MOL   C48227590   1.455   1.963   7.306  0.0720 -0.0222  0.4337
   55MOL   C48327591   1.524   1.959   7.442 -0.0477 -1.2695  0.6604
   55MOL   C48427592   1.414   1.988   7.553  0.2475 -0.3742  0.1759
   55MOL   C48527593   1.484   1.984   7.692 -0.7289  0.5212  0.3622
   55MOL   H48627594   1.094   1.526   7.076 -0.5202  0.8484  0.0224
   55MOL   H48727595   1.243   1.484   6.990 -0.3536 -0.1187  2.5054
   55MOL   H48827596   1.277   1.698   6.910 -0.1833 -0.8960 -0.1395
   55MOL   H48927597   1.277   1.903   7.111  1.3312  1.2263 -0.7878
   55MOL   H49027598   1.427   1.800   7.066 -0.4160 -1.5292 -0.1333
   55MOL   H49127599   1.464   1.746   7.287 -1.0146 -1.8917 -0.6270
   55MOL   H49227600   1.307   1.820   7.338  0.2138  0.2816 -0.7731
   55MOL   H49327601   1.526   1.984   7.225 -0.3862  2.8804  0.7146
   55MOL   H49427602   1.378   2.040   7.300 -1.0615 -1.2583 -1.3706
   55MOL   H49527603   1.581   1.868   7.461 -0.9547 -2.0441 -0.2400
   55MOL   H49627604   1.599   2.038   7.441 -0.9850 -0.3255  2.8852
   55MOL   H49727605   1.370   2.087   7.542 -0.6165 -0.5602  1.7271
   55MOL   H49827606   1.340   1.907   7.550  3.6764 -3.6302  0.0556
   55MOL   H49927607   1.411   2.000   7.772 -1.6409  1.4469 -0.6414
   55MOL   H50027608   1.522   1.884   7.714 -0.4301  0.4937 -0.2769
   55MOL   H50127609   1.565   2.056   7.696  0.4107 -0.6370 -1.3935
   55MOL   H50227610   1.124   1.760   6.974  0.5912 -0.6173 -3.0137
   56MOL     C127611   1.120   3.470   4.938  0.6813 -0.0685 -0.5699
   56MOL     C227612   1.071   3.446   4.795 -0.1738  0.3702 -0.4614
   56MOL     O327613   1.077   3.568   4.728 -0.3900  0.2579  0.3463
   56MOL     C427614   1.201   3.626   4.710  0.1294  0.4589 -0.6788
   56MOL     C527615   1.180   3.781   4.675 -0.2923 -0.0780  0.4622
   56MOL     C627616   1.124   3.866   4.796  0.4733 -0.4269 -0.1599
   56MOL     C727617   1.078   4.006   4.751  0.0444 -0.6843  0.4838
   56MOL     C827618   1.195   4.101   4.724  0.4034 -0.3106 -0.3099
   56MOL     C927619   1.152   4.244   4.709  0.1677 -0.0881  0.0585
   56MOL    H1027620   1.062   3.547   4.989  1.1387  0.6309 -1.0870
   56MOL    H1127621   1.118   3.379   4.999  0.4588  1.6140  2.0217
   56MOL    H1227622   1.140   3.375   4.749  1.8473  1.3354  0.9680
   56MOL    H1327623   1.253   3.582   4.625  0.6048 -1.3515  0.5356
   56MOL    H1427624   1.266   3.615   4.796 -1.7248  2.3567  1.0519
   56MOL    H1527625   1.107   3.792   4.595  0.4848 -1.1831 -0.4123
   56MOL    H1627626   1.280   3.821   4.656 -0.8560  0.4098 -1.5644
   56MOL    H1727627   1.041   3.814   4.843  0.2117  0.6387  0.5538
   56MOL    H1827628   1.206   3.870   4.868  0.2465  0.5697  0.0477
   56MOL    H1927629   1.018   3.990   4.662  1.2064  1.1634 -0.6440
   56MOL    H2027630   1.007   4.048   4.823 -0.7686 -0.1339 -0.6267
   56MOL    H2127631   1.256   4.060   4.644  1.8396  0.7236  0.2447
   56MOL    H2227632   1.254   4.086   4.814  2.0541  1.8188 -0.9806
   56MOL    H2327633   1.106   4.271   4.805 -1.4193 -1.9566 -0.1394
   56MOL    H2427634   1.226   4.321   4.688  2.1903 -2.7462 -2.9036
   56MOL    H2527635   1.079   4.247   4.629  1.7322  0.9660 -1.3566
   56MOL    H2627636   1.225   3.500   4.941  1.6056 -3.0407 -1.1609
   56MOL    C2727637   0.927   3.396   4.775  0.4868  0.5831 -0.1811
   56MOL    C2827638   0.878   3.355   4.627  0.1787 -0.4213 -0.0683
   56MOL    O2927639   0.917   3.214   4.603 -0.4081 -0.1972 -0.0367
   56MOL    C3027640   1.015   3.188   4.501 -0.3015 -0.9795 -0.4369
   56MOL    C3127641   1.022   3.034   4.475 -0.3943 -0.4593 -0.2179
   56MOL    C3227642   0.897   2.968   4.417  0.0336 -0.1540  0.1218
   56MOL    C3327643   0.900   2.815   4.430  0.0536  0.3207  0.4336
   56MOL    C3427644   0.898   2.749   4.561 -0.3258 -0.7115 -0.0366
   56MOL    C3527645   0.907   2.597   4.551  0.4906  0.2694 -0.5991
   56MOL    H3627646   0.899   3.327   4.854 -0.5839 -1.2284 -2.1140
   56MOL    H3727647   0.863   3.483   4.790 -0.0708  0.4358 -1.6141
   56MOL    H3827648   0.929   3.426   4.562  0.7300 -1.0995 -0.3839
   56MOL    H3927649   1.113   3.207   4.543 -0.6927 -1.7415  0.8528
   56MOL    H4027650   0.999   3.249   4.412 -1.2691 -1.3246 -0.5045
   56MOL    H4127651   1.036   2.983   4.570  1.3854  0.7164  0.1724
   56MOL    H4227652   1.112   3.015   4.416  0.4038  0.9970  0.5114
   56MOL    H4327653   0.812   3.009   4.471  0.0525 -2.5156  2.0625
   56MOL    H4427654   0.895   2.994   4.311  0.8083 -2.0813 -0.3879
   56MOL    H4527655   0.830   2.774   4.357  1.3033  1.3487 -1.3934
   56MOL    H4627656   0.996   2.793   4.383 -0.5527 -1.6700  0.0760
   56MOL    H4727657   0.991   2.778   4.609 -1.4571 -0.2904  1.9405
   56MOL    H4827658   0.802   2.762   4.611 -1.0379  1.1610 -1.8185
   56MOL    H4927659   0.860   2.552   4.638 -0.7224 -1.2735 -2.0004
   56MOL    H5027660   0.852   2.554   4.467  0.2735 -1.6881  0.5041
   56MOL    H5127661   1.007   2.570   4.517  1.1027  3.3099 -1.3560
   56MOL    C5227662   0.733   3.374   4.626 -0.5288  0.4167  0.6381
   56MOL    C5327663   0.667   3.349   4.489 -0.6740 -0.0221  0.4590
   56MOL    O5427664   0.529   3.393   4.496  0.3056  0.2871 -0.1641
   56MOL    C5527665   0.434   3.290   4.527 -0.0498 -0.3656 -0.5483
   56MOL    C5627666   0.299   3.337   4.479 -0.4229  0.4343 -1.0207
   56MOL    C5727667   0.290   3.358   4.329 -0.4052  0.2414  0.1343
   56MOL    C5827668   0.151   3.372   4.268 -0.1406  0.4821 -0.0147
   56MOL    C5927669   0.049   3.286   4.318 -0.0058  0.3168  0.5811
   56MOL    C6027670   7.691   3.328   4.256  0.3310 -0.6273 -0.1645
   56MOL    H6127671   0.702   3.477   4.642 -0.3585  0.7306 -0.9295
   56MOL    H6227672   0.678   3.312   4.696  1.2957 -1.8031  0.1742
   56MOL    H6327673   0.679   3.243   4.468  0.5057 -0.1900  1.9604
   56MOL    H6427674   0.426   3.273   4.635  2.2761 -2.3892 -0.6592
   56MOL    H6527675   0.467   3.195   4.486  1.1187 -0.4035  0.4084
   56MOL    H6627676   0.269   3.432   4.522 -0.3622  1.0622 -2.3301
   56MOL    H6727677   0.227   3.262   4.512 -0.4741  1.2801  0.8182
   56MOL    H6827678   0.358   3.438   4.299  0.3467 -1.4866 -2.9022
   56MOL    H6927679   0.316   3.256   4.300 -0.0455 -0.4034  2.6142
   56MOL    H7027680   0.124   3.476   4.285  0.0308  0.8006 -1.6667
   56MOL    H7127681   0.159   3.358   4.160  2.7178 -1.2121  0.3561
   56MOL    H7227682   0.068   3.181   4.298  0.3163  0.4337  0.2551
   56MOL    H7327683   0.037   3.298   4.425 -2.1319  0.8182  0.3156
   56MOL    H7427684   7.690   3.315   4.147 -0.3237 -1.4933 -0.0619
   56MOL    H7527685   7.606   3.263   4.280  0.2645 -1.4100 -2.4050
   56MOL    H7627686   7.672   3.434   4.276 -2.5885 -0.8040 -1.7443
   56MOL    C7727687   0.728   3.432   4.362 -0.1264  0.1766  0.0716
   56MOL    C7827688   0.677   3.398   4.220 -0.1320 -0.4472  0.3243
   56MOL    O7927689   0.707   3.259   4.205 -0.2920  0.0121  0.1825
   56MOL    C8027690   0.595   3.179   4.181  0.2878  0.3079 -0.6634
   56MOL    C8127691   0.636   3.031   4.159  0.3400  0.0799  0.8897
   56MOL    C8227692   0.502   2.956   4.127 -0.2119 -0.1808  0.3948
   56MOL    C8327693   0.495   2.906   3.980 -0.4733  0.0573  0.2139
   56MOL    C8427694   0.350   2.844   3.955 -0.7922  0.4222  0.4160
   56MOL    C8527695   0.335   2.800   3.806 -0.1713  0.3222  0.2854
   56MOL    H8627696   0.828   3.389   4.366 -0.6523 -0.9833  1.2099
   56MOL    H8727697   0.721   3.537   4.391  0.1563  1.0420 -2.8298
   56MOL    H8827698   0.570   3.415   4.220 -0.0335  0.2058  0.0317
   56MOL    H8927699   0.537   3.208   4.093  2.2383 -0.3051 -2.2018
   56MOL    H9027700   0.525   3.169   4.264  1.3394 -0.4423  0.1543
   56MOL    H9127701   0.659   2.992   4.258 -0.4328  1.1344  1.4989
   56MOL    H9227702   0.708   3.029   4.077 -0.5700 -0.1946  0.0959
   56MOL    H9327703   0.496   2.876   4.201 -0.4172 -2.0831 -1.6238
   56MOL    H9427704   0.412   3.010   4.159 -0.1376  1.1502 -1.5776
   56MOL    H9527705   0.505   2.985   3.906  0.7509  1.3765  1.7595
   56MOL    H9627706   0.573   2.830   3.975 -0.3938  0.3175 -3.2064
   56MOL    H9727707   0.336   2.757   4.019  0.9142  0.0887  0.3363
   56MOL    H9827708   0.266   2.909   3.983 -1.5608 -1.3419  2.3477
   56MOL    H9927709   0.431   2.765   3.768 -1.3500 -0.7086 -1.7886
   56MOL   H10027710   0.261   2.721   3.795 -0.3072  0.4212  0.4763
   56MOL   H10127711   0.307   2.879   3.736 -0.0089  1.9281  1.9965
   56MOL   C10227712   0.758   3.476   4.115  0.3195  0.0028  0.5572
   56MOL   C10327713   0.697   3.467   3.973  0.1627 -0.0596 -0.7677
   56MOL   O10427714   0.583   3.562   3.954  0.7856 -0.0729 -0.0770
   56MOL   C10527715   0.606   3.705   3.984 -0.8218  0.5597  0.4968
   56MOL   C10627716   0.471   3.776   3.985 -0.1789  0.0637  0.1917
   56MOL   C10727717   0.489   3.919   4.032  0.4966 -0.0022  0.3235
   56MOL   C10827718   0.358   3.990   4.065 -0.4753 -0.5922 -0.0165
   56MOL   C10927719   0.389   4.142   4.072 -0.3633  0.0494  0.1101
   56MOL   C11027720   0.482   4.194   4.183  0.2616  0.4496 -0.4886
   56MOL   H11127721   0.768   3.579   4.147 -1.0410  0.1058  0.6599
   56MOL   H11227722   0.855   3.426   4.121 -0.3020 -1.4816 -1.3718
   56MOL   H11327723   0.650   3.370   3.955  0.2409 -0.2270 -0.1022
   56MOL   H11427724   0.673   3.750   3.910  0.2823 -1.9932 -0.1011
   56MOL   H11527725   0.654   3.717   4.082  2.0958  0.7785 -0.9022
   56MOL   H11627726   0.399   3.723   4.047 -0.0454  0.4965  0.7241
   56MOL   H11727727   0.424   3.783   3.887 -2.8635 -1.3052  1.3215
   56MOL   H11827728   0.556   3.925   4.118 -0.1548 -1.1710  0.9291
   56MOL   H11927729   0.542   3.979   3.958  1.1412 -0.2973  0.5436
   56MOL   H12027730   0.276   3.964   3.997  0.6247 -1.4990 -1.0099
   56MOL   H12127731   0.327   3.949   4.162  0.4058  2.3592  1.5865
   56MOL   H12227732   0.436   4.173   3.978  2.0317  1.1546  1.6378
   56MOL   H12327733   0.294   4.193   4.085 -0.9228 -0.0385 -3.0260
   56MOL   H12427734   0.577   4.142   4.178 -0.3321 -0.7150  0.2905
   56MOL   H12527735   0.499   4.299   4.158  2.3864  0.4089  0.6415
   56MOL   H12627736   0.441   4.184   4.284 -0.9278  2.1419 -0.7825
   56MOL   C12727737   0.806   3.500   3.859  0.4640  0.4298  0.3953
   56MOL   C12827738   0.753   3.485   3.711  0.5200 -0.6851  0.2508
   56MOL   O12927739   0.759   3.341   3.682 -0.0443 -0.2679  0.6124
   56MOL   C13027740   0.654   3.288   3.600 -0.4338  0.1985  0.8436
   56MOL   C13127741   0.671   3.129   3.598 -0.8343 -0.2314 -0.5892
   56MOL   C13227742   0.645   3.066   3.466 -0.1385 -0.6713 -0.4198
   56MOL   C13327743   0.680   2.919   3.473 -0.1491 -0.4048  0.0027
   56MOL   C13427744   0.678   2.852   3.334 -0.7737  0.5488  0.2227
   56MOL   C13527745   0.536   2.825   3.273  0.4299  0.3501 -0.0709
   56MOL   H13627746   0.831   3.604   3.880 -2.0559  1.3411 -0.9174
   56MOL   H13727747   0.881   3.423   3.871 -1.5564 -1.6669 -0.1264
   56MOL   H13827748   0.649   3.518   3.707  0.2884 -1.1779  1.7730
   56MOL   H13927749   0.649   3.330   3.500  0.4290 -1.8476 -0.1029
   56MOL   H14027750   0.565   3.318   3.655  0.0679  1.3852  1.0183
   56MOL   H14127751   0.597   3.088   3.667  1.0328 -1.8978  0.4688
   56MOL   H14227752   0.767   3.105   3.642 -1.0337  1.8147  1.0609
   56MOL   H14327753   0.542   3.086   3.435  1.0295  0.3479 -3.8842
   56MOL   H14427754   0.714   3.103   3.390  1.3320 -2.0123  0.2587
   56MOL   H14527755   0.781   2.920   3.515 -0.9032 -2.8205  1.9982
   56MOL   H14627756   0.614   2.864   3.540 -1.1265 -1.0889 -1.5169
   56MOL   H14727757   0.737   2.914   3.267 -2.0044  0.9625 -0.4973
   56MOL   H14827758   0.723   2.753   3.335 -1.9821 -0.0149  0.1898
   56MOL   H14927759   0.462   2.770   3.332  0.0743  2.3858  1.4216
   56MOL   H15027760   0.497   2.925   3.257 -2.9027 -0.8286  0.2743
   56MOL   H15127761   0.538   2.775   3.176  0.8833 -0.1176  0.1766
   56MOL   C15227762   0.840   3.559   3.607  0.4790 -0.1576  0.1359
   56MOL   C15327763   0.836   3.712   3.601  0.0945  0.2091 -0.3998
   56MOL   O15427764   0.908   3.770   3.488  0.3926 -0.4558 -0.2421
   56MOL   C15527765   1.044   3.722   3.484  0.4709 -0.1435  0.2900
   56MOL   C15627766   1.134   3.843   3.438  1.0374 -0.8293 -0.1870
   56MOL   C15727767   1.280   3.795   3.437 -0.0371  0.3781  0.1796
   56MOL   C15827768   1.380   3.907   3.421  0.0090 -0.5891  0.2254
   56MOL   C15927769   1.524   3.857   3.396 -0.2144  0.0015 -0.3646
   56MOL   C16027770   1.631   3.970   3.409  0.1622 -0.1277 -0.3351
   56MOL   H16127771   0.941   3.519   3.608  0.3138 -0.5761  0.3750
   56MOL   H16227772   0.800   3.526   3.511  0.1541 -0.7314  0.4680
   56MOL   H16327773   0.873   3.753   3.695 -1.4155  0.7272 -0.0061
   56MOL   H16427774   1.056   3.629   3.428  0.9706 -0.4283  0.8583
   56MOL   H16527775   1.084   3.702   3.584 -0.0275 -2.1891  0.1024
   56MOL   H16627776   1.124   3.912   3.522  1.2904 -0.6824 -0.2759
   56MOL   H16727777   1.096   3.885   3.345  1.3666 -0.2145 -0.0401
   56MOL   H16827778   1.307   3.729   3.520  0.5042 -0.9070 -0.9825
   56MOL   H16927779   1.279   3.725   3.353 -0.6631 -0.2859  0.7330
   56MOL   H17027780   1.366   3.970   3.333  0.2218 -0.0866  0.5470
   56MOL   H17127781   1.364   3.979   3.501 -0.5654  0.5675 -0.9107
   56MOL   H17227782   1.550   3.780   3.468  2.2300  1.6951  0.6436
   56MOL   H17327783   1.533   3.814   3.297  0.1272  2.0292 -1.2371
   56MOL   H17427784   1.620   4.041   3.327 -0.8628  0.5636  0.3837
   56MOL   H17527785   1.630   4.030   3.500 -0.7234 -1.0220  0.2522
   56MOL   H17627786   1.731   3.928   3.400  0.4417  0.2102  1.0856
   56MOL   C17727787   0.689   3.760   3.587 -0.0321  0.1840 -0.0966
   56MOL   C17827788   0.665   3.914   3.574 -0.2855 -0.1462  0.2080
   56MOL   O17927789   0.525   3.938   3.570 -0.1853  0.0176 -0.1989
   56MOL   C18027790   0.471   3.955   3.439  0.8345  0.7949  0.1816
   56MOL   C18127791   0.351   4.048   3.435 -0.0770  0.5515  0.2467
   56MOL   C18227792   0.389   4.198   3.439 -0.5980  0.1697 -0.1877
   56MOL   C18327793   0.264   4.283   3.425  0.1204 -0.4334  0.3081
   56MOL   C18427794   0.315   4.406   3.349 -0.4114  0.4529  0.0589
   56MOL   C18527795   0.217   4.525   3.347 -0.1440  0.1904 -0.1242
   56MOL   H18627796   0.642   3.709   3.503 -0.4279  0.0911  0.1793
   56MOL   H18727797   0.635   3.736   3.679  1.0477  1.5965  0.9373
   56MOL   H18827798   0.713   3.952   3.484  1.2543  1.6231  1.7502
   56MOL   H18927799   0.443   3.858   3.396  0.9919  0.1364  1.5286
   56MOL   H19027800   0.547   3.985   3.367  2.6115  0.3197  1.8119
   56MOL   H19127801   0.278   4.024   3.513 -0.1072  1.2859  0.4506
   56MOL   H19227802   0.304   4.030   3.338 -1.4457  0.0143  0.9938
   56MOL   H19327803   0.451   4.228   3.524 -0.4846 -0.4961 -0.0303
   56MOL   H19427804   0.456   4.203   3.353 -2.5784  0.6356 -1.7308
   56MOL   H19527805   0.191   4.240   3.356 -1.8818 -0.2060  2.2287
   56MOL   H19627806   0.222   4.296   3.524  0.2977  1.2526  0.1757
   56MOL   H19727807   0.410   4.451   3.379 -0.3534 -0.5822  1.4524
   56MOL   H19827808   0.332   4.373   3.247  1.1907 -0.4333  0.6052
   56MOL   H19927809   0.191   4.555   3.448 -1.3119  0.1212 -0.3972
   56MOL   H20027810   0.256   4.615   3.300  1.9102 -0.4810  0.2501
   56MOL   H20127811   0.123   4.504   3.296  0.0603 -1.9816  0.3306
   56MOL   C20227812   0.722   3.990   3.694 -0.8170 -0.3250 -0.3301
   56MOL   C20327813   0.695   4.143   3.703 -0.0274  0.1278 -0.1961
   56MOL   O20427814   0.749   4.224   3.591  0.1665  0.1295 -0.4857
   56MOL   C20527815   0.892   4.209   3.551 -0.4183 -0.1694 -0.8714
   56MOL   C20627816   0.895   4.270   3.411  0.8074  0.2475 -0.0802
   56MOL   C20727817   1.041   4.294   3.353  0.5369  0.0924 -0.3299
   56MOL   C20827818   1.037   4.359   3.216 -0.0743 -0.4354 -0.1924
   56MOL   C20927819   1.179   4.423   3.175 -0.2872 -0.2962  0.4561
   56MOL   C21027820   1.175   4.479   3.037 -0.1847 -0.1414  0.1973
   56MOL   H21127821   0.668   3.949   3.779  0.6141 -0.4897  0.5245
   56MOL   H21227822   0.829   3.972   3.706 -0.3817  2.3927  0.1480
   56MOL   H21327823   0.586   4.149   3.713  0.0337  2.1511 -0.5361
   56MOL   H21427824   0.929   4.107   3.548  0.4070  0.1430 -1.6942
   56MOL   H21527825   0.947   4.267   3.626  0.5257 -0.4797 -1.3184
   56MOL   H21627826   0.848   4.367   3.425  1.8347  0.7361  0.0473
   56MOL   H21727827   0.830   4.215   3.342  1.7091 -0.3490 -0.4773
   56MOL   H21827828   1.090   4.366   3.418  1.8580 -0.5554 -0.5932
   56MOL   H21927829   1.097   4.201   3.357  0.1109 -0.1464  0.1953
   56MOL   H22027830   0.979   4.300   3.146  1.0808 -0.3938 -1.2019
   56MOL   H22127831   0.969   4.444   3.212 -2.6333 -2.4260 -0.4196
   56MOL   H22227832   1.198   4.508   3.240 -0.2043 -0.0269  0.0774
   56MOL   H22327833   1.269   4.363   3.183 -0.9815 -1.5128 -0.6189
   56MOL   H22427834   1.123   4.574   3.023 -0.1558 -0.2559 -0.7428
   56MOL   H22527835   1.278   4.506   3.012 -0.2402 -1.5962 -1.7019
   56MOL   H22627836   1.156   4.402   2.962 -1.4055  0.2607  0.0820
   56MOL   C22727837   0.746   4.207   3.833 -0.1244 -0.1101  0.0206
   56MOL   C22827838   0.696   4.351   3.855  0.1096  0.5143  0.4218
   56MOL   O22927839   0.558   4.355   3.871 -0.0854  0.1480 -0.1584
   56MOL   C23027840   0.489   4.469   3.823  0.1243  0.2007 -0.1251
   56MOL   C23127841   0.350   4.465   3.883  0.0362  0.3030 -0.2002
   56MOL   C23227842   0.280   4.601   3.874 -0.1674 -1.2855  0.4395
   56MOL   C23327843   0.145   4.610   3.939 -0.2393  0.3869  0.0057
   56MOL   C23427844   0.076   4.750   3.916 -0.0780  0.0060  0.8097
   56MOL   C23527845   7.714   4.750   3.964  0.7091  0.0911  0.6615
   56MOL   H23627846   0.712   4.134   3.907 -0.5480  0.1352  0.0645
   56MOL   H23727847   0.855   4.201   3.837 -0.0117 -0.3043 -2.5529
   56MOL   H23827848   0.718   4.409   3.765 -3.1433  2.7207  0.9697
   56MOL   H23927849   0.473   4.466   3.715 -1.1939 -0.1719  0.0717
   56MOL   H24027850   0.538   4.562   3.850 -1.4733  0.7807  0.8823
   56MOL   H24127851   0.353   4.433   3.988  0.0514 -1.5046 -0.7367
   56MOL   H24227852   0.286   4.405   3.818  2.4331 -2.5434 -0.0383
   56MOL   H24327853   0.354   4.660   3.927  0.7243 -2.7735  0.8883
   56MOL   H24427854   0.278   4.638   3.772  1.5501 -0.5495  0.6543
   56MOL   H24527855   0.077   4.533   3.902 -0.1109  0.9810 -1.4930
   56MOL   H24627856   0.151   4.595   4.047 -1.7670 -0.7899 -0.0546
   56MOL   H24727857   0.134   4.830   3.961  1.9213  0.3088 -2.2191
   56MOL   H24827858   0.076   4.754   3.807 -0.6523  0.3954  0.8160
   56MOL   H24927859   7.655   4.830   3.918  1.1097  1.4457  2.4282
   56MOL   H25027860   7.654   4.663   3.941 -1.2132  1.6050 -0.2517
   56MOL   H25127861   7.703   4.764   4.072 -0.5073 -0.2044  0.5764
   56MOL   C25227862   0.756   4.420   3.981 -0.2913  0.7647 -0.7000
   56MOL   C25327863   0.895   4.500   3.962 -0.2298 -0.2086  0.3812
   56MOL   O25427864   0.959   4.508   4.091 -0.2842 -0.1526  0.2903
   56MOL   C25527865   1.011   4.381   4.138 -0.1186  0.2479  0.6682
   56MOL   C25627866   1.099   4.400   4.262  0.1511  0.0117  0.2550
   56MOL   C25727867   1.000   4.469   4.369  0.1423 -0.1960 -0.1445
   56MOL   C25827868   1.082   4.536   4.482 -0.8848 -0.5479  0.1401
   56MOL   C25927869   0.997   4.588   4.597  0.7402  0.1829  0.3742
   56MOL   C26027870   1.085   4.668   4.697  1.0494 -0.0127  0.4391
   56MOL   H26127871   0.687   4.495   4.018 -0.3054  0.8165 -0.8332
   56MOL   H26227872   0.767   4.346   4.060 -1.3362 -2.3913 -3.3740
   56MOL   H26327873   0.963   4.448   3.895  0.1981 -0.8438  1.2996
   56MOL   H26427874   1.075   4.344   4.059 -0.4211  1.3946 -0.1363
   56MOL   H26527875   0.940   4.305   4.170 -1.2574  0.2132 -1.8355
   56MOL   H26627876   1.184   4.465   4.243  1.5687 -1.8146  0.1453
   56MOL   H26727877   1.132   4.309   4.312 -0.5795  0.4798  1.6210
   56MOL   H26827878   0.935   4.541   4.319  0.0790 -0.5720 -0.6106
   56MOL   H26927879   0.944   4.391   4.421  1.5743 -0.7726  0.5575
   56MOL   H27027880   1.159   4.475   4.530 -0.5224  0.6216  1.0747
   56MOL   H27127881   1.144   4.617   4.444 -1.6238  0.1552  0.4146
   56MOL   H27227882   0.912   4.648   4.567 -1.2845 -1.6482  2.2606
   56MOL   H27327883   0.955   4.507   4.657 -1.2454  0.3655 -0.7487
   56MOL   H27427884   1.139   4.609   4.771  0.9937 -3.0761 -1.8567
   56MOL   H27527885   1.149   4.743   4.651  1.3534  0.3450  1.4256
   56MOL   H27627886   1.023   4.733   4.759  3.1906 -0.0313  2.7053
   56MOL   C27727887   0.874   4.643   3.905  0.2330  0.1215  0.1614
   56MOL   C27827888   1.004   4.709   3.873  0.2775 -0.7211 -0.4776
   56MOL   O27927889   1.041   4.644   3.759  0.6010 -0.0170 -0.1300
   56MOL   C28027890   1.180   4.632   3.747 -0.2244 -0.1492  0.5694
   56MOL   C28127891   1.219   4.568   3.611 -0.6401  0.1669  0.1139
   56MOL   C28227892   1.367   4.551   3.599 -0.7132 -0.2831  0.7785
   56MOL   C28327893   1.412   4.468   3.478 -0.5056 -0.1071  0.4162
   56MOL   C28427894   1.564   4.470   3.444 -0.2038 -0.0697  0.7563
   56MOL   C28527895   1.605   4.379   3.328 -0.4817  0.2427 -0.0566
   56MOL   H28627896   0.820   4.635   3.811 -0.0478  1.8179  0.1610
   56MOL   H28727897   0.813   4.692   3.981 -1.9169  0.0233 -1.4557
   56MOL   H28827898   1.072   4.709   3.958  1.0205  0.8113 -1.0479
   56MOL   H28927899   1.212   4.582   3.838  0.7951  1.3343  1.0564
   56MOL   H29027900   1.213   4.735   3.762  0.2348 -0.1666 -0.2556
   56MOL   H29127901   1.185   4.634   3.531 -2.8214 -1.2463 -0.1331
   56MOL   H29227902   1.161   4.479   3.589  1.5280 -1.2465  0.0042
   56MOL   H29327903   1.423   4.644   3.597 -0.8408 -0.2211 -2.2853
   56MOL   H29427904   1.406   4.499   3.687 -0.0227 -0.1255  0.5705
   56MOL   H29527905   1.389   4.362   3.490 -2.8042  0.3309  0.2135
   56MOL   H29627906   1.358   4.502   3.390  1.0849 -0.2614 -0.6369
   56MOL   H29727907   1.586   4.570   3.408  0.6218 -0.9167 -1.1875
   56MOL   H29827908   1.629   4.456   3.530  2.6261 -0.6376 -1.4020
   56MOL   H29927909   1.707   4.396   3.293 -0.1529  0.4836  0.9748
   56MOL   H30027910   1.605   4.275   3.361 -1.0055  0.5301  0.8789
   56MOL   H30127911   1.533   4.376   3.247 -0.9977 -1.7640  0.4541
   56MOL   C30227912   0.987   4.863   3.841  0.1743 -0.1866 -0.1319
   56MOL   C30327913   1.013   4.959   3.961 -0.0487  0.0961 -0.0603
   56MOL   O30427914   0.897   4.936   4.037  0.2478  0.1246 -0.1346
   56MOL   C30527915   0.923   4.909   4.177  0.1492 -0.5110  0.8957
   56MOL   C30627916   0.790   4.901   4.244  0.4889  0.3973  0.1784
   56MOL   C30727917   0.817   4.874   4.399  0.0580 -0.9230  0.7266
   56MOL   C30827918   0.860   5.008   4.464 -0.0652 -0.1356  0.1071
   56MOL   C30927919   0.934   5.000   4.594  0.7347 -0.1421  0.8039
   56MOL   C31027920   0.993   5.135   4.617  0.1759 -0.5927 -0.1747
   56MOL   H31127921   1.037   4.886   3.747 -0.1444  0.1920 -0.2118
   56MOL   H31227922   0.887   4.891   3.804 -0.1839  1.4406  1.9664
   56MOL   H31327923   1.106   4.919   4.002  0.0574 -1.5903 -1.8524
   56MOL   H31427924   0.975   4.994   4.221 -0.4217  0.2239  0.1726
   56MOL   H31527925   0.986   4.820   4.186  2.0322  0.6165 -0.7076
   56MOL   H31627926   0.724   4.828   4.197  1.1680  0.3907 -0.7720
   56MOL   H31727927   0.754   5.003   4.232  0.2120  0.5525  2.1942
   56MOL   H31827928   0.734   4.823   4.447  0.2461 -2.2145 -0.2687
   56MOL   H31927929   0.907   4.812   4.402  0.9755  0.3725  0.4929
   56MOL   H32027930   0.903   5.075   4.390  2.6563 -1.3933  0.4640
   56MOL   H32127931   0.771   5.055   4.505 -0.0558 -0.8017  0.9174
   56MOL   H32227932   0.850   4.987   4.662  1.8841 -3.1710  1.7643
   56MOL   H32327933   1.003   4.916   4.587  0.2381 -0.5888  1.1693
   56MOL   H32427934   0.920   5.216   4.618 -0.5433 -1.2226  2.4324
   56MOL   H32527935   1.044   5.126   4.713  0.0303 -3.1264 -0.3192
   56MOL   H32627936   1.068   5.161   4.542  0.8895  1.7891  1.2978
   56MOL   C32727937   1.030   5.105   3.935 -0.5177  0.0927 -0.5246
   56MOL   C32827938   1.176   5.148   3.879 -0.1834 -0.0500 -0.6636
   56MOL   O32927939   1.162   5.282   3.828 -0.3087  0.0487  0.0505
   56MOL   C33027940   1.117   5.294   3.692 -0.0684 -0.0526 -0.6170
   56MOL   C33127941   1.132   5.442   3.650  0.6349 -0.1734  0.3619
   56MOL   C33227942   1.063   5.473   3.520  0.5929 -0.2950 -0.4917
   56MOL   C33327943   1.096   5.622   3.483 -0.2428  0.5761  0.1979
   56MOL   C33427944   1.013   5.671   3.362  0.4040  0.5159  0.0292
   56MOL   C33527945   1.060   5.614   3.229 -0.3132  0.0728 -0.4853
   56MOL   H33627946   1.000   5.157   4.026  0.1635 -1.5642  0.6809
   56MOL   H33727947   0.950   5.124   3.862 -1.1267 -0.9455 -0.1410
   56MOL   H33827948   1.183   5.082   3.793 -1.0276 -0.5122 -0.3854
   56MOL   H33927949   1.016   5.255   3.692 -0.2204  0.2889  1.2164
   56MOL   H34027950   1.172   5.227   3.626  1.7359 -1.5393  2.2777
   56MOL   H34127951   1.237   5.467   3.635  0.5447 -0.5415 -0.9407
   56MOL   H34227952   1.102   5.499   3.737  0.7698 -0.6606  0.7326
   56MOL   H34327953   1.094   5.411   3.436 -1.1295  0.3313 -1.6224
   56MOL   H34427954   0.956   5.457   3.536  0.4847 -0.1323 -1.0159
   56MOL   H34527955   1.084   5.681   3.573 -1.0427  1.1591 -0.2865
   56MOL   H34627956   1.203   5.628   3.462  0.0462  0.1311  1.5033
   56MOL   H34727957   0.907   5.655   3.381  0.2785  1.0052 -0.2451
   56MOL   H34827958   1.018   5.780   3.360  1.5052  0.4940  1.0543
   56MOL   H34927959   0.986   5.639   3.152 -0.9493 -0.2808  0.0019
   56MOL   H35027960   1.159   5.655   3.211 -0.4832 -0.1127 -1.8931
   56MOL   H35127961   1.074   5.506   3.234  0.0662  0.1384 -0.1721
   56MOL   C35227962   1.304   5.126   3.963  0.5719 -0.3096  0.0413
   56MOL   C35327963   1.442   5.140   3.900  1.0697 -0.1261  0.3032
   56MOL   O35427964   1.472   5.024   3.822 -0.1922  0.5851 -0.6782
   56MOL   C35527965   1.448   5.040   3.681 -0.5660  0.3979 -0.7188
   56MOL   C35627966   1.507   4.920   3.604  0.5029  0.3299  0.2979
   56MOL   C35727967   1.656   4.911   3.586  0.2976 -0.1946 -0.2399
   56MOL   C35827968   1.701   4.779   3.536  0.1158  0.6117  0.3524
   56MOL   C35927969   1.854   4.765   3.520 -0.0206 -0.4566  0.7671
   56MOL   C36027970   1.895   4.625   3.477 -0.2341  0.1515 -0.2392
   56MOL   H36127971   1.303   5.195   4.047 -0.1278 -0.2099 -0.0468
   56MOL   H36227972   1.290   5.031   4.014 -0.5580 -0.2224 -0.0857
   56MOL   H36327973   1.443   5.231   3.841  3.1882 -0.4979 -0.2981
   56MOL   H36427974   1.505   5.127   3.649  1.1869 -0.4662 -0.0211
   56MOL   H36527975   1.344   5.059   3.658 -0.9998 -1.6556 -0.6127
   56MOL   H36627976   1.455   4.933   3.509  1.5972 -0.8318 -0.4826
   56MOL   H36727977   1.467   4.833   3.655  1.2347  0.7401  1.5947
   56MOL   H36827978   1.696   4.981   3.512 -0.1447  0.1054 -0.1982
   56MOL   H36927979   1.706   4.924   3.682  0.5198  1.0851 -0.5209
   56MOL   H37027980   1.662   4.703   3.604 -0.3590  1.9272  1.5525
   56MOL   H37127981   1.657   4.761   3.437  3.3914 -0.6376 -0.9280
   56MOL   H37227982   1.893   4.838   3.449  1.3949 -0.0712  1.9236
   56MOL   H37327983   1.909   4.784   3.612  0.8300  0.6756  0.0353
   56MOL   H37427984   1.850   4.597   3.381  3.2262 -0.3297 -1.7858
   56MOL   H37527985   2.003   4.619   3.465 -0.4299  0.5311 -2.6012
   56MOL   H37627986   1.874   4.553   3.556  0.8135  0.3070  0.1739
   56MOL   C37727987   1.549   5.145   4.009  0.2974  0.0422 -0.9349
   56MOL   C37827988   1.694   5.146   3.955  0.3233 -0.2243 -0.0923
   56MOL   O37927989   1.790   5.154   4.062  0.0602 -0.0865  0.1055
   56MOL   C38027990   1.843   5.027   4.107  0.6562 -0.2459 -0.1036
   56MOL   C38127991   1.911   5.048   4.240 -0.3970  0.0191 -0.2098
   56MOL   C38227992   1.814   5.054   4.355  0.3039 -0.5610 -0.3002
   56MOL   C38327993   1.865   5.097   4.498 -0.6835  0.0538 -0.0715
   56MOL   C38427994   1.763   5.104   4.615 -0.7855  0.1552 -0.7646
   56MOL   C38527995   1.825   5.128   4.759  0.9528  0.2671  0.1659
   56MOL   H38627996   1.544   5.230   4.077 -0.0881  0.2882 -1.2702
   56MOL   H38727997   1.527   5.052   4.063 -1.5697  1.6870  1.2052
   56MOL   H38827998   1.715   5.059   3.892  0.4831 -0.6893  0.5923
   56MOL   H38927999   1.919   5.015   4.030  0.0840  1.1258 -0.8871
   56MOL   H39028000   1.771   4.945   4.106  0.1007  0.2521 -1.2849
   56MOL   H39128001   1.962   5.143   4.223 -0.8956  0.6453  1.6950
   56MOL   H39228002   1.977   4.964   4.261 -0.3233  0.0666 -0.2509
   56MOL   H39328003   1.729   5.115   4.325  0.4216  0.1832  0.8764
   56MOL   H39428004   1.775   4.952   4.366  1.9125 -1.0999  0.5199
   56MOL   H39528005   1.928   5.013   4.526  0.3343  0.4327 -1.1743
   56MOL   H39628006   1.905   5.198   4.487 -3.1681  1.0502 -0.3720
   56MOL   H39728007   1.687   5.177   4.587 -1.3541 -0.4900 -0.9317
   56MOL   H39828008   1.708   5.009   4.622  1.0051 -0.9512 -1.4566
   56MOL   H39928009   1.759   5.081   4.831  0.1658  0.3842 -0.4706
   56MOL   H40028010   1.926   5.088   4.760  1.0578  0.5138 -0.2610
   56MOL   H40128011   1.825   5.236   4.776 -3.6501  0.1298  1.5977
   56MOL   C40228012   1.715   5.277   3.865  0.2625 -0.5286 -0.0281
   56MOL   C40328013   1.854   5.286   3.807 -0.1726  0.2771 -0.0052
   56MOL   O40428014   1.860   5.389   3.716  0.0201  0.1766  0.1719
   56MOL   C40528015   1.917   5.516   3.758  0.2055 -0.1475 -0.0765
   56MOL   C40628016   1.944   5.591   3.629  0.1567  0.1215  0.3441
   56MOL   C40728017   1.814   5.645   3.574  0.0766  0.3648  0.5322
   56MOL   C40828018   1.805   5.671   3.421 -0.2735  0.4526  0.1504
   56MOL   C40928019   1.661   5.696   3.383  0.3407  0.3607 -0.0943
   56MOL   C41028020   1.629   5.670   3.230  0.1064  0.1672  0.4833
   56MOL   H41128021   1.699   5.377   3.906  0.2936  0.4116 -2.2507
   56MOL   H41228022   1.654   5.275   3.775 -0.6086  0.0954  0.5392
   56MOL   H41328023   1.933   5.313   3.877  1.9096 -0.4739 -2.0005
   56MOL   H41428024   2.015   5.508   3.805  0.3499  1.3916 -0.0979
   56MOL   H41528025   1.846   5.557   3.830  0.0161 -0.7394  0.0819
   56MOL   H41628026   1.993   5.532   3.552  0.5045  1.4530 -0.4767
   56MOL   H41728027   2.012   5.674   3.651  0.1890  0.1602  0.0986
   56MOL   H41828028   1.749   5.560   3.596  0.0529  0.3411  0.3738
   56MOL   H41928029   1.784   5.731   3.634  2.3945  1.8963 -0.4279
   56MOL   H42028030   1.862   5.762   3.398  0.8300  0.1192  1.4994
   56MOL   H42128031   1.847   5.583   3.373 -0.4896 -0.1118  0.9820
   56MOL   H42228032   1.592   5.634   3.439  2.8623 -0.9734  1.5906
   56MOL   H42328033   1.636   5.802   3.395 -1.9822 -0.0868 -0.7085
   56MOL   H42428034   1.524   5.693   3.211 -0.9473 -2.5352  2.6881
   56MOL   H42528035   1.683   5.735   3.161 -1.6407  0.2521 -0.8645
   56MOL   H42628036   1.652   5.570   3.192 -0.9488 -0.2620  0.9475
   56MOL   C42728037   1.903   5.169   3.715 -0.6732 -0.3755  0.0871
   56MOL   C42828038   2.054   5.172   3.690  0.2831  0.9194 -0.1409
   56MOL   O42928039   2.124   5.172   3.814  0.2510 -0.5128  0.2597
   56MOL   C43028040   2.250   5.243   3.828  0.4123 -1.1116  0.3037
   56MOL   C43128041   2.307   5.226   3.969 -0.3480  0.2552 -0.1390
   56MOL   C43228042   2.246   5.324   4.070  0.3222 -0.7562  0.3499
   56MOL   C43328043   2.307   5.313   4.212 -0.4895 -0.9873  0.5129
   56MOL   C43428044   2.457   5.314   4.224  0.0643 -0.3163 -0.2293
   56MOL   C43528045   2.510   5.305   4.375  0.3419 -0.3119  0.3048
   56MOL   H43628046   1.887   5.073   3.763 -0.0016  0.0033  1.0690
   56MOL   H43728047   1.845   5.171   3.622 -0.0067 -1.8497 -0.3781
   56MOL   H43828048   2.069   5.271   3.648  2.4263  0.9929  0.7276
   56MOL   H43928049   2.221   5.344   3.802 -2.9886 -1.4347  2.5242
   56MOL   H44028050   2.311   5.204   3.746 -2.2653 -2.1529 -1.2642
   56MOL   H44128051   2.416   5.228   3.966 -0.2665  0.2383  1.7408
   56MOL   H44228052   2.283   5.124   3.999 -1.0067  0.1251 -1.1006
   56MOL   H44328053   2.260   5.426   4.033  1.2770 -0.2273  2.0748
   56MOL   H44428054   2.139   5.307   4.061  0.3645 -0.3601 -1.0214
   56MOL   H44528055   2.262   5.395   4.268  2.2184  1.5031 -0.8063
   56MOL   H44628056   2.271   5.223   4.261 -0.7874 -0.2489  1.6649
   56MOL   H44728057   2.510   5.235   4.170  1.6123 -0.2554  1.1552
   56MOL   H44828058   2.491   5.405   4.174  0.7089 -1.4795 -1.9530
   56MOL   H44928059   2.617   5.286   4.373  0.2326 -0.8843 -2.8678
   56MOL   H45028060   2.481   5.394   4.431  0.5052  0.4725 -0.8303
   56MOL   H45128061   2.454   5.225   4.424  1.1157  0.6942  2.9048
   56MOL   C45228062   2.111   5.070   3.597  0.0772  0.0602  0.0153
   56MOL   C45328063   2.113   5.122   3.447 -0.3874  0.6563  0.2146
   56MOL   O45428064   1.977   5.136   3.410 -0.0884  0.5164 -0.2603
   56MOL   C45528065   1.967   5.249   3.322 -0.0222 -0.3099  0.1780
   56MOL   C45628066   1.830   5.251   3.260 -0.5239 -0.0146  0.2155
   56MOL   C45728067   1.706   5.268   3.351 -0.1531  0.3522 -0.3975
   56MOL   C45828068   1.583   5.225   3.269 -0.4636 -0.4522  0.4108
   56MOL   C45928069   1.445   5.247   3.331  0.3297  0.1444 -0.1252
   56MOL   C46028070   1.323   5.191   3.264 -0.7257 -0.0073 -0.1689
   56MOL   H46128071   2.209   5.039   3.632 -0.8197 -0.4082  2.1609
   56MOL   H46228072   2.051   4.980   3.581  0.3622  0.2344 -2.1951
   56MOL   H46328073   2.178   5.209   3.434  0.8395 -0.1761  0.7397
   56MOL   H46428074   2.049   5.241   3.250  0.8625 -1.1031  1.2560
   56MOL   H46528075   1.980   5.335   3.389  0.6163 -1.4448  1.5512
   56MOL   H46628076   1.830   5.161   3.198 -0.9971 -0.4667  0.8681
   56MOL   H46728077   1.835   5.336   3.192  0.1634  0.4567  0.8580
   56MOL   H46828078   1.729   5.212   3.441 -2.3138 -0.4889 -0.3553
   56MOL   H46928079   1.694   5.372   3.383  0.6085  0.6139 -0.9253
   56MOL   H47028080   1.575   5.277   3.173 -0.5700 -0.6795  0.2951
   56MOL   H47128081   1.586   5.121   3.236 -1.4321 -0.1520 -0.6837
   56MOL   H47228082   1.441   5.205   3.431 -0.8468 -0.9855 -0.6241
   56MOL   H47328083   1.427   5.353   3.349 -1.1983  0.0103 -0.7600
   56MOL   H47428084   1.316   5.207   3.156  0.2841 -0.1348 -0.2503
   56MOL   H47528085   1.313   5.085   3.285  0.2156  0.0837  0.7458
   56MOL   H47628086   1.235   5.244   3.300 -0.9482  0.6478 -1.6331
   56MOL   C47728087   2.181   5.022   3.353  0.5514  0.1934  0.2932
   56MOL   C47828088   2.335   5.020   3.363 -0.6870  0.2951  0.1295
   56MOL   O47928089   2.377   4.907   3.446 -0.1734 -0.0044 -0.3755
   56MOL   C48028090   2.520   4.885   3.448  0.0086 -0.1476  0.0311
   56MOL   C48128091   2.591   4.986   3.534 -0.1740 -0.1430 -0.2464
   56MOL   C48228092   2.566   4.969   3.679  0.9236 -0.0109 -0.2565
   56MOL   C48328093   2.652   5.057   3.773 -0.2658  0.2113 -0.3539
   56MOL   C48428094   2.624   5.026   3.919 -0.1955  0.7601  0.0260
   56MOL   C48528095   2.711   5.121   4.004  0.1316  0.0544  0.4012
   56MOL   H48628096   2.136   4.925   3.369 -2.3276  1.3753 -0.3293
   56MOL   H48728097   2.150   5.047   3.251  0.3339  2.4425  0.8832
   56MOL   H48828098   2.376   5.001   3.264  0.7913  0.1059  0.7634
   56MOL   H48928099   2.555   4.895   3.345  1.1695  3.0142  0.6676
   56MOL   H49028100   2.541   4.784   3.483  1.7124  1.0004  2.4697
   56MOL   H49128101   2.568   5.090   3.511 -1.0675  0.0074  1.2486
   56MOL   H49228102   2.700   4.980   3.526 -0.0316  3.0362 -1.2149
   56MOL   H49328103   2.459   4.979   3.696  0.8726  0.0239 -0.5925
   56MOL   H49428104   2.584   4.863   3.696  0.8379 -0.1851 -1.2056
   56MOL   H49528105   2.758   5.043   3.751 -0.4864  0.3876 -1.5599
   56MOL   H49628106   2.635   5.162   3.751  1.6338  1.0390  1.8484
   56MOL   H49728107   2.518   5.029   3.944 -0.1887  2.4621 -0.0968
   56MOL   H49828108   2.651   4.921   3.933  1.0110  1.0792  0.2092
   56MOL   H49928109   2.670   5.222   4.000  0.3303  0.1231  0.0319
   56MOL   H50028110   2.706   5.099   4.110  1.3649  1.5062  0.7903
   56MOL   H50128111   2.818   5.118   3.982  0.0634 -1.9955  0.3273
   56MOL   H50228112   2.381   5.113   3.398 -0.6177  0.0905  0.5845
   57MOL     C128113   6.161   4.661   5.854  0.0313  0.0782 -0.0621
   57MOL     C228114   6.154   4.783   5.946  0.1132  0.2232  0.1616
   57MOL     O328115   6.279   4.818   6.006 -0.3693 -0.0258 -0.0612
   57MOL     C428116   6.301   4.960   5.998 -0.6211 -0.0132 -0.0445
   57MOL     C528117   6.431   4.993   6.068 -0.8123 -1.0277 -1.1214
   57MOL     C628118   6.546   4.933   5.990  0.6014 -0.1804 -0.0975
   57MOL     C728119   6.686   4.940   6.051 -0.8875 -0.7298  1.2440
   57MOL     C828120   6.718   5.076   6.118  0.3291 -0.5678  0.0971
   57MOL     C928121   6.732   5.197   6.027  0.7677  0.1273 -0.0731
   57MOL    H1028122   6.231   4.689   5.775 -0.8339 -0.1964 -0.9310
   57MOL    H1128123   6.201   4.570   5.899 -1.5150 -0.7617 -0.3644
   57MOL    H1228124   6.117   4.862   5.880  0.5246 -1.0564 -1.6425
   57MOL    H1328125   6.221   5.008   6.054 -0.5989 -0.0359  0.0059
   57MOL    H1428126   6.286   4.996   5.896 -0.9441 -1.1121 -0.3965
   57MOL    H1528127   6.433   4.933   6.159  1.2342  0.7304  0.0575
   57MOL    H1628128   6.447   5.100   6.085 -0.2503 -0.9792 -1.9028
   57MOL    H1728129   6.529   4.825   5.984  0.2531 -0.1616  0.5087
   57MOL    H1828130   6.548   4.979   5.891 -1.2183 -0.0381 -0.0846
   57MOL    H1928131   6.694   4.861   6.125  1.5723 -1.0716  0.6405
   57MOL    H2028132   6.765   4.928   5.976 -3.3090 -2.7793 -1.0554
   57MOL    H2128133   6.818   5.072   6.161  0.0992 -0.4107  0.6501
   57MOL    H2228134   6.644   5.101   6.195 -1.1871 -0.1968 -1.4306
   57MOL    H2328135   6.647   5.212   5.960  0.5964 -0.0372  0.1040
   57MOL    H2428136   6.763   5.290   6.074  1.8440  0.3632 -1.2405
   57MOL    H2528137   6.800   5.176   5.945 -1.5713  2.9503 -2.8809
   57MOL    H2628138   6.060   4.635   5.823 -0.1415  0.3900  0.2461
   57MOL    C2728139   6.041   4.772   6.051 -0.1348  0.2024 -0.3957
   57MOL    C2828140   6.075   4.754   6.199 -0.5803  0.3258 -0.1898
   57MOL    O2928141   5.959   4.787   6.271 -0.6158  0.2782  0.2986
   57MOL    C3028142   5.936   4.924   6.306  0.1136  0.8088  1.1674
   57MOL    C3128143   5.825   4.914   6.406 -0.0810  0.1696  0.0530
   57MOL    C3228144   5.858   4.868   6.558  0.0596  0.2398  0.2512
   57MOL    C3328145   5.735   4.850   6.657 -0.1259  0.8841 -0.1331
   57MOL    C3428146   5.769   4.848   6.806  0.7375  0.2309  0.0936
   57MOL    C3528147   5.642   4.816   6.883 -0.1504 -0.3740  0.2093
   57MOL    H3628148   6.002   4.873   6.038  0.2838  0.2815 -1.0780
   57MOL    H3728149   5.963   4.700   6.027 -0.2183  0.0294  0.3960
   57MOL    H3828150   6.154   4.825   6.226  1.0231 -1.0996 -1.0393
   57MOL    H3928151   5.906   4.976   6.214 -0.5297 -1.6682 -0.0548
   57MOL    H4028152   6.028   4.972   6.338 -0.5359  2.9772 -0.0366
   57MOL    H4128153   5.747   4.845   6.373  1.4029 -2.2385  1.3495
   57MOL    H4228154   5.766   5.006   6.408 -1.6373 -0.7692 -1.1238
   57MOL    H4328155   5.905   4.770   6.547  1.2456  0.7222  1.0061
   57MOL    H4428156   5.937   4.933   6.596 -0.1360 -0.4842  1.9463
   57MOL    H4528157   5.662   4.929   6.639 -0.3746  0.5413 -0.6694
   57MOL    H4628158   5.686   4.756   6.630  0.7475  0.0402  1.1700
   57MOL    H4728159   5.834   4.761   6.819  1.0743  0.4086 -0.3724
   57MOL    H4828160   5.821   4.933   6.849  0.3566 -1.0129  3.1358
   57MOL    H4928161   5.605   4.718   6.855  2.8831 -1.9913  1.5253
   57MOL    H5028162   5.666   4.817   6.990  1.6639 -1.2453 -0.1683
   57MOL    H5128163   5.580   4.903   6.862  1.4173  0.6039 -0.4586
   57MOL    C5228164   6.105   4.603   6.225  0.4529  0.5888  0.3430
   57MOL    C5328165   6.215   4.576   6.329  0.4419 -0.2464  1.1433
   57MOL    O5428166   6.221   4.434   6.346  0.1475 -0.6320 -0.1986
   57MOL    C5528167   6.108   4.386   6.420  0.0044  0.4831 -0.1472
   57MOL    C5628168   6.137   4.241   6.466  0.0809  0.4730  0.1386
   57MOL    C5728169   6.157   4.149   6.343  0.2601  0.5023  0.4043
   57MOL    C5828170   6.142   4.003   6.368  0.1252 -0.1443 -0.5010
   57MOL    C5928171   6.197   3.927   6.247 -0.1493  1.0540  0.8881
   57MOL    C6028172   6.192   3.774   6.271 -0.4128 -0.3831 -0.5945
   57MOL    H6128173   6.139   4.561   6.131  0.6928  1.0775  0.2094
   57MOL    H6228174   6.010   4.551   6.239  1.5398 -1.4313  0.2826
   57MOL    H6328175   6.193   4.639   6.415 -1.6150 -0.4881  0.8183
   57MOL    H6428176   6.011   4.394   6.372 -0.9680 -0.5174  1.5915
   57MOL    H6528177   6.100   4.455   6.503  1.0567 -0.0624  0.4175
   57MOL    H6628178   6.063   4.206   6.539 -0.8180 -2.4699 -2.0791
   57MOL    H6728179   6.227   4.250   6.527 -1.6032 -1.0929  2.9684
   57MOL    H6828180   6.074   4.175   6.278  1.8553  0.1122 -1.8680
   57MOL    H6928181   6.246   4.166   6.281  0.2875 -0.0818  0.2743
   57MOL    H7028182   6.192   3.965   6.458 -0.4688 -0.3241 -0.2434
   57MOL    H7128183   6.036   3.985   6.385  0.6500 -0.8682  2.3379
   57MOL    H7228184   6.143   3.950   6.155 -0.6559  0.5929  1.0639
   57MOL    H7328185   6.299   3.960   6.229  0.2890 -0.0898  1.2221
   57MOL    H7428186   6.237   3.742   6.365  1.3167 -0.9374 -1.5734
   57MOL    H7528187   6.087   3.748   6.282 -0.5444  0.0188 -0.8748
   57MOL    H7628188   6.236   3.714   6.192 -0.3458  0.3990 -1.1617
   57MOL    C7728189   6.360   4.621   6.278  0.0745  0.9494 -0.2576
   57MOL    C7828190   6.487   4.576   6.358 -0.1298 -0.3669  0.0308
   57MOL    O7928191   6.483   4.630   6.492 -0.0231  0.7027  0.4282
   57MOL    C8028192   6.456   4.527   6.593  0.9633 -0.5869 -0.2447
   57MOL    C8128193   6.577   4.485   6.673  0.2686 -0.1339  0.2711
   57MOL    C8228194   6.549   4.356   6.756 -0.5607 -0.2326 -0.7115
   57MOL    C8328195   6.674   4.298   6.830  0.1568 -0.0467 -0.0991
   57MOL    C8428196   6.736   4.394   6.933  0.0811  0.1126 -0.4743
   57MOL    C8528197   6.809   4.329   7.050  0.1042 -0.4352  0.0234
   57MOL    H8628198   6.354   4.729   6.261 -0.8259  1.4367  2.9161
   57MOL    H8728199   6.358   4.583   6.176  1.3802  0.3772 -0.0772
   57MOL    H8828200   6.491   4.468   6.348  3.2931 -0.2394 -0.7450
   57MOL    H8928201   6.407   4.440   6.547 -1.6113  1.4625 -1.4961
   57MOL    H9028202   6.386   4.561   6.668  1.2603 -0.0392 -0.2184
   57MOL    H9128203   6.599   4.566   6.742  0.7406 -0.5477  0.6067
   57MOL    H9228204   6.673   4.485   6.622 -0.6041  0.3801 -1.4261
   57MOL    H9328205   6.464   4.375   6.822 -1.3489 -0.5822 -1.6128
   57MOL    H9428206   6.517   4.280   6.684 -0.0681  0.1018 -1.2804
   57MOL    H9528207   6.636   4.219   6.896 -0.4238 -0.1473 -0.5466
   57MOL    H9628208   6.753   4.261   6.765  1.1510  0.4900  0.7910
   57MOL    H9728209   6.810   4.459   6.886 -0.8754  1.5177 -0.0851
   57MOL    H9828210   6.655   4.456   6.973  0.3844  1.4239 -1.8439
   57MOL    H9928211   6.855   4.404   7.113  0.3358  1.6027 -2.4867
   57MOL   H10028212   6.741   4.273   7.114 -2.6341  1.4495 -1.1456
   57MOL   H10128213   6.889   4.268   7.007  0.3556  0.5037 -0.8532
   57MOL   C10228214   6.615   4.637   6.288 -0.2937  0.4822 -0.5044
   57MOL   C10328215   6.742   4.556   6.326 -0.3216  0.0518  0.0253
   57MOL   O10428216   6.738   4.449   6.236 -0.3682  0.2612  0.4242
   57MOL   C10528217   6.779   4.327   6.293 -0.3373 -0.0980 -0.0045
   57MOL   C10628218   6.755   4.231   6.175 -0.5821  1.2125  0.6085
   57MOL   C10728219   6.817   4.093   6.168  0.6414 -0.1023  0.6008
   57MOL   C10828220   6.720   3.995   6.102 -0.3615  1.0124 -0.3645
   57MOL   C10928221   6.773   3.855   6.087 -0.0007 -0.4173 -0.4820
   57MOL   C11028222   6.681   3.763   6.009  0.0072  0.2343 -0.0819
   57MOL   H11128223   6.601   4.631   6.180 -0.4607  0.1679 -0.4656
   57MOL   H11228224   6.623   4.743   6.309 -0.2930  0.6827 -1.5052
   57MOL   H11328225   6.722   4.530   6.430  1.5144  2.0403  0.9224
   57MOL   H11428226   6.713   4.283   6.367 -1.7714 -0.0962 -1.2566
   57MOL   H11528227   6.879   4.337   6.335 -0.5757  0.4100  0.4446
   57MOL   H11628228   6.772   4.285   6.082 -2.9965  1.4825  0.2992
   57MOL   H11728229   6.647   4.214   6.179 -0.8505  3.1006  2.3349
   57MOL   H11828230   6.908   4.099   6.109 -0.0439  2.3638 -0.2472
   57MOL   H11928231   6.840   4.059   6.269 -1.1413 -0.4988  0.8911
   57MOL   H12028232   6.634   3.995   6.168  1.9283  0.6135  2.7457
   57MOL   H12128233   6.689   4.026   6.003 -0.5737  1.3615 -0.1891
   57MOL   H12228234   6.865   3.872   6.031  0.9569 -0.0040  1.1547
   57MOL   H12328235   6.805   3.806   6.179 -0.5637 -0.5537 -0.3630
   57MOL   H12428236   6.691   3.658   6.036 -2.7608  0.6196  2.7183
   57MOL   H12528237   6.573   3.777   6.016  0.0893  0.0461  1.7055
   57MOL   H12628238   6.709   3.761   5.903 -0.5478 -1.0430 -0.2144
   57MOL   C12728239   6.880   4.629   6.306 -0.1502  0.1674 -1.2068
   57MOL   C12828240   6.925   4.739   6.409 -0.4039  0.1419  0.6917
   57MOL   O12928241   7.044   4.799   6.365  0.4037 -0.0073 -0.3528
   57MOL   C13028242   7.033   4.898   6.264 -0.3175  0.6341  0.1111
   57MOL   C13128243   7.170   4.972   6.254  0.4913  0.0099  0.0240
   57MOL   C13228244   7.158   5.103   6.184 -0.0764 -0.7349  0.3969
   57MOL   C13328245   7.285   5.191   6.187  0.2577 -0.2251  0.3326
   57MOL   C13428246   7.297   5.288   6.074  0.9397  0.6388  0.1067
   57MOL   C13528247   7.415   5.377   6.104 -0.5508  0.0912  0.4534
   57MOL   H13628248   6.953   4.548   6.303 -0.8056 -0.4977  0.4627
   57MOL   H13728249   6.878   4.680   6.210  1.4830  1.2928 -0.6665
   57MOL   H13828250   6.848   4.815   6.424  0.9082  1.1616  2.3803
   57MOL   H13928251   6.953   4.971   6.276 -1.7614 -0.4422 -2.3889
   57MOL   H14028252   7.011   4.844   6.171 -0.9857  0.8353  0.1464
   57MOL   H14128253   7.253   4.916   6.212 -1.3809 -1.6444 -1.5888
   57MOL   H14228254   7.197   4.998   6.356  0.8548  1.3098 -0.3911
   57MOL   H14328255   7.139   5.074   6.080  1.9587 -1.1231  0.1247
   57MOL   H14428256   7.067   5.161   6.203  0.2200  0.6856 -2.2431
   57MOL   H14528257   7.275   5.237   6.284 -1.7250 -2.5971  1.3035
   57MOL   H14628258   7.381   5.139   6.186  0.2297 -0.2673 -0.2263
   57MOL   H14728259   7.310   5.238   5.978  2.3503  1.8470 -0.3516
   57MOL   H14828260   7.212   5.356   6.065  0.3697 -0.4275 -3.2258
   57MOL   H14928261   7.417   5.417   6.206 -0.6920 -0.5567  0.7102
   57MOL   H15028262   7.510   5.335   6.071 -1.6661 -0.3765 -2.3177
   57MOL   H15128263   7.405   5.469   6.047  0.9061 -0.5140 -0.8266
   57MOL   C15228264   6.962   4.675   6.538  0.2292  0.5398 -0.2703
   57MOL   C15328265   6.958   4.773   6.654  0.0269 -0.3605  0.0573
   57MOL   O15428266   6.816   4.801   6.679 -0.6168 -0.8302  0.1068
   57MOL   C15528267   6.783   4.928   6.721 -0.0304 -0.1716  0.4077
   57MOL   C15628268   6.636   4.949   6.685  0.5347  1.1554 -0.3570
   57MOL   C15728269   6.595   4.934   6.544  0.7666  0.3593  0.6114
   57MOL   C15828270   6.443   4.956   6.517  0.3867 -0.0747  0.3874
   57MOL   C15928271   6.400   5.103   6.520  0.8322 -0.5203  0.1133
   57MOL   C16028272   6.248   5.127   6.519 -0.5990 -0.4934 -0.2745
   57MOL   H16128273   6.891   4.595   6.557  0.2274  0.6469  0.1758
   57MOL   H16228274   7.060   4.630   6.525  0.1279  0.2852 -0.1421
   57MOL   H16328275   7.014   4.863   6.628  1.2834 -1.1782 -0.1068
   57MOL   H16428276   6.849   5.001   6.674  0.8080 -1.3777 -0.3394
   57MOL   H16528277   6.791   4.929   6.830 -1.8225 -2.5532  0.6076
   57MOL   H16628278   6.620   5.050   6.723  1.9230  1.3886 -0.3700
   57MOL   H16728279   6.578   4.872   6.737 -1.1851  2.4303 -0.3428
   57MOL   H16828280   6.651   5.006   6.485 -0.9185  0.8411 -0.4179
   57MOL   H16928281   6.621   4.839   6.496  1.0803  1.1453 -0.7878
   57MOL   H17028282   6.412   4.924   6.418 -1.0789  0.2258  0.7360
   57MOL   H17128283   6.377   4.901   6.584  0.3656  0.0572  0.4751
   57MOL   H17228284   6.446   5.156   6.604 -0.2191  2.7577 -1.3041
   57MOL   H17328285   6.438   5.157   6.434 -0.3873 -1.6441 -1.1691
   57MOL   H17428286   6.195   5.100   6.428 -0.9578 -1.4759  0.2166
   57MOL   H17528287   6.205   5.083   6.609 -3.3793  2.7880  0.1044
   57MOL   H17628288   6.224   5.232   6.537 -1.2458 -0.7015  0.0851
   57MOL   C17728289   7.017   4.714   6.785 -0.4745 -0.4963  0.8516
   57MOL   C17828290   7.172   4.694   6.789 -0.3472  0.0499  0.3355
   57MOL   O17928291   7.245   4.811   6.746 -0.2174  0.0349 -0.2343
   57MOL   C18028292   7.299   4.825   6.614 -0.4118 -0.2687  0.6761
   57MOL   C18128293   7.433   4.750   6.609 -0.2866 -0.0531 -0.5118
   57MOL   C18228294   7.553   4.805   6.694  0.1586  0.0486  0.0066
   57MOL   C18328295   7.685   4.724   6.663 -0.2730  0.4455  0.1340
   57MOL   C18428296   7.671   4.579   6.707  0.6411  0.3843  0.1340
   57MOL   C18528297   7.637   4.544   6.851 -0.1909 -0.5977  0.2880
   57MOL   H18628298   6.989   4.775   6.871 -0.2353 -1.9550  1.9893
   57MOL   H18728299   6.973   4.616   6.804  0.3551 -1.2414 -0.9887
   57MOL   H18828300   7.192   4.618   6.714  0.1403  0.4050  0.1026
   57MOL   H18928301   7.312   4.930   6.588 -1.9489 -0.0279  0.7980
   57MOL   H19028302   7.234   4.786   6.535  0.3688  0.3273 -0.2739
   57MOL   H19128303   7.460   4.756   6.504 -1.5109 -0.8317 -0.8887
   57MOL   H19228304   7.421   4.646   6.637 -0.4558 -0.1100 -0.7893
   57MOL   H19328305   7.570   4.908   6.661  0.1699 -0.3318 -1.2177
   57MOL   H19428306   7.516   4.804   6.796 -4.1763 -0.0456 -1.4288
   57MOL   H19528307   7.706   4.720   6.556 -0.8584  0.7822  0.0012
   57MOL   H19628308   7.767   4.778   6.709  0.0871  0.7800 -0.8820
   57MOL   H19728309   7.608   4.528   6.634  1.5525  0.2641 -0.5799
   57MOL   H19828310   7.776   4.550   6.696  0.5245 -0.5291  1.2952
   57MOL   H19928311   7.672   4.627   6.913 -2.1388  2.1276 -2.0983
   57MOL   H20028312   7.529   4.548   6.866 -0.1890  3.6376 -0.1923
   57MOL   H20128313   7.690   4.454   6.881  2.1684  0.3762 -0.7920
   57MOL   C20228314   7.230   4.626   6.918 -0.8234  0.1561  0.2007
   57MOL   C20328315   7.198   4.702   7.049  1.2687  0.1849  0.0559
   57MOL   O20428316   7.284   4.665   7.153 -0.1953  0.1863  0.3990
   57MOL   C20528317   7.400   4.747   7.161 -0.8729 -0.4400 -0.1712
   57MOL   C20628318   7.480   4.708   7.284 -0.3893  0.2041  0.4920
   57MOL   C20728319   7.408   4.728   7.417  0.4114 -0.6726 -0.5549
   57MOL   C20828320   7.495   4.710   7.542 -0.7776 -1.0765  0.1671
   57MOL   C20928321   7.423   4.694   7.670  0.0576  0.3670 -0.1449
   57MOL   C21028322   7.512   4.659   0.013  0.5879 -0.0500  0.2391
   57MOL   H21128323   7.183   4.529   6.932  1.3050 -0.7530  1.0871
   57MOL   H21228324   7.337   4.609   6.919 -0.9339 -0.4707  1.5672
   57MOL   H21328325   7.202   4.810   7.032 -0.5128  0.0475 -1.3991
   57MOL   H21428326   7.385   4.855   7.166  2.6472  0.0445  1.6643
   57MOL   H21528327   7.459   4.726   7.072 -1.4780  0.5280 -0.8172
   57MOL   H21628328   7.561   4.780   7.277  0.2093 -0.3997  1.1220
   57MOL   H21728329   7.510   4.604   7.287  1.2150  0.6876  3.3605
   57MOL   H21828330   7.356   4.823   7.422 -0.3771 -0.9358 -2.9476
   57MOL   H21928331   7.329   4.653   7.426  0.4772 -0.4874  1.8175
   57MOL   H22028332   7.557   4.626   7.508  1.2370  1.1308 -1.7924
   57MOL   H22128333   7.553   4.801   7.531  1.5027 -2.4802  0.2021
   57MOL   H22228334   7.369   4.784   7.702  0.7658  0.2017  1.5634
   57MOL   H22328335   7.347   4.616   7.665 -0.1894  0.7018 -1.8640
   57MOL   H22428336   7.452   4.658   0.104  2.3658 -2.1624  1.4455
   57MOL   H22528337   7.552   4.559   7.775 -0.7772 -0.8204  1.4652
   57MOL   H22628338   7.589   4.733   0.033  0.4048  0.5256 -1.0944
   57MOL   C22728339   7.060   4.672   7.113 -0.1549  0.7283  0.1180
   57MOL   C22828340   7.013   4.791   7.200 -0.4948  0.7945 -0.4975
   57MOL   O22928341   6.979   4.906   7.118 -0.2041 -0.0238  0.0840
   57MOL   C23028342   7.030   5.029   7.153  0.0009  1.2300 -0.0670
   57MOL   C23128343   6.973   5.133   7.055 -0.2604  0.1237 -0.3405
   57MOL   C23228344   6.828   5.165   7.092 -0.1986 -0.5989  0.7574
   57MOL   C23328345   6.760   5.271   7.005 -0.4864  0.4607  0.0901
   57MOL   C23428346   6.615   5.305   7.050  0.0554 -0.5908 -0.1801
   57MOL   C23528347   6.531   5.384   6.940 -0.1194 -0.3480 -0.4696
   57MOL   H23628348   6.984   4.638   7.043  1.1859 -1.5172 -0.2894
   57MOL   H23728349   7.067   4.578   7.168 -1.4560  0.5103 -0.0652
   57MOL   H23828350   7.091   4.822   7.269 -0.6968 -0.2720  0.2347
   57MOL   H23928351   7.138   5.027   7.140 -0.3325 -0.5175 -2.8241
   57MOL   H24028352   7.024   5.054   7.260  0.7862  1.9379 -0.1858
   57MOL   H24128353   7.003   5.089   6.960  0.0184 -0.7431  0.1438
   57MOL   H24228354   7.047   5.212   7.065  3.0382 -3.0927  2.0591
   57MOL   H24328355   6.777   5.069   7.091 -1.1128 -0.1757  3.4158
   57MOL   H24428356   6.819   5.193   7.198 -2.0385  2.4689 -0.1367
   57MOL   H24528357   6.821   5.361   7.005  0.3902 -0.1249  1.6864
   57MOL   H24628358   6.753   5.246   6.899 -1.5652  2.2028 -0.2836
   57MOL   H24728359   6.557   5.219   7.086 -0.6399  0.4127  1.1476
   57MOL   H24828360   6.628   5.353   7.147 -1.4603 -0.7750  0.1263
   57MOL   H24928361   6.516   5.337   6.843 -3.2886  1.0006 -0.7053
   57MOL   H25028362   6.430   5.411   6.971 -1.0593 -0.1039 -3.6041
   57MOL   H25128363   6.588   5.475   6.923  0.8301 -1.0871 -1.3146
   57MOL   C25228364   6.886   4.748   7.275  0.1330 -0.2675  0.5725
   57MOL   C25328365   6.835   4.863   7.371  0.4099  0.0839 -0.3442
   57MOL   O25428366   6.941   4.896   7.456 -0.3218 -0.1078  0.1175
   57MOL   C25528367   6.916   5.017   7.524  0.9543  0.3863 -0.1486
   57MOL   C25628368   7.038   5.048   7.618 -0.1696 -0.4540  0.0991
   57MOL   C25728369   7.166   5.102   7.543 -0.3113 -0.2718  0.0474
   57MOL   C25828370   7.301   5.076   7.619 -0.3347  0.1483 -0.1832
   57MOL   C25928371   7.428   5.084   7.536 -0.2951 -0.2360 -0.0817
   57MOL   C26028372   7.550   5.069   7.630  0.1027  0.0391 -0.5685
   57MOL   H26128373   6.812   4.722   7.199  1.1775 -0.8092 -0.2669
   57MOL   H26228374   6.897   4.653   7.328  0.3975  0.6551  2.2286
   57MOL   H26328375   6.809   4.945   7.304 -3.2015  1.4319  2.5153
   57MOL   H26428376   6.829   5.008   7.590  0.8311  0.3926 -0.3103
   57MOL   H26528377   6.892   5.094   7.450  1.2007  2.0211  1.4479
   57MOL   H26628378   7.067   4.951   7.657  0.1663 -1.8681 -3.5084
   57MOL   H26728379   7.010   5.114   7.700 -0.5501  0.6100 -0.8549
   57MOL   H26828380   7.165   5.055   7.445 -0.9682 -0.6808  0.2502
   57MOL   H26928381   7.156   5.211   7.545  0.9530 -0.1444 -0.1449
   57MOL   H27028382   7.310   5.142   7.706  0.1959  0.9992 -0.8836
   57MOL   H27128383   7.294   4.976   7.663  1.0729  0.0896 -0.0665
   57MOL   H27228384   7.432   5.015   7.452  1.1678 -1.8555  1.2956
   57MOL   H27328385   7.418   5.185   7.495 -1.4048  1.4668  4.0671
   57MOL   H27428386   7.546   4.982   7.696 -0.4849 -0.2894 -1.0217
   57MOL   H27528387   7.646   5.064   7.580  0.6812  0.4875  0.4869
   57MOL   H27628388   7.558   5.147   7.705 -2.9154 -1.9960  2.0019
   57MOL   C27728389   6.717   4.817   7.464 -0.8238  0.0764  0.7130
   57MOL   C27828390   6.601   4.919   7.481 -0.2748  0.1963  0.6559
   57MOL   O27928391   6.509   4.910   7.371 -0.3583  0.1791 -0.6654
   57MOL   C28028392   6.551   4.957   7.239  0.5724  0.0279  0.3220
   57MOL   C28128393   6.426   4.965   7.144 -0.0515  1.0070  0.4927
   57MOL   C28228394   6.449   4.960   6.994 -0.2982  0.6759 -0.2668
   57MOL   C28328395   6.315   4.949   6.921  0.4208 -0.4036 -0.7063
   57MOL   C28428396   6.279   4.802   6.869  0.5075  0.4742  0.3779
   57MOL   C28528397   6.140   4.806   6.802  0.3037 -0.8386 -0.1561
   57MOL   H28628398   6.681   4.721   7.427 -2.0470  1.1703 -1.0475
   57MOL   H28728399   6.753   4.782   7.560 -1.3709  0.2112  0.9664
   57MOL   H28828400   6.634   5.023   7.485  2.7818 -0.6501 -1.0285
   57MOL   H28928401   6.616   4.879   7.201  0.9025 -0.1857  1.3334
   57MOL   H29028402   6.609   5.049   7.239 -1.4677  1.3692 -0.2923
   57MOL   H29128403   6.369   5.056   7.165 -0.7964  0.7143 -0.2451
   57MOL   H29228404   6.357   4.884   7.165 -1.0442  0.8479 -3.0251
   57MOL   H29328405   6.502   5.044   6.949 -1.4274  1.8910  0.6363
   57MOL   H29428406   6.510   4.874   6.968 -0.1184  0.8548 -0.4496
   57MOL   H29528407   6.230   4.996   6.971  1.7029  0.4944  0.6898
   57MOL   H29628408   6.315   5.015   6.834  3.1767 -0.6146 -0.9014
   57MOL   H29728409   6.346   4.760   6.794  2.1207 -1.9772  3.0470
   57MOL   H29828410   6.296   4.736   6.955  1.7710  0.7337  0.3311
   57MOL   H29928411   6.128   4.889   6.733 -0.5787 -1.4433 -0.7383
   57MOL   H30028412   6.108   4.715   6.751 -3.4210  0.6439 -0.5733
   57MOL   H30128413   6.068   4.819   6.883 -0.9012 -0.8070 -1.2335
   57MOL   C30228414   6.521   4.896   7.612 -0.9716  0.0117 -0.7206
   57MOL   C30328415   6.407   4.986   7.651  0.0359 -0.4267 -0.2826
   57MOL   O30428416   6.461   5.104   7.708  0.2741  0.4519 -0.7736
   57MOL   C30528417   6.469   5.213   7.622 -0.2858  0.1297  0.1439
   57MOL   C30628418   6.559   5.317   7.688  0.2482 -0.1424  0.6765
   57MOL   C30728419   6.506   5.381   0.034 -0.6685 -0.5781 -0.0574
   57MOL   C30828420   6.598   5.495   0.085 -0.5051 -0.2672 -0.5184
   57MOL   C30928421   6.556   5.552   0.222  0.2428  0.3014 -0.4879
   57MOL   C31028422   6.406   5.575   0.233 -0.0572 -0.3136 -0.2942
   57MOL   H31128423   6.470   4.803   7.591 -0.0380 -0.4130 -1.1475
   57MOL   H31228424   6.601   4.889   7.686 -0.6165  0.1298 -1.0889
   57MOL   H31328425   6.353   5.008   7.559  1.0937 -2.7901 -1.5250
   57MOL   H31428426   6.375   5.266   7.605  0.0183  1.7204  3.1389
   57MOL   H31528427   6.514   5.193   7.525 -1.4649 -0.2079 -0.3378
   57MOL   H31628428   6.587   5.388   7.610 -1.4366 -1.2283 -0.9535
   57MOL   H31728429   6.656   5.276   7.715  0.7181  0.4163 -0.1221
   57MOL   H31828430   6.403   5.412   0.015 -0.5851 -1.2522 -1.6763
   57MOL   H31928431   6.496   5.304   0.110 -0.0672 -0.4261  0.1811
   57MOL   H32028432   6.694   5.443   0.090 -0.1900  0.4384  1.1122
   57MOL   H32128433   6.609   5.579   0.016 -0.2553  0.8868  0.8990
   57MOL   H32228434   6.597   5.481   0.294  0.6254 -0.5088 -1.4863
   57MOL   H32328435   6.611   5.645   0.236 -0.7918  0.7827  0.4522
   57MOL   H32428436   6.383   5.641   0.317  0.1120 -1.2516  0.5085
   57MOL   H32528437   6.376   5.622   0.140 -0.4970 -1.9100 -0.9743
   57MOL   H32628438   6.345   5.485   0.239 -0.5924  0.0965  0.6213
   57MOL   C32728439   6.319   4.909   7.754 -0.2075  0.1435  0.0763
   57MOL   C32828440   6.187   4.976   0.032  0.7010 -0.2763 -0.5215
   57MOL   O32928441   6.100   4.867   0.069  0.0518 -0.0013 -0.0802
   57MOL   C33028442   5.964   4.875   0.018 -1.2019  1.0248 -0.7835
   57MOL   C33128443   5.892   4.752   0.082  0.2526  0.0025 -0.4369
   57MOL   C33228444   5.739   4.765   0.056 -1.0404  0.4160 -0.2886
   57MOL   C33328445   5.680   4.640   0.119  0.0392 -0.0668 -0.3047
   57MOL   C33428446   5.523   4.628   0.091  0.0885 -0.2193 -0.5035
   57MOL   C33528447   5.436   4.736   0.150  0.2770 -0.2056 -0.8571
   57MOL   H33628448   6.389   4.890   0.057  1.5629 -0.3073 -1.5054
   57MOL   H33728449   6.282   4.817   7.709  0.0523 -1.1613  2.4545
   57MOL   H33828450   6.142   5.027   7.725 -2.7660 -2.8619 -0.3304
   57MOL   H33928451   5.958   4.873   7.687 -0.4465  2.5547 -0.8661
   57MOL   H34028452   5.924   4.972   0.045  0.0681  0.8611  1.8175
   57MOL   H34128453   5.897   4.758   0.191  4.0531  1.8270 -0.6400
   57MOL   H34228454   5.929   4.656   0.046  1.6070 -0.0525  1.0436
   57MOL   H34328455   5.693   4.853   0.101  0.9391  0.7416  1.2110
   57MOL   H34428456   5.724   4.776   7.727  0.9602  0.9338 -0.5484
   57MOL   H34528457   5.720   4.555   0.064 -0.9923 -1.7267  1.4637
   57MOL   H34628458   5.694   4.637   0.227 -1.0477  0.2902 -0.1417
   57MOL   H34728459   5.508   4.606   7.763 -0.3548 -0.4536 -0.3924
   57MOL   H34828460   5.493   4.534   0.138 -1.3226  1.2504  1.6311
   57MOL   H34928461   5.445   4.748   0.258 -0.0273 -0.6057 -0.7870
   57MOL   H35028462   5.450   4.831   0.098 -1.2737  0.5609  0.0864
   57MOL   H35128463   5.331   4.709   0.136 -0.0715  0.1342  1.0358
   57MOL   C35228464   6.213   5.080   0.150 -0.0308  0.1030 -0.0296
   57MOL   C35328465   6.091   5.154   0.199  0.0229  0.0964  0.3204
   57MOL   O35428466   6.012   5.213   0.092 -0.2250 -0.2304 -0.2615
   57MOL   C35528467   5.880   5.251   0.137 -0.5867 -0.0937  0.3026
   57MOL   C35628468   5.789   5.275   0.023 -0.0948 -0.2216 -0.3188
   57MOL   C35728469   5.825   5.394   7.713  0.1326 -0.1079  0.6141
   57MOL   C35828470   5.759   5.409   7.575  0.0260 -0.4931 -0.2336
   57MOL   C35928471   5.801   5.537   7.496  0.5527  0.4476 -0.2321
   57MOL   C36028472   5.768   5.525   7.352 -0.0244 -0.1387 -0.2898
   57MOL   H36128473   6.249   5.019   0.232 -1.7489  0.6567  1.1741
   57MOL   H36228474   6.293   5.147   0.117  3.1431 -4.3326 -1.7488
   57MOL   H36328475   6.026   5.080   0.246 -0.1695  1.4371  2.2469
   57MOL   H36428476   5.891   5.341   0.198  0.3234  0.9041 -1.2716
   57MOL   H36528477   5.831   5.174   0.196  1.6942 -2.1662 -0.4298
   57MOL   H36628478   5.692   5.293   0.069  0.7566  2.6046  0.4662
   57MOL   H36728479   5.775   5.179   7.752  0.7657  0.4000 -1.8133
   57MOL   H36828480   5.828   5.489   7.766  0.8740 -0.0803  0.5241
   57MOL   H36928481   5.933   5.398   7.697  0.5369 -3.6963  2.0977
   57MOL   H37028482   5.788   5.321   7.518 -1.3675  0.5937 -2.7467
   57MOL   H37128483   5.653   5.411   7.598  0.4434  2.0675  1.6682
   57MOL   H37228484   5.765   5.630   7.541 -1.0258 -0.1462 -0.2342
   57MOL   H37328485   5.907   5.555   7.510  1.0166 -0.1122 -2.8972
   57MOL   H37428486   5.819   5.437   7.313  2.9297 -0.3037  3.6517
   57MOL   H37528487   5.661   5.512   7.338  0.0674  0.9661 -2.2499
   57MOL   H37628488   5.805   5.609   7.293 -1.7404  0.3860 -0.6304
   57MOL   C37728489   6.120   5.262   0.307  0.1982 -0.4153  0.2536
   57MOL   C37828490   6.199   5.209   0.428 -0.4551 -0.1653  0.1422
   57MOL   O37928491   6.153   5.288   0.535  0.4184  0.3654  0.4929
   57MOL   C38028492   6.027   5.248   0.589  0.6330 -0.4847  0.1986
   57MOL   C38128493   5.967   5.367   0.673  0.6728  0.3601 -0.2880
   57MOL   C38228494   5.841   5.329   0.761  0.1310 -0.2739  0.1998
   57MOL   C38328495   5.739   5.447   0.772 -0.1003  0.4756  0.1085
   57MOL   C38428496   5.647   5.473   0.650 -0.0615 -0.4905 -0.0799
   57MOL   C38528497   5.523   5.558   0.678 -0.7177  0.1755  0.7022
   57MOL   H38628498   6.186   5.334   0.258 -0.0886  0.4293  1.0816
   57MOL   H38728499   6.023   5.302   0.339  0.9376  1.4368  0.2473
   57MOL   H38828500   6.185   5.101   0.443 -0.7822 -0.0874  0.4048
   57MOL   H38928501   6.045   5.160   0.650 -1.2806 -0.6522  0.5535
   57MOL   H39028502   5.956   5.220   0.511 -0.3232  2.7704 -0.2032
   57MOL   H39128503   5.936   5.445   0.604 -0.4860 -0.3212 -0.5520
   57MOL   H39228504   6.053   5.398   0.732  2.9267 -0.1780 -3.1149
   57MOL   H39328505   5.779   5.246   0.726 -2.1177  0.5750  1.9952
   57MOL   H39428506   5.882   5.291   0.854 -0.7582 -1.0092  0.2995
   57MOL   H39528507   5.675   5.424   0.857 -0.0514 -1.6895 -0.4254
   57MOL   H39628508   5.803   5.534   0.788  0.8053  0.2719 -2.2313
   57MOL   H39728509   5.710   5.531   0.583 -0.0148  2.2478  2.2687
   57MOL   H39828510   5.620   5.380   0.599  0.8224 -0.8870  0.1672
   57MOL   H39928511   5.464   5.508   0.755 -1.0204 -0.2198  0.2194
   57MOL   H40028512   5.569   5.654   0.701 -1.8627  0.6436  1.0627
   57MOL   H40128513   5.453   5.581   0.598  1.4554  4.6564 -0.1011
   57MOL   C40228514   6.353   5.234   0.419  0.1717 -0.4672  0.2672
   57MOL   C40328515   6.433   5.156   0.518 -0.2118  0.6724  0.1863
   57MOL   O40428516   6.412   5.206   0.654 -0.1285  0.1837 -1.1140
   57MOL   C40528517   6.411   5.115   0.763 -0.2467  0.1008  0.0641
   57MOL   C40628518   6.396   5.183   0.894 -0.3293 -0.6073 -0.1419
   57MOL   C40728519   6.416   5.082   1.016  0.1399 -0.4686 -0.6799
   57MOL   C40828520   6.365   5.153   1.153 -0.0170  0.0833 -0.3290
   57MOL   C40928521   6.366   5.047   1.266  0.4644 -0.1014 -0.3768
   57MOL   C41028522   6.299   5.095   1.399 -0.5241  0.1054 -0.5071
   57MOL   H41128523   6.367   5.340   0.441  0.7565 -0.3859 -0.4606
   57MOL   H41228524   6.390   5.216   0.318 -0.1927 -1.0426  0.2380
   57MOL   H41328525   6.408   5.049   0.518  0.7903  0.4297 -0.4299
   57MOL   H41428526   6.508   5.066   0.771 -1.4622 -2.2484  0.6577
   57MOL   H41528527   6.332   5.042   0.746 -0.4400  0.0711  1.1041
   57MOL   H41628528   6.292   5.211   0.905 -0.5245 -1.1710 -0.5020
   57MOL   H41728529   6.462   5.269   0.896 -0.0629 -0.8126 -0.0969
   57MOL   H41828530   6.349   5.000   0.992 -0.0856  0.5308 -3.6882
   57MOL   H41928531   6.520   5.049   1.019  0.1800 -0.2001  0.8739
   57MOL   H42028532   6.421   5.244   1.172  0.3412 -0.4413  1.2551
   57MOL   H42128533   6.261   5.170   1.125 -0.4968 -1.7197  0.2570
   57MOL   H42228534   6.302   4.964   1.236  0.7377  0.0971 -1.5200
   57MOL   H42328535   6.464   5.004   1.287 -0.0744 -1.0640  0.2146
   57MOL   H42428536   6.361   5.168   1.450 -1.5386  1.2814 -0.9341
   57MOL   H42528537   6.207   5.146   1.373  0.5984  2.3833 -0.1478
   57MOL   H42628538   6.292   5.017   1.475  1.4003  0.1382 -0.2577
   57MOL   C42728539   6.587   5.164   0.500  0.9869  0.1740  0.3416
   57MOL   C42828540   6.650   5.019   0.508  0.3031 -0.5583 -0.6340
   57MOL   O42928541   6.606   4.947   0.392  0.2659  0.3410  0.2909
   57MOL   C43028542   6.587   4.803   0.400 -0.2052  0.1283  0.7780
   57MOL   C43128543   6.539   4.756   0.271  0.1379  0.7709  0.1825
   57MOL   C43228544   6.507   4.603   0.257  0.2735 -0.4779  0.1489
   57MOL   C43328545   6.404   4.556   0.153  0.1083  0.4700 -0.4181
   57MOL   C43428546   6.362   4.413   0.176  0.4152  0.2536 -0.5329
   57MOL   C43528547   6.282   4.339   0.063  0.1767 -0.0815 -0.0131
   57MOL   H43628548   6.610   5.202   0.401 -1.1967 -1.6559 -0.9100
   57MOL   H43728549   6.624   5.238   0.571  1.2569  0.3930 -0.0285
   57MOL   H43828550   6.615   4.966   0.596  1.3856 -0.9814 -0.4462
   57MOL   H43928551   6.524   4.782   0.486 -1.0013  1.8681  0.6474
   57MOL   H44028552   6.689   4.770   0.421  0.5526  0.8800 -1.5467
   57MOL   H44128553   6.620   4.769   0.200 -0.8743 -1.1301 -1.3781
   57MOL   H44228554   6.455   4.821   0.244 -0.3263 -0.1861 -0.7071
   57MOL   H44328555   6.599   4.548   0.239 -0.8286 -2.3921  0.1799
   57MOL   H44428556   6.485   4.560   0.355  0.6205 -1.3277 -0.1419
   57MOL   H44528557   6.311   4.613   0.152  0.2356  0.6958  0.3142
   57MOL   H44628558   6.450   4.563   0.054  0.0153  1.6121 -0.3870
   57MOL   H44728559   6.450   4.352   0.192  0.4298  0.2438 -0.6533
   57MOL   H44828560   6.304   4.404   0.268  1.4748  2.1851  0.3487
   57MOL   H44928561   6.188   4.389   0.040 -0.9074 -2.1692 -0.2006
   57MOL   H45028562   6.327   4.345   7.743 -1.6816 -1.1986 -0.9564
   57MOL   H45128563   6.259   4.233   0.072  0.4510 -0.3723 -2.4199
   57MOL   C45228564   6.806   5.014   0.508 -0.2987  0.1208 -0.0081
   57MOL   C45328565   6.873   5.069   0.634 -1.2187 -0.5975  1.0949
   57MOL   O45428566   7.006   5.097   0.611 -0.0144 -0.4357 -0.3373
   57MOL   C45528567   7.030   5.221   0.549 -0.0094 -0.2757 -0.2786
   57MOL   C45628568   7.182   5.245   0.584 -0.1080  0.0746 -1.0320
   57MOL   C45728569   7.245   5.382   0.539  0.1976 -0.1629  1.3328
   57MOL   C45828570   7.389   5.389   0.587 -0.1625  0.3850 -0.3218
   57MOL   C45928571   7.468   5.514   0.549 -0.2035  0.0309 -0.1444
   57MOL   C46028572   7.497   5.514   0.403 -0.1004  0.2946  0.1987
   57MOL   H46128573   6.842   4.911   0.507  2.0511  0.8853 -2.9310
   57MOL   H46228574   6.846   5.047   0.412 -0.8692 -1.3221 -0.7601
   57MOL   H46328575   6.811   5.152   0.670 -0.5243  0.6305 -0.4664
   57MOL   H46428576   6.968   5.299   0.592 -0.6552 -1.2913  0.6695
   57MOL   H46528577   7.008   5.213   0.442 -0.4978 -0.4499 -0.1686
   57MOL   H46628578   7.245   5.168   0.541  0.5379  0.0168  0.0148
   57MOL   H46728579   7.195   5.232   0.691  0.9639  0.8650 -1.0613
   57MOL   H46828580   7.243   5.387   0.430  2.0437  3.6507  1.3868
   57MOL   H46928581   7.200   5.478   0.565  2.3762  1.2512  0.0625
   57MOL   H47028582   7.383   5.386   0.695 -0.8375 -0.5511 -0.3853
   57MOL   H47128583   7.447   5.301   0.559 -1.0227 -0.8269  1.6351
   57MOL   H47228584   7.410   5.602   0.574 -0.8452 -0.6128  0.6723
   57MOL   H47328585   7.565   5.519   0.598 -1.2789 -0.9516  2.1215
   57MOL   H47428586   7.557   5.430   0.367  2.8720  2.3003  0.3553
   57MOL   H47528587   7.402   5.527   0.350 -0.1630 -0.2691  0.1586
   57MOL   H47628588   7.559   5.594   0.364  1.3828 -1.5779 -1.4426
   57MOL   C47728589   6.870   4.977   0.754  0.2934  0.2578 -0.1206
   57MOL   C47828590   6.892   5.049   0.884 -0.1813  0.2026 -0.3200
   57MOL   O47928591   6.881   4.968   0.997  0.9654 -0.8114  0.0241
   57MOL   C48028592   6.939   5.030   1.114  0.7275  0.8129 -0.3952
   57MOL   C48128593   6.921   4.933   1.231 -0.2162  0.3232 -0.3075
   57MOL   C48228594   7.007   4.978   1.347  0.2729  0.4917  0.4582
   57MOL   C48328595   7.003   4.897   1.468 -0.0305  0.8084  0.1151
   57MOL   C48428596   7.056   4.964   1.600  0.7148  0.5379  0.8894
   57MOL   C48528597   6.957   5.064   1.672 -0.8344  0.6675 -0.4333
   57MOL   H48628598   6.768   4.940   0.759  0.5730 -0.8976 -2.3498
   57MOL   H48728599   6.945   4.899   0.737 -0.1745 -0.0510 -0.7726
   57MOL   H48828600   6.991   5.096   0.881 -1.0400  1.9774 -2.8850
   57MOL   H48928601   6.896   5.128   1.134  1.9396  1.3535 -0.4091
   57MOL   H49028602   7.046   5.047   1.102  0.9069  0.6686  0.8914
   57MOL   H49128603   6.946   4.833   1.194  1.2329  0.3536  0.6044
   57MOL   H49228604   6.814   4.932   1.255 -0.5243 -0.5064 -1.5796
   57MOL   H49328605   7.112   4.993   1.326  0.3743 -1.3557 -0.3893
   57MOL   H49428606   6.975   5.078   1.377 -0.2211  1.0641 -1.8981
   57MOL   H49528607   6.897   4.882   1.491 -0.4811  3.5424  0.0080
   57MOL   H49628608   7.057   4.804   1.452 -0.4178  0.4757  0.6989
   57MOL   H49728609   7.102   4.890   1.665 -1.3035 -1.4938  0.0936
   57MOL   H49828610   7.139   5.028   1.571 -0.1628  1.7870  1.0872
   57MOL   H49928611   6.944   5.063   1.781 -0.9960  1.5663 -0.4362
   57MOL   H50028612   6.976   5.170   1.654 -2.3932  1.1385  0.5422
   57MOL   H50128613   6.855   5.048   1.639 -1.3398 -1.1949  1.8653
   57MOL   H50228614   6.829   5.138   0.897 -1.1098 -0.7139  1.6359
   58MOL     C128615   1.085   0.621   4.603 -0.7829 -0.0141 -0.4413
   58MOL     C228616   0.958   0.700   4.644 -0.3086 -0.2800  0.3420
   58MOL     O328617   0.914   0.776   4.531  0.1574  0.6253  0.0816
   58MOL     C428618   0.805   0.862   4.553  0.5877 -0.4004 -0.8901
   58MOL     C528619   0.720   0.892   4.425 -0.3700 -0.5534 -0.0724
   58MOL     C628620   0.641   0.781   4.354 -0.1222 -0.1719  0.0117
   58MOL     C728621   0.722   0.654   4.326  0.1901  0.1001 -0.4431
   58MOL     C828622   0.701   0.541   4.431 -0.6928 -0.7699 -0.2052
   58MOL     C928623   0.734   0.402   4.385  0.4387 -0.6330  0.1495
   58MOL    H1028624   1.166   0.692   4.584  0.2394 -0.9702  0.3076
   58MOL    H1128625   1.121   0.558   4.683  1.2746 -0.3841 -1.6302
   58MOL    H1228626   0.886   0.620   4.663 -0.2515 -0.5484 -0.5450
   58MOL    H1328627   0.828   0.958   4.598  0.1775 -0.4392 -0.5898
   58MOL    H1428628   0.735   0.816   4.623  0.5824  1.1946  0.1798
   58MOL    H1528629   0.791   0.934   4.354  0.8092  0.5646  1.7202
   58MOL    H1628630   0.650   0.971   4.452  0.8128 -0.0031  1.5237
   58MOL    H1728631   0.551   0.770   4.415  0.0953  2.5915  0.8794
   58MOL    H1828632   0.613   0.826   4.259 -0.5006 -0.3682  0.0296
   58MOL    H1928633   0.693   0.618   4.227 -1.0196  2.4170 -0.9604
   58MOL    H2028634   0.825   0.682   4.304  0.3060 -1.3813 -1.9224
   58MOL    H2128635   0.597   0.543   4.461 -1.0061  3.1814 -1.2455
   58MOL    H2228636   0.747   0.561   4.528  1.9536 -1.2625 -1.3000
   58MOL    H2328637   0.713   0.322   4.456  0.9440 -1.5749 -0.7414
   58MOL    H2428638   0.678   0.383   4.293  2.1754 -3.7498 -0.3374
   58MOL    H2528639   0.842   0.393   4.374  0.4756  0.7430 -0.7352
   58MOL    H2628640   1.086   0.566   4.509 -0.9213 -1.3916  0.3590
   58MOL    C2728641   0.971   0.798   4.770  0.1343 -0.3253  0.8070
   58MOL    C2828642   1.022   0.721   4.895 -0.1739 -0.5613 -0.3610
   58MOL    O2928643   1.020   0.808   5.002 -0.4238  0.1260  0.5068
   58MOL    C3028644   1.138   0.881   5.017  0.1141 -0.3534  0.0575
   58MOL    C3128645   1.113   0.991   5.118 -0.3404  0.1310  0.3536
   58MOL    C3228646   1.059   0.953   5.257 -0.0007 -0.0018 -0.9540
   58MOL    C3328647   1.004   1.058   5.353 -0.5281 -0.2595  0.0917
   58MOL    C3428648   0.993   1.015   5.496 -0.2353  0.3627  0.8661
   58MOL    C3528649   0.949   1.123   5.587  0.2941  0.1000 -0.4955
   58MOL    H3628650   1.039   0.878   4.742 -1.4442  0.8876  0.3574
   58MOL    H3728651   0.874   0.844   4.789  0.3177  0.8752 -1.1112
   58MOL    H3828652   1.122   0.683   4.870  0.0769 -1.9226  2.5462
   58MOL    H3928653   1.169   0.938   4.930 -2.0828  1.3785  0.3542
   58MOL    H4028654   1.225   0.828   5.053  0.2276  0.9172  1.7152
   58MOL    H4128655   1.053   1.073   5.079 -1.0376 -1.2042 -1.4341
   58MOL    H4228656   1.214   1.032   5.130  1.4203 -3.3031 -1.8243
   58MOL    H4328657   0.986   0.872   5.253  0.6906 -0.5884 -1.7989
   58MOL    H4428658   1.141   0.909   5.314 -1.1935  2.2340  2.7147
   58MOL    H4528659   1.074   1.142   5.361  0.5887 -0.9682 -2.0090
   58MOL    H4628660   0.917   1.106   5.308 -1.3281 -1.4634  0.3327
   58MOL    H4728661   0.919   0.937   5.512 -0.3958  0.4476  0.5345
   58MOL    H4828662   1.095   0.992   5.526 -0.3557 -0.3305  0.7502
   58MOL    H4928663   1.025   1.200   5.601 -0.1950  0.6467 -0.8873
   58MOL    H5028664   0.855   1.166   5.553 -0.7294  1.6939  4.0364
   58MOL    H5128665   0.926   1.068   5.679 -2.9695  0.2327 -1.1912
   58MOL    C5228666   0.934   0.600   4.939  0.0740 -0.7132  0.2239
   58MOL    C5328667   0.988   0.531   5.070  0.8202 -0.1307  0.0973
   58MOL    O5428668   0.903   0.418   5.086  0.0281 -0.7061  0.0787
   58MOL    C5528669   0.798   0.451   5.173 -0.1881 -0.5858 -0.3600
   58MOL    C5628670   0.708   0.330   5.206  0.1838  0.8194 -0.7082
   58MOL    C5728671   0.587   0.354   5.299 -0.1901  0.5518  0.5842
   58MOL    C5828672   0.520   0.231   5.361  0.0870 -0.1544 -0.7426
   58MOL    C5928673   0.418   0.269   5.476 -0.5668  0.7152 -1.0173
   58MOL    C6028674   0.346   0.144   5.533  0.3095  0.3936  0.0689
   58MOL    H6128675   0.927   0.527   4.859  0.7691 -0.1582 -0.3467
   58MOL    H6228676   0.831   0.636   4.953  0.0724 -1.1521  1.4052
   58MOL    H6328677   0.984   0.604   5.151  0.2972  0.1802 -0.2042
   58MOL    H6428678   0.736   0.534   5.140 -0.7032 -1.4416 -1.6189
   58MOL    H6528679   0.840   0.476   5.270 -1.1888 -0.0324 -0.0623
   58MOL    H6628680   0.776   0.276   5.273 -0.2828  2.8987  1.5455
   58MOL    H6728681   0.683   0.269   5.120 -1.6902  0.4849  0.0449
   58MOL    H6828682   0.623   0.410   5.385 -1.6188  2.0611  0.2367
   58MOL    H6928683   0.513   0.418   5.250 -2.3983 -1.7134  0.8821
   58MOL    H7028684   0.461   0.191   5.279 -1.7313  0.7016  0.1266
   58MOL    H7128685   0.588   0.149   5.381 -0.2692  0.0908  1.6040
   58MOL    H7228686   0.479   0.319   5.551  0.1694 -2.6738  0.7521
   58MOL    H7328687   0.346   0.343   5.443  0.4823  1.5105 -1.5768
   58MOL    H7428688   0.266   0.183   5.597 -0.7885  2.6122 -2.5504
   58MOL    H7528689   0.301   0.086   5.453  1.1238 -1.7996  1.1518
   58MOL    H7628690   0.412   0.072   5.580  0.6538  0.8024  0.2107
   58MOL    C7728691   1.135   0.481   5.071 -0.4969 -0.1215  0.0262
   58MOL    C7828692   1.179   0.403   5.198 -0.1256  0.3444 -0.1195
   58MOL    O7928693   1.192   0.499   5.303  0.1004  0.2069 -0.0266
   58MOL    C8028694   1.136   0.459   5.427  0.6008 -0.5508  0.7231
   58MOL    C8128695   1.155   0.579   5.528  0.0603 -0.8476 -0.7061
   58MOL    C8228696   1.105   0.545   5.673  0.5937  0.4324 -0.7236
   58MOL    C8328697   1.153   0.639   5.786  1.3934 -0.1003 -0.1617
   58MOL    C8428698   1.272   0.595   5.871 -0.3814 -0.3119 -0.3425
   58MOL    C8528699   1.339   0.717   5.933  0.3018 -0.2046  0.3243
   58MOL    H8628700   1.207   0.562   5.058  0.6635 -0.6816  2.5829
   58MOL    H8728701   1.154   0.411   4.990 -0.0163 -0.2322  0.2365
   58MOL    H8828702   1.105   0.330   5.231  1.1410 -1.2242 -0.6704
   58MOL    H8928703   1.196   0.371   5.451  0.2878 -0.9949 -0.1058
   58MOL    H9028704   1.031   0.431   5.421  0.2873  0.9797 -1.1887
   58MOL    H9128705   1.092   0.663   5.496  0.9580 -0.4611 -1.4550
   58MOL    H9228706   1.257   0.616   5.523 -0.0972 -0.5404 -1.7758
   58MOL    H9328707   0.996   0.543   5.671  0.6149 -1.2517 -1.1504
   58MOL    H9428708   1.134   0.442   5.693  0.4363  0.8090  1.5236
   58MOL    H9528709   1.193   0.727   5.736 -0.6515 -0.5512 -2.6914
   58MOL    H9628710   1.068   0.652   5.852  1.8836 -2.0588  0.9181
   58MOL    H9728711   1.247   0.514   5.939  0.6267 -1.2546 -1.0759
   58MOL    H9828712   1.340   0.549   5.799  0.7246  0.4200  0.2230
   58MOL    H9928713   1.437   0.685   5.968  1.4822  2.1177 -0.7938
   58MOL   H10028714   1.371   0.796   5.866 -0.4025 -0.2936 -0.1179
   58MOL   H10128715   1.282   0.763   6.014 -1.0467  1.1671 -1.3589
   58MOL   C10228716   1.319   0.341   5.188  0.2193  0.1420  0.1735
   58MOL   C10328717   1.327   0.211   5.112 -0.5086  0.5139 -0.4706
   58MOL   O10428718   1.465   0.172   5.119 -0.1408 -0.1960  1.1540
   58MOL   C10528719   1.564   0.230   5.038 -0.0258 -0.7692  0.4792
   58MOL   C10628720   1.693   0.158   5.074  0.2274  0.0663  0.3658
   58MOL   C10728721   1.802   0.195   4.966 -0.0050 -0.4556  0.2614
   58MOL   C10828722   1.942   0.135   4.994 -0.5410  0.1771  0.0039
   58MOL   C10928723   2.029   0.144   4.870 -0.2523 -0.2273  0.5145
   58MOL   C11028724   2.070   0.289   4.832  0.0217  0.4142  0.0093
   58MOL   H11128725   1.391   0.405   5.137 -1.6175  1.3456 -0.9503
   58MOL   H11228726   1.366   0.338   5.286  0.4574 -1.1560  0.0357
   58MOL   H11328727   1.310   0.236   5.008 -1.1283 -2.9070 -1.2530
   58MOL   H11428728   1.576   0.337   5.053 -2.9360 -0.3052 -0.1920
   58MOL   H11528729   1.538   0.211   4.933 -1.8388 -2.2127  1.1546
   58MOL   H11628730   1.675   0.051   5.066 -0.8048  0.2463  0.1944
   58MOL   H11728731   1.717   0.173   5.179  1.0681 -3.2512  0.7143
   58MOL   H11828732   1.768   0.169   4.866 -0.4663  2.7710 -0.4807
   58MOL   H11928733   1.810   0.303   4.964 -0.5061 -0.4455 -1.6794
   58MOL   H12028734   1.992   0.180   5.080  1.2637 -1.1742 -0.3237
   58MOL   H12128735   1.932   0.028   5.013  0.5845  0.2122  0.8120
   58MOL   H12228736   2.120   0.087   4.889  0.7072  2.0483  3.2391
   58MOL   H12328737   1.973   0.094   4.791 -0.9754 -2.0500  2.1445
   58MOL   H12428738   2.125   0.339   4.912  1.0054  0.5624 -0.7538
   58MOL   H12528739   2.142   0.290   4.750  0.6031  2.7798  0.5032
   58MOL   H12628740   1.984   0.349   4.802  0.0451  0.0951 -0.7205
   58MOL   C12728741   1.235   0.097   5.153  0.7875 -0.9546 -0.4650
   58MOL   C12828742   1.254   7.749   5.073 -0.1961  0.6178 -0.2631
   58MOL   O12928743   1.252   7.771   4.928  0.2679 -0.3895  0.1337
   58MOL   C13028744   1.336   7.679   4.859 -0.2210 -0.1484  0.1170
   58MOL   C13128745   1.349   7.716   4.709 -0.5870  0.1278 -0.8447
   58MOL   C13228746   1.379   0.092   4.695 -0.1303 -0.3359  0.1375
   58MOL   C13328747   1.397   0.144   4.550 -0.2222  1.0803  0.5100
   58MOL   C13428748   1.404   0.296   4.540  0.6900  0.8004 -0.8777
   58MOL   C13528749   1.386   0.351   4.402  0.1363 -0.1337 -0.0160
   58MOL   H13628750   1.261   0.094   5.259  1.0857 -0.7246 -0.5305
   58MOL   H13728751   1.133   0.134   5.143 -0.1614 -2.6249  2.1865
   58MOL   H13828752   1.349   7.703   5.101 -1.2087 -0.9509  0.6489
   58MOL   H13928753   1.307   7.574   4.860 -0.8646  0.0155 -0.9661
   58MOL   H14028754   1.432   7.686   4.910 -1.1153  0.2314  1.8216
   58MOL   H14128755   1.257   7.681   4.664 -0.9739  1.2928 -0.9680
   58MOL   H14228756   1.437   7.667   4.666  0.6384  3.7748 -2.6598
   58MOL   H14328757   1.304   0.158   4.739  1.2375  0.5952  1.1024
   58MOL   H14428758   1.471   0.112   4.750 -1.0489 -1.6171  2.1735
   58MOL   H14528759   1.487   0.103   4.505 -0.1869  1.6813  0.0308
   58MOL   H14628760   1.313   0.108   4.491 -1.8417  1.7768  2.3180
   58MOL   H14728761   1.325   0.342   4.599 -0.1353 -0.9128 -0.5962
   58MOL   H14828762   1.499   0.333   4.579 -0.1515 -0.2031  2.2685
   58MOL   H14928763   1.289   0.330   4.356  1.0049 -2.1035 -1.0195
   58MOL   H15028764   1.403   0.459   4.403 -1.9086  0.2155 -0.3260
   58MOL   H15128765   1.443   0.303   4.322 -0.4205 -0.8167 -0.0074
   58MOL   C15228766   1.142   7.650   5.108  0.5495 -0.3371 -1.0271
   58MOL   C15328767   1.116   7.625   5.260  0.2150 -0.0511 -0.8354
   58MOL   O15428768   1.054   7.742   5.314 -0.1514  0.2097 -0.2522
   58MOL   C15528769   1.058   7.773   5.450 -0.0866 -0.2400  0.0968
   58MOL   C15628770   0.945   0.081   5.491  0.2950  0.5146  0.5344
   58MOL   C15728771   0.934   0.115   5.643  0.2811  0.6081 -0.7665
   58MOL   C15828772   0.827   0.218   5.675  0.1914  0.1861 -0.1061
   58MOL   C15928773   0.798   0.226   5.825 -0.3605 -0.7617 -0.4729
   58MOL   C16028774   0.741   0.108   5.895 -0.2186 -0.6120 -0.5920
   58MOL   H16128775   1.056   7.681   5.049  0.1706 -1.4121 -1.0658
   58MOL   H16228776   1.162   7.548   5.072 -2.5850 -2.3845  2.7139
   58MOL   H16328777   1.206   7.601   5.318  0.3693  0.9373 -0.6565
   58MOL   H16428778   1.155   0.040   5.474  0.3119 -1.0678  0.0744
   58MOL   H16528779   1.050   7.684   5.512  2.0784  1.0959  2.3718
   58MOL   H16628780   0.856   0.033   5.450  0.5249  0.8170 -0.3530
   58MOL   H16728781   0.962   0.167   5.426  0.2122 -0.2384 -0.5053
   58MOL   H16828782   0.925   0.028   5.708  1.7137  2.6421  2.2711
   58MOL   H16928783   1.027   0.154   5.687  0.0513  1.2522 -0.8431
   58MOL   H17028784   0.867   0.308   5.628 -1.4198  0.1153 -1.6594
   58MOL   H17128785   0.731   0.187   5.635  0.1655 -1.5480  1.2441
   58MOL   H17228786   0.882   0.269   5.878 -1.2846  1.2030 -0.5621
   58MOL   H17328787   0.731   0.312   5.831 -0.1404 -0.7417  2.0000
   58MOL   H17428788   0.794   0.014   5.881  0.2670 -0.6568  1.3295
   58MOL   H17528789   0.732   0.114   6.004 -0.1520 -1.1872 -0.5546
   58MOL   H17628790   0.643   0.083   5.854 -0.0339  1.3545 -2.3069
   58MOL   C17728791   1.016   7.505   5.278  0.1994  0.3551  0.4082
   58MOL   C17828792   1.070   7.363   5.270 -0.2612 -0.6095 -0.6007
   58MOL   O17928793   1.093   7.331   5.131  0.2918 -0.2931 -0.0490
   58MOL   C18028794   0.982   7.309   5.055  0.0254  0.3366  0.8751
   58MOL   C18128795   0.999   7.205   4.939  0.0032  0.1597 -0.0587
   58MOL   C18228796   1.049   7.069   4.980 -0.7579 -0.1727  0.1831
   58MOL   C18328797   1.057   6.964   4.869  0.3664 -0.4585  0.5182
   58MOL   C18428798   1.144   6.845   4.896 -0.4890 -0.0187 -0.3295
   58MOL   C18528799   1.101   6.749   5.002  0.3387  0.0970 -0.0849
   58MOL   H18628800   0.976   7.523   5.378  1.3839  2.1793  0.5779
   58MOL   H18728801   0.931   7.510   5.211  1.4162 -1.2900 -1.3010
   58MOL   H18828802   0.995   7.291   5.301 -0.4906 -0.7390 -1.4547
   58MOL   H18928803   0.955   7.404   5.009  1.1640  0.8006  1.1383
   58MOL   H19028804   0.895   7.284   5.116  0.0955 -0.9129  0.4833
   58MOL   H19128805   1.057   7.247   4.857 -0.3064 -0.0994 -0.4089
   58MOL   H19228806   0.904   7.181   4.893  1.4590  0.0788 -3.1423
   58MOL   H19328807   1.152   7.084   5.013 -0.0374 -0.5549 -1.8257
   58MOL   H19428808   1.002   7.040   5.075 -1.2851 -1.4439 -0.4523
   58MOL   H19528809   0.961   6.940   4.824  1.1105  1.8502 -2.4535
   58MOL   H19628810   1.114   7.008   4.787 -0.3630 -3.0820 -1.4831
   58MOL   H19728811   1.157   6.790   4.803  2.8988 -0.1357  0.1406
   58MOL   H19828812   1.245   6.886   4.910 -0.1506 -1.0453  0.3172
   58MOL   H19928813   1.010   6.697   4.974 -0.1739  0.7977  0.2504
   58MOL   H20028814   1.181   6.678   5.021 -0.1043 -0.6790 -1.0548
   58MOL   H20128815   1.076   6.810   5.089  1.0753 -2.0870  1.7015
   58MOL   C20228816   1.206   7.336   5.348  0.5354  0.4349 -0.2849
   58MOL   C20328817   1.210   7.355   5.499  0.6793 -0.2179 -0.2622
   58MOL   O20428818   1.346   7.335   5.522 -0.2053 -0.6249 -0.0116
   58MOL   C20528819   1.422   7.433   5.597 -0.3784  0.1777 -1.0217
   58MOL   C20628820   1.473   7.545   5.503 -0.4297  0.3236 -0.1787
   58MOL   C20728821   1.570   7.481   5.402  0.0328 -0.4332 -0.2545
   58MOL   C20828822   1.607   7.581   5.288 -0.1886 -0.1076 -0.1106
   58MOL   C20928823   1.662   7.503   5.167 -0.4035 -0.1703  0.0220
   58MOL   C21028824   1.801   7.436   5.185  0.1531 -0.2703 -0.0992
   58MOL   H21128825   1.226   7.230   5.329  0.5884  0.3764  0.0839
   58MOL   H21228826   1.283   7.395   5.300  1.0818  0.0394  0.1035
   58MOL   H21328827   1.171   7.455   5.521  2.1777  0.1495  0.8218
   58MOL   H21428828   1.500   7.385   5.656  0.1853 -0.5948 -2.3547
   58MOL   H21528829   1.358   7.470   5.676  1.8391  1.1399  0.3626
   58MOL   H21628830   1.533   7.616   5.560 -3.5666  0.7601  2.7326
   58MOL   H21728831   1.384   7.595   5.465  0.4831  2.4375  0.4142
   58MOL   H21828832   1.657   7.430   5.444 -0.1997 -1.2247 -0.7284
   58MOL   H21928833   1.510   7.409   5.346 -2.6063  2.2543 -0.9887
   58MOL   H22028834   1.530   7.655   5.266  0.1593  0.4864  0.6616
   58MOL   H22128835   1.687   7.647   5.323 -0.0156  0.4549 -1.5369
   58MOL   H22228836   1.593   7.422   5.143  0.1994 -1.6461  3.1083
   58MOL   H22328837   1.652   7.570   5.081 -1.7469 -0.8069 -0.3340
   58MOL   H22428838   1.833   7.384   5.094 -0.2740 -1.0013  0.1660
   58MOL   H22528839   1.878   7.506   5.218 -0.2982 -0.3264  1.1006
   58MOL   H22628840   1.792   7.362   5.264  1.3622  0.8443  1.1241
   58MOL   C22728841   1.128   7.249   5.579 -0.2840  0.0631 -0.6446
   58MOL   C22828842   1.144   7.258   5.735 -0.7623 -0.8745 -0.1547
   58MOL   O22928843   1.091   7.388   5.758  0.3247 -0.2967 -0.8646
   58MOL   C23028844   1.105   7.434   5.890 -0.5255  0.1794  0.2467
   58MOL   C23128845   1.059   7.585   5.911 -0.3007 -1.4227  0.2097
   58MOL   C23228846   1.139   7.658   6.022 -0.2917  0.0409  0.0411
   58MOL   C23328847   1.129   0.038   6.023 -0.2201  0.6090  0.3357
   58MOL   C23428848   1.229   0.095   6.123  0.3808 -0.8092 -0.4821
   58MOL   C23528849   1.241   0.246   6.108  0.7782  0.3562  0.6273
   58MOL   H23628850   1.023   7.256   5.553 -0.3325  0.9946 -0.2166
   58MOL   H23728851   1.162   7.149   5.549 -1.3818 -0.0988 -1.3598
   58MOL   H23828852   1.248   7.266   5.768 -0.6898  0.4787 -0.6610
   58MOL   H23928853   1.212   7.422   5.906 -0.4514 -2.0451 -1.7116
   58MOL   H24028854   1.060   7.371   5.967  1.2715  0.3991  1.5120
   58MOL   H24128855   0.950   7.585   5.916 -0.3290  0.1767 -0.0666
   58MOL   H24228856   1.098   7.634   5.821 -0.6365  1.1250  1.4082
   58MOL   H24328857   1.107   7.617   6.118 -1.1609 -0.9317 -0.6509
   58MOL   H24428858   1.245   7.635   6.011 -0.4891 -0.0760 -1.7682
   58MOL   H24528859   1.151   0.078   5.925  1.9160 -0.4620  0.3428
   58MOL   H24628860   1.026   0.069   6.040 -1.0459 -2.0252  0.2606
   58MOL   H24728861   1.189   0.067   6.220 -0.8492  2.1765 -0.0678
   58MOL   H24828862   1.328   0.050   6.132 -0.3786 -2.0108  2.0264
   58MOL   H24928863   1.149   0.303   6.125  1.2038  1.0474  0.6078
   58MOL   H25028864   1.319   0.286   6.172 -0.1411  1.2225  1.2308
   58MOL   H25128865   1.252   0.257   6.000 -1.0460 -0.2562  0.3556
   58MOL   C25228866   1.061   7.148   5.803 -0.2444 -0.1174 -0.7079
   58MOL   C25328867   1.122   7.095   5.932 -0.1632 -0.1181  0.8205
   58MOL   O25428868   1.247   7.030   5.891  0.2075 -0.0667 -0.2644
   58MOL   C25528869   1.364   7.074   5.963  0.7467  0.1351  0.2581
   58MOL   C25628870   1.480   6.994   5.897  0.1356 -0.1460 -0.0833
   58MOL   C25728871   1.511   7.050   5.763  0.0159 -1.1333 -1.0629
   58MOL   C25828872   1.643   6.989   5.708 -0.2924 -0.8159  0.5470
   58MOL   C25928873   1.621   6.862   5.626  0.2057  1.5186  0.7163
   58MOL   C26028874   1.747   6.811   5.564 -0.4660  0.4524 -0.1859
   58MOL   H26128875   0.964   7.197   5.809  0.2806  0.7480  1.2551
   58MOL   H26228876   1.052   7.059   5.741 -0.2639  0.2348 -1.2096
   58MOL   H26328877   1.134   7.174   6.006  1.2704 -1.1132  1.6681
   58MOL   H26428878   1.365   7.055   6.070  0.5224  0.5456  0.3353
   58MOL   H26528879   1.375   7.182   5.953  0.1062  0.0976 -0.9931
   58MOL   H26628880   1.454   6.889   5.886 -1.3180 -0.0849  2.2716
   58MOL   H26728881   1.575   6.996   5.949  1.6805 -1.4245 -2.7390
   58MOL   H26828882   1.433   7.025   5.691 -1.5057 -0.4440  0.3199
   58MOL   H26928883   1.512   7.159   5.762 -1.7566 -1.0974 -1.5318
   58MOL   H27028884   1.689   7.063   5.642  0.5657  0.0655  2.0898
   58MOL   H27128885   1.723   6.970   5.780  0.5792 -1.5325 -0.6048
   58MOL   H27228886   1.585   6.790   5.700  0.1530  1.7585  0.9274
   58MOL   H27328887   1.545   6.887   5.552 -0.3580  0.0552  0.7955
   58MOL   H27428888   1.734   6.733   5.488 -0.6645 -0.2982  0.6081
   58MOL   H27528889   1.798   6.883   5.501 -0.1223  1.1915  0.9233
   58MOL   H27628890   1.818   6.786   5.643 -0.4775  3.9017  0.9810
   58MOL   C27728891   1.037   6.985   5.994 -0.0179 -0.0476 -0.2942
   58MOL   C27828892   1.080   6.938   6.138 -0.0160  0.6270 -0.1368
   58MOL   O27928893   1.043   7.048   6.222 -0.3050  0.0230  0.2008
   58MOL   C28028894   1.119   7.069   6.338 -0.2077  0.0073 -0.1870
   58MOL   C28128895   1.042   7.137   6.456  0.2083  0.3592  0.6838
   58MOL   C28228896   0.929   7.038   6.509 -0.1613  0.1307 -0.6118
   58MOL   C28328897   0.812   7.095   6.580  0.3181 -0.8971 -0.6820
   58MOL   C28428898   0.838   7.176   6.709  0.2660 -0.3138 -0.7022
   58MOL   C28528899   0.708   7.265   6.725  0.1875  0.6380 -0.7892
   58MOL   H28628900   0.929   6.997   5.999  0.3200  2.7628  0.9396
   58MOL   H28728901   1.041   6.900   5.926 -1.0114 -0.2597 -0.1040
   58MOL   H28828902   1.188   6.923   6.145  0.0477  0.1439 -1.8293
   58MOL   H28928903   1.200   7.137   6.311 -0.4160  0.4237  0.2207
   58MOL   H29028904   1.179   6.984   6.369  2.0023  1.9812  1.1859
   58MOL   H29128905   0.994   7.225   6.413 -1.1370 -0.0399  1.3348
   58MOL   H29228906   1.110   7.165   6.536  2.4197  1.0978 -1.4092
   58MOL   H29328907   0.883   6.992   6.422 -0.9270  0.2109 -0.2458
   58MOL   H29428908   0.973   6.957   6.567 -0.3504  0.5714  0.1463
   58MOL   H29528909   0.772   7.161   6.503 -2.1052  0.1320  1.3842
   58MOL   H29628910   0.736   7.018   6.589  0.7700 -1.2621  0.0301
   58MOL   H29728911   0.843   7.103   6.789  2.4030  1.1257  0.5304
   58MOL   H29828912   0.923   7.245   6.703  1.1957 -1.4491 -0.7484
   58MOL   H29928913   0.717   7.345   6.651 -2.8110  0.1438 -1.7522
   58MOL   H30028914   0.620   7.208   6.695  0.2191  0.1067  0.1304
   58MOL   H30128915   0.702   7.317   6.821  1.5303  0.4208 -0.5764
   58MOL   C30228916   1.014   6.808   6.179 -0.2629  0.3172  0.0881
   58MOL   C30328917   1.091   6.685   6.132  0.5485  0.0353 -0.6680
   58MOL   O30428918   1.073   6.663   5.992 -0.2298 -0.1427  0.0961
   58MOL   C30528919   1.183   6.638   5.909 -0.0692 -1.0697  0.2562
   58MOL   C30628920   1.139   6.664   5.762 -0.2937 -0.0442  0.6046
   58MOL   C30728921   1.242   6.653   5.656 -0.6044 -0.7137 -0.5226
   58MOL   C30828922   1.200   6.705   5.515 -0.5036  0.4716  0.3017
   58MOL   C30928923   1.201   6.856   5.505 -0.0206  0.6595  0.8033
   58MOL   C31028924   1.168   6.904   5.360 -0.2113  0.0781 -0.0040
   58MOL   H31128925   1.014   6.815   6.288  2.4560 -0.2695  0.1653
   58MOL   H31228926   0.910   6.790   6.152 -0.2691  1.7040 -0.8609
   58MOL   H31328927   1.196   6.699   6.159  0.5747 -0.6296 -0.4104
   58MOL   H31428928   1.231   6.541   5.920  0.2741 -1.2061 -2.1598
   58MOL   H31528929   1.254   6.716   5.935 -0.2957 -1.5565  2.3790
   58MOL   H31628930   1.101   6.766   5.754 -1.1494 -0.4069 -0.0211
   58MOL   H31728931   1.062   6.590   5.741  0.0649 -0.2734  0.1039
   58MOL   H31828932   1.332   6.705   5.690 -0.6191 -1.0547  0.0461
   58MOL   H31928933   1.270   6.548   5.647  1.9941 -0.1807  0.9921
   58MOL   H32028934   1.272   6.662   5.445  1.2562  0.9277  1.7623
   58MOL   H32128935   1.101   6.671   5.487  0.7121 -2.3791 -0.7154
   58MOL   H32228936   1.129   6.899   5.575 -1.6352 -1.3160  0.3862
   58MOL   H32328937   1.300   6.898   5.527  0.2180  1.0014 -0.8747
   58MOL   H32428938   1.078   6.856   5.323  1.1485 -0.5589 -2.6386
   58MOL   H32528939   1.152   7.011   5.346 -2.1973 -0.2016 -0.0210
   58MOL   H32628940   1.237   6.867   5.284 -1.8837 -0.3164 -1.3545
   58MOL   C32728941   1.043   6.555   6.201 -0.2505 -0.1258 -0.1753
   58MOL   C32828942   1.151   6.442   6.214  0.5589  0.2231  0.0666
   58MOL   O32928943   1.250   6.493   6.305 -0.1855 -0.1520  0.4087
   58MOL   C33028944   1.378   6.469   6.256 -0.3209 -0.1444 -0.1025
   58MOL   C33128945   1.490   6.497   6.353  0.4724  0.6716 -1.1975
   58MOL   C33228946   1.499   6.405   6.483  0.5498  0.3248  0.5131
   58MOL   C33328947   1.603   6.456   6.580 -0.1662 -0.3608 -0.5290
   58MOL   C33428948   1.740   6.453   6.520  0.0045  0.2987 -0.9158
   58MOL   C33528949   1.843   6.503   6.614  0.4573  0.0561 -0.0090
   58MOL   H33628950   0.962   6.518   6.139 -0.5615  1.9310 -1.0211
   58MOL   H33728951   0.998   6.566   6.299  0.7960 -1.4975  0.4711
   58MOL   H33828952   1.195   6.435   6.114 -0.0905 -1.6540 -0.1070
   58MOL   H33928953   1.391   6.540   6.175 -0.7514  0.9210  0.7477
   58MOL   H34028954   1.398   6.364   6.234  1.1181  0.2348 -0.6497
   58MOL   H34128955   1.479   6.600   6.387  0.6054  1.0219 -2.2031
   58MOL   H34228956   1.580   6.490   6.293 -0.1172 -0.6129 -1.9451
   58MOL   H34328957   1.404   6.410   6.536  0.6310 -0.7087  0.7614
   58MOL   H34428958   1.509   6.302   6.452 -0.4349  0.6098 -0.7611
   58MOL   H34528959   1.571   6.550   6.625 -0.9897 -0.0698 -1.7142
   58MOL   H34628960   1.595   6.398   6.673 -0.4451  0.5850  0.0445
   58MOL   H34728961   1.774   6.359   6.476  1.1639 -0.1426  0.8766
   58MOL   H34828962   1.743   6.524   6.437  2.6219  1.1777 -0.1109
   58MOL   H34928963   1.836   6.458   6.713 -0.0541 -0.2264 -0.1730
   58MOL   H35028964   1.944   6.491   6.576  0.8292  4.3590 -0.5945
   58MOL   H35128965   1.824   6.610   6.623  0.2132  0.0231 -0.1334
   58MOL   C35228966   1.105   6.302   6.265  0.2443  0.4625  0.7285
   58MOL   C35328967   0.984   6.293   6.360 -0.5831  0.5504 -0.2816
   58MOL   O35428968   1.023   6.212   6.472  0.0737  0.7246  0.1688
   58MOL   C35528969   1.097   6.272   6.564 -0.6468 -0.2021  0.0503
   58MOL   C35628970   1.171   6.176   6.666 -1.0579  0.5918 -0.0879
   58MOL   C35728971   1.062   6.121   6.757  0.1992 -0.2705 -0.0449
   58MOL   C35828972   1.106   6.045   6.880  0.7141 -0.2156 -0.2849
   58MOL   C35928973   0.993   5.992   6.969  0.0245  0.8139 -0.4552
   58MOL   C36028974   1.039   5.896   7.075 -0.2387  0.2851  0.6558
   58MOL   H36128975   1.084   6.247   6.174  0.0246  2.4979 -0.4759
   58MOL   H36228976   1.189   6.251   6.313 -0.3717 -1.3201 -0.0739
   58MOL   H36328977   0.949   6.392   6.391  1.0747  1.1122 -0.1365
   58MOL   H36428978   1.056   6.358   6.616 -0.2224  0.6910 -1.0679
   58MOL   H36528979   1.181   6.330   6.525 -0.6075  1.5476  2.6334
   58MOL   H36628980   1.247   6.233   6.718  0.0295 -1.3232  0.4612
   58MOL   H36728981   1.229   6.093   6.626  1.1191  0.9065  2.2991
   58MOL   H36828982   0.997   6.205   6.784 -0.5533 -1.4612  1.9910
   58MOL   H36928983   0.994   6.067   6.691  2.3469  0.2669 -2.8030
   58MOL   H37028984   1.168   5.961   6.848  0.7565 -0.2111 -0.2148
   58MOL   H37128985   1.179   6.100   6.940 -0.2408 -1.1218  1.7608
   58MOL   H37228986   0.931   6.076   7.002 -3.0755 -1.2874 -0.7470
   58MOL   H37328987   0.933   5.940   6.895  0.5217 -0.2980 -0.0873
   58MOL   H37428988   1.086   5.813   7.021 -1.0195  1.2216 -1.5600
   58MOL   H37528989   1.104   5.935   7.152  2.5016 -0.8956 -1.0015
   58MOL   H37628990   0.956   5.851   7.130  0.1063 -0.1894  0.7851
   58MOL   C37728991   0.859   6.235   6.289  0.2558 -0.7163 -0.2628
   58MOL   C37828992   0.741   6.208   6.378  0.2464  0.0892 -0.0970
   58MOL   O37928993   0.646   6.137   6.296  0.8916 -0.4822  0.7254
   58MOL   C38028994   0.550   6.052   6.370  0.0789  0.3039 -0.1523
   58MOL   C38128995   0.483   5.966   6.262 -0.9496  0.0169 -0.2868
   58MOL   C38228996   0.381   6.033   6.171 -0.2078 -0.8606  0.9463
   58MOL   C38328997   0.337   5.950   6.044 -1.0151 -0.4005 -0.2328
   58MOL   C38428998   0.239   6.025   5.951  0.3466  0.3692 -0.5893
   58MOL   C38528999   0.238   5.960   5.818 -0.6075  0.2998  0.1438
   58MOL   H38629000   0.827   6.303   6.210 -0.3178 -1.7124 -0.9075
   58MOL   H38729001   0.890   6.149   6.229  0.7899 -1.5713  1.2293
   58MOL   H38829002   0.770   6.136   6.454 -1.4885 -0.4478  0.0587
   58MOL   H38929003   0.475   6.114   6.420  0.5439  0.6159  0.1628
   58MOL   H39029004   0.594   5.985   6.443  1.1039  0.1111 -0.9250
   58MOL   H39129005   0.442   5.876   6.307  1.3078 -0.0622  1.6889
   58MOL   H39229006   0.563   5.927   6.199  0.2770  0.6462  0.8602
   58MOL   H39329007   0.294   6.064   6.230  1.2101  0.8749  2.1595
   58MOL   H39429008   0.425   6.122   6.126  0.7368 -1.5095  0.5829
   58MOL   H39529009   0.422   5.906   5.992 -0.3220  1.6894 -0.8946
   58MOL   H39629010   0.281   5.864   6.080  0.9018 -1.1831  0.9963
   58MOL   H39729011   0.142   6.027   6.001  1.2626 -1.0471  1.3441
   58MOL   H39829012   0.252   6.132   5.935  2.2410 -0.1962 -3.1421
   58MOL   H39929013   0.154   6.001   5.762  0.8846  3.8428  0.3413
   58MOL   H40029014   0.329   5.979   5.761 -1.1722  1.4580 -0.3900
   58MOL   H40129015   0.222   5.853   5.831  1.4386 -0.3821 -2.4948
   58MOL   C40229016   0.676   6.340   6.424 -0.0092  0.2317  0.0335
   58MOL   C40329017   0.630   6.455   6.322 -0.3353 -0.5759  0.2996
   58MOL   O40429018   0.562   6.557   6.391 -0.1693  0.1540 -0.4493
   58MOL   C40529019   0.645   6.652   6.460  0.5158  0.1865  0.1106
   58MOL   C40629020   0.548   6.765   6.511 -0.1414  0.5186 -0.3773
   58MOL   C40729021   0.473   6.826   6.395 -0.2259 -0.1123  0.3687
   58MOL   C40829022   0.341   6.912   6.431 -0.2898  0.4700  0.2051
   58MOL   C40929023   0.365   7.010   6.549 -0.0506  0.3661  0.4806
   58MOL   C41029024   0.235   7.078   6.592 -0.1781  0.2420  0.6641
   58MOL   H41129025   0.742   6.395   6.491  1.1900 -0.2389 -0.7399
   58MOL   H41229026   0.582   6.319   6.475  0.0384 -0.9072 -0.3305
   58MOL   H41329027   0.718   6.494   6.271  0.2543  0.2945  1.9263
   58MOL   H41429028   0.713   6.688   6.382 -0.9723  0.0653 -1.2636
   58MOL   H41529029   0.690   6.599   6.543 -1.5332 -0.0375  1.1044
   58MOL   H41629030   0.616   6.845   6.538  0.4942  0.5278 -1.9664
   58MOL   H41729031   0.476   6.733   6.587 -2.2681 -1.2762 -3.0176
   58MOL   H41829032   0.534   6.881   6.323 -1.9472  1.2569 -0.1128
   58MOL   H41929033   0.428   6.747   6.335 -1.4078 -0.5664  1.8257
   58MOL   H42029034   0.308   6.975   6.348 -0.2819  0.5915  0.2934
   58MOL   H42129035   0.267   6.833   6.441 -1.2162  0.8550 -2.9966
   58MOL   H42229036   0.409   6.964   6.638  2.3621  1.3329 -0.1753
   58MOL   H42329037   0.441   7.078   6.511  1.0679 -1.7941 -1.3318
   58MOL   H42429038   0.178   7.131   6.515  0.6479  0.8995  0.5074
   58MOL   H42529039   0.167   7.009   6.641 -1.6376  1.0936 -0.1314
   58MOL   H42629040   0.256   7.151   6.669 -1.4010  0.1012  1.1499
   58MOL   C42729041   0.534   6.402   6.213 -0.0961  0.0076  0.1606
   58MOL   C42829042   0.482   6.503   6.110 -0.5041  0.2116  0.3106
   58MOL   O42929043   0.584   6.518   6.011 -0.3784  0.3847 -0.8226
   58MOL   C43029044   0.638   6.648   6.015 -0.3195 -0.5796  0.8984
   58MOL   C43129045   0.739   6.661   5.898 -0.1570  0.0938 -0.1374
   58MOL   C43229046   0.659   6.674   5.768 -0.3060 -0.3594  0.0283
   58MOL   C43329047   0.739   6.694   5.639  0.0472 -0.1593 -0.6460
   58MOL   C43429048   0.815   6.830   5.630 -0.4744 -0.3993  0.3023
   58MOL   C43529049   0.726   6.955   5.614 -0.3344  0.1831 -0.1924
   58MOL   H43629050   0.574   6.316   6.158 -0.1509  0.2569 -0.2678
   58MOL   H43729051   0.449   6.371   6.274  0.5545 -1.2477  0.4520
   58MOL   H43829052   0.436   6.593   6.150 -0.0137  0.8288 -0.4819
   58MOL   H43929053   0.691   6.653   6.110  1.7351  0.5466 -0.2606
   58MOL   H44029054   0.559   6.723   6.004  0.9109  0.6530  0.3109
   58MOL   H44129055   0.808   6.577   5.888 -1.8633 -1.3053 -0.5354
   58MOL   H44229056   0.801   6.749   5.913 -1.2759  1.0693 -1.1372
   58MOL   H44329057   0.602   6.581   5.758 -2.0742  0.4439  2.1588
   58MOL   H44429058   0.584   6.752   5.782 -0.1515 -0.4054  1.2042
   58MOL   H44529059   0.800   6.605   5.621 -0.6886 -0.9717  0.7837
   58MOL   H44629060   0.664   6.691   5.560 -1.7016  2.4395  0.8555
   58MOL   H44729061   0.886   6.843   5.712  0.4539 -0.2501 -0.5162
   58MOL   H44829062   0.887   6.823   5.548  0.5439 -2.7230  1.3253
   58MOL   H44929063   0.677   6.975   5.708  1.4442 -1.5948  1.1597
   58MOL   H45029064   0.785   7.044   5.589  1.9954 -1.5396 -1.0831
   58MOL   H45129065   0.651   6.939   5.537 -0.8255 -1.7735  0.6570
   58MOL   C45229066   0.365   6.434   6.031  0.2582  0.4974 -0.3843
   58MOL   C45329067   0.305   6.532   5.927  0.0521 -0.2853 -0.0793
   58MOL   O45429068   0.213   6.612   5.991  0.3535 -0.0376 -0.5120
   58MOL   C45529069   0.210   6.743   5.941 -0.2799 -0.7058 -0.1275
   58MOL   C45629070   0.103   6.819   6.017  0.1824 -0.1654  1.0171
   58MOL   C45729071   0.149   6.855   6.164 -1.1725  0.1622 -0.3168
   58MOL   C45829072   0.035   6.926   6.240  0.6209 -0.2419 -0.6224
   58MOL   C45929073   7.715   6.830   6.316  0.4538  0.1463  0.0044
   58MOL   C46029074   7.634   6.907   6.420  0.0452 -0.5024  0.3916
   58MOL   H46129075   0.390   6.336   5.988 -1.6951 -0.6039  0.9146
   58MOL   H46229076   0.287   6.414   6.104  1.9313 -1.4534  0.9518
   58MOL   H46329077   0.382   6.590   5.877  1.0075 -3.0216 -1.8539
   58MOL   H46429078   0.183   6.738   5.835 -0.6199  1.8376 -0.1986
   58MOL   H46529079   0.303   6.795   5.962 -1.0693  0.5136  0.4205
   58MOL   H46629080   0.016   6.754   6.029 -0.8483  1.5101  3.1183
   58MOL   H46729081   0.082   6.905   5.954 -0.8715  0.1225  1.7477
   58MOL   H46829082   0.180   6.763   6.215  0.8504 -0.2155 -2.1466
   58MOL   H46929083   0.240   6.914   6.152 -1.2107  0.4725  0.8560
   58MOL   H47029084   0.079   7.001   6.305  0.5487 -1.6100  1.0704
   58MOL   H47129085   7.757   6.992   6.174  0.3438  1.8817  1.6607
   58MOL   H47229086   7.654   6.781   6.241 -1.1338  0.6190  0.9635
   58MOL   H47329087   7.764   6.747   6.366  0.4356  0.5856  0.7641
   58MOL   H47429088   7.572   6.981   6.370 -2.2980 -1.5643  1.6706
   58MOL   H47529089   7.584   6.837   6.486  0.7967 -2.9340 -1.5638
   58MOL   H47629090   7.704   6.966   6.480 -0.5490 -0.5418  1.1330
   58MOL   C47729091   0.223   6.454   5.818 -0.2910 -0.1190  0.6087
   58MOL   C47829092   0.303   6.391   5.700 -0.3582  1.0585  0.3891
   58MOL   O47929093   0.239   6.305   5.617  0.5241  0.0483 -0.0367
   58MOL   C48029094   0.325   6.238   5.529  0.4983 -0.0459 -0.1615
   58MOL   C48129095   0.265   6.184   5.403 -0.4488 -0.0758 -0.0558
   58MOL   C48229096   0.187   6.279   5.314  0.8610 -0.2998 -0.3379
   58MOL   C48329097   0.088   6.213   5.217  0.1729 -0.1518 -0.2485
   58MOL   C48429098   0.022   6.329   5.137  0.0145  0.5270 -0.3293
   58MOL   C48529099   7.706   6.282   5.025 -0.1407  0.9920  0.1744
   58MOL   H48629100   0.178   6.373   5.875 -0.7477  0.7393  1.4798
   58MOL   H48729101   0.143   6.510   5.769  0.1967 -0.0236 -0.0883
   58MOL   H48829102   0.330   6.479   5.641 -1.5234 -0.1764 -2.0669
   58MOL   H48929103   0.376   6.161   5.588 -0.0101  0.5192  1.0223
   58MOL   H49029104   0.405   6.303   5.493  3.0686 -1.9949  1.8043
   58MOL   H49129105   0.202   6.105   5.443  0.8866 -0.2479  1.8000
   58MOL   H49229106   0.346   6.134   5.350 -1.9868 -0.3287 -2.2650
   58MOL   H49329107   0.131   6.351   5.373  2.6088  0.4442  0.4585
   58MOL   H49429108   0.259   6.344   5.265  1.5952 -0.9434 -0.1313
   58MOL   H49529109   0.142   6.143   5.152  1.1128 -0.1567  0.5310
   58MOL   H49629110   0.018   6.154   5.275  0.6891 -1.4861 -0.9363
   58MOL   H49729111   7.758   6.400   5.208 -1.4809  0.3765 -1.0428
   58MOL   H49829112   0.095   6.390   5.084  0.4849 -0.5986 -0.9987
   58MOL   H49929113   7.613   6.249   5.070  0.7509 -0.0106  1.3231
   58MOL   H50029114   7.672   6.357   4.954 -0.6568 -0.1230 -0.7660
   58MOL   H50129115   7.736   6.192   4.971  2.7217  1.3330  1.0784
   58MOL   H50229116   0.395   6.340   5.727 -0.7551 -0.0125 -0.2311
   59MOL     C129117   2.534   1.863   2.631 -0.2882 -0.9977 -0.3647
   59MOL     C229118   2.544   1.866   2.783  0.1162 -0.1330 -0.2862
   59MOL     O329119   2.562   1.725   2.824 -0.3203 -0.3323  0.4789
   59MOL     C429120   2.700   1.688   2.823  0.2862 -0.3596 -0.0941
   59MOL     C529121   2.723   1.570   2.913  0.3701  0.0823 -0.0855
   59MOL     C629122   2.795   1.603   3.042 -0.4724 -0.0098  0.5811
   59MOL     C729123   2.806   1.480   3.133 -1.3567  0.8181 -0.0508
   59MOL     C829124   2.873   1.500   3.272  0.2490  0.0839 -0.2593
   59MOL     C929125   2.785   1.604   3.349  0.2979 -0.0434  0.3918
   59MOL    H1029126   2.525   1.961   2.585 -1.9942 -0.3850  1.2228
   59MOL    H1129127   2.627   1.820   2.593  0.5674  1.5207 -1.2110
   59MOL    H1229128   2.617   1.935   2.825 -0.2552 -0.1104  0.3222
   59MOL    H1329129   2.755   1.779   2.846 -0.9584  0.5137 -0.4940
   59MOL    H1429130   2.727   1.666   2.720  0.4223 -1.3963  0.1522
   59MOL    H1529131   2.792   1.502   2.863  2.2201  1.8836 -0.0488
   59MOL    H1629132   2.636   1.507   2.931  0.3023 -0.0949 -1.0105
   59MOL    H1729133   2.895   1.645   3.031 -0.5495  0.0898  0.2452
   59MOL    H1829134   2.734   1.678   3.093  1.2511  1.8754 -0.0540
   59MOL    H1929135   2.709   1.430   3.141  0.4653 -2.7278  1.1564
   59MOL    H2029136   2.857   1.402   3.075 -1.4627  0.3962  0.4257
   59MOL    H2129137   2.977   1.528   3.259 -0.7066  2.9843 -2.2781
   59MOL    H2229138   2.873   1.401   3.318  0.1517 -0.2875 -1.0497
   59MOL    H2329139   2.791   1.701   3.300 -1.2152 -0.6001 -0.9596
   59MOL    H2429140   2.680   1.575   3.339 -0.5328  2.9499 -0.0988
   59MOL    H2529141   2.804   1.612   3.456  2.6465  0.8355 -0.0701
   59MOL    H2629142   2.454   1.796   2.600 -0.3797 -1.0696  0.0235
   59MOL    C2729143   2.412   1.922   2.842  0.1232 -0.8706 -0.4405
   59MOL    C2829144   2.393   1.899   2.993 -0.2700 -0.3057 -0.3783
   59MOL    O2929145   2.482   1.985   3.058  0.2189 -0.2193 -0.0799
   59MOL    C3029146   2.555   1.925   3.166  0.5526  0.3035  0.3768
   59MOL    C3129147   2.593   2.033   3.263 -0.7433  0.0859 -0.0618
   59MOL    C3229148   2.473   2.111   3.323 -0.6504  0.3254  0.2021
   59MOL    C3329149   2.497   2.208   3.439 -0.0663  0.4350  0.2860
   59MOL    C3429150   2.356   2.252   3.493 -0.6449 -0.1617 -0.4143
   59MOL    C3529151   2.374   2.325   3.635  0.2216 -0.0742  0.7962
   59MOL    H3629152   2.411   2.026   2.809 -4.3711 -0.1887  1.4401
   59MOL    H3729153   2.338   1.868   2.784  0.2716 -0.7078 -0.7833
   59MOL    H3829154   2.424   1.795   3.002 -0.7106 -0.2575  2.2095
   59MOL    H3929155   2.647   1.878   3.132 -0.9519 -2.0348 -0.5906
   59MOL    H4029156   2.493   1.851   3.217  2.3221 -2.1968 -0.9708
   59MOL    H4129157   2.647   2.110   3.208  0.9638  0.2652  1.7960
   59MOL    H4229158   2.653   1.993   3.345 -1.4584 -0.1011  0.3768
   59MOL    H4329159   2.428   2.174   3.246  1.2587  2.0447  0.4287
   59MOL    H4429160   2.404   2.036   3.361  0.5033  0.0485  1.7888
   59MOL    H4529161   2.553   2.160   3.519 -0.6418  1.4012  1.2836
   59MOL    H4629162   2.556   2.293   3.405 -1.1731  1.6262  1.2877
   59MOL    H4729163   2.309   2.323   3.425  2.7481  2.6189 -0.0162
   59MOL    H4829164   2.280   2.174   3.499  0.1707 -0.9531 -0.3047
   59MOL    H4929165   2.388   2.254   3.716  0.5727 -0.7813  0.1229
   59MOL    H5029166   2.455   2.397   3.627 -1.0616  1.2062 -1.4000
   59MOL    H5129167   2.282   2.380   3.653  0.9422  1.9712 -1.4906
   59MOL    C5229168   2.244   1.919   3.024 -0.2267 -0.0273 -0.3682
   59MOL    C5329169   2.191   1.878   3.163  0.5039  0.0086 -0.3707
   59MOL    O5429170   2.057   1.929   3.170 -0.4660 -0.1946 -0.0339
   59MOL    C5529171   2.043   2.015   3.280  0.0786 -0.1132 -0.4069
   59MOL    C5629172   1.912   2.091   3.250  0.6001 -0.6163 -0.2529
   59MOL    C5729173   1.861   2.188   3.350  0.8136 -0.1231 -0.2808
   59MOL    C5829174   1.725   2.254   3.292 -1.1624 -0.2671 -0.2328
   59MOL    C5929175   1.667   2.370   3.379  0.0587  0.1518  0.2943
   59MOL    C6029176   1.515   2.406   3.350 -0.0631  1.0021  0.0877
   59MOL    H6129177   2.186   1.850   2.962  0.1944  0.2581 -1.0781
   59MOL    H6229178   2.212   2.021   3.002 -1.6000 -0.4442 -0.3909
   59MOL    H6329179   2.264   1.920   3.233 -0.9349  1.8242  0.0707
   59MOL    H6429180   2.125   2.087   3.284 -1.3635  1.5271  0.2055
   59MOL    H6529181   2.029   1.951   3.367 -1.9450 -2.4997 -2.4277
   59MOL    H6629182   1.835   2.015   3.239 -0.5775  0.2074  2.0865
   59MOL    H6729183   1.908   2.116   3.144  1.3470 -2.1968 -0.6850
   59MOL    H6829184   1.840   2.139   3.445  0.0229 -0.7271 -0.7632
   59MOL    H6929185   1.926   2.273   3.372  0.1929 -0.1901  1.9632
   59MOL    H7029186   1.757   2.280   3.192 -1.2539 -2.2635 -0.7983
   59MOL    H7129187   1.648   2.178   3.274 -1.5009 -0.5028  2.0478
   59MOL    H7229188   1.678   2.355   3.486 -1.4265  2.3235  0.7838
   59MOL    H7329189   1.737   2.451   3.361  0.6581 -0.8181 -1.8732
   59MOL    H7429190   1.485   2.481   3.423  3.2701  2.2461  0.2728
   59MOL    H7529191   1.504   2.457   3.254  2.8418 -1.9860 -1.9148
   59MOL    H7629192   1.451   2.319   3.359  0.6568  0.5508  0.8883
   59MOL    C7729193   2.195   1.719   3.192  0.5770  0.9625  0.8966
   59MOL    C7829194   2.168   1.676   3.337  0.0158 -0.3946  0.1456
   59MOL    O7929195   2.277   1.708   3.422  0.1332 -0.3352  0.1115
   59MOL    C8029196   2.230   1.783   3.537  0.9651 -0.3485  1.0404
   59MOL    C8129197   2.335   1.763   3.650 -0.8351 -0.3528 -0.0013
   59MOL    C8229198   2.465   1.840   3.614  0.1798  0.5083 -0.7574
   59MOL    C8329199   2.573   1.815   3.718  0.5847 -0.2089  0.1349
   59MOL    C8429200   2.700   1.887   3.688  0.1005  0.0039 -0.1066
   59MOL    C8529201   2.808   1.863   3.794 -0.1069 -0.0508 -0.1961
   59MOL    H8629202   2.289   1.672   3.164 -0.6199  0.7798 -3.2046
   59MOL    H8729203   2.124   1.671   3.125  1.3943 -0.7830  1.2339
   59MOL    H8829204   2.073   1.722   3.365  1.6788  1.6342  2.6484
   59MOL    H8929205   2.136   1.752   3.583  0.6577 -1.1825 -0.1281
   59MOL    H9029206   2.220   1.889   3.514  2.3641 -0.2186  0.9589
   59MOL    H9129207   2.344   1.656   3.670 -2.6717 -1.1830 -3.1949
   59MOL    H9229208   2.286   1.793   3.743  2.5315  1.1005  1.4012
   59MOL    H9329209   2.506   1.811   3.517  0.8562 -1.2305  0.0256
   59MOL    H9429210   2.442   1.946   3.611  1.3129  0.8464  1.6109
   59MOL    H9529211   2.529   1.853   3.810  2.1257  1.4640  0.2038
   59MOL    H9629212   2.584   1.706   3.723 -0.5513 -0.2983  0.8663
   59MOL    H9729213   2.737   1.860   3.589  0.8756 -1.0851  0.4710
   59MOL    H9829214   2.676   1.993   3.693 -1.3250 -0.3616  1.1973
   59MOL    H9929215   2.764   1.875   3.893  0.7016  1.3027  0.0107
   59MOL   H10029216   2.833   1.757   3.802 -0.3129  0.0155  1.6562
   59MOL   H10129217   2.891   1.932   3.780 -0.6591  0.6749  0.0632
   59MOL   C10229218   2.139   1.531   3.342  0.5333  0.5366 -0.1203
   59MOL   C10329219   2.110   1.470   3.479 -0.3358  0.2291 -0.8586
   59MOL   O10429220   2.012   1.362   3.460  0.3539 -0.2128  0.1747
   59MOL   C10529221   1.907   1.380   3.552  0.4198  0.3301  0.2280
   59MOL   C10629222   1.845   1.240   3.559 -0.2226  0.7844 -0.5200
   59MOL   C10729223   1.712   1.232   3.628 -0.1287  0.3643 -0.0382
   59MOL   C10829224   1.660   1.093   3.623 -0.1801 -0.7057 -0.2033
   59MOL   C10929225   1.546   1.073   3.726 -0.1347 -0.6017  0.3496
   59MOL   C11029226   1.506   0.922   3.725 -0.1323 -0.1781  0.4117
   59MOL   H11129227   2.052   1.514   3.278 -0.2595 -1.9854  1.5318
   59MOL   H11229228   2.215   1.476   3.286 -1.1702  0.1094 -2.0734
   59MOL   H11329229   2.076   1.550   3.545  2.7147  0.0562  0.9967
   59MOL   H11429230   1.834   1.448   3.507 -1.0658 -0.2520  1.7002
   59MOL   H11529231   1.924   1.409   3.656  2.1588 -1.2392  0.4065
   59MOL   H11629232   1.907   1.175   3.622 -1.4586 -2.0440 -2.1163
   59MOL   H11729233   1.834   1.191   3.463 -2.1747 -0.2591  0.2104
   59MOL   H11829234   1.727   1.260   3.732 -1.9558  2.2334 -0.2535
   59MOL   H11929235   1.651   1.309   3.582  1.6260  1.0955 -1.2138
   59MOL   H12029236   1.615   1.100   3.524  1.2417  1.4801 -0.7308
   59MOL   H12129237   1.736   1.015   3.634 -0.4729 -0.7832  1.3513
   59MOL   H12229238   1.584   1.088   3.827 -1.3906 -0.5482  0.8151
   59MOL   H12329239   1.460   1.139   3.719  1.0561  0.9762  0.3717
   59MOL   H12429240   1.429   0.899   3.798 -1.6166 -0.4560 -1.2033
   59MOL   H12529241   1.467   0.903   3.625 -1.2239 -0.8442  0.9545
   59MOL   H12629242   1.593   0.856   3.735  0.4579  0.5556  0.2053
   59MOL   C12729243   2.237   1.412   3.527  0.1118  0.3673 -0.3583
   59MOL   C12829244   2.238   1.344   3.668 -0.0135  0.5652 -0.4982
   59MOL   O12929245   2.225   1.444   3.763  0.3992  0.0175 -0.8024
   59MOL   C13029246   2.168   1.400   3.884  0.0460  0.4333 -0.1038
   59MOL   C13129247   2.239   1.466   4.007  0.1935 -0.1078  0.0333
   59MOL   C13229248   2.193   1.611   4.032  0.7111  0.2242 -0.8286
   59MOL   C13329249   2.260   1.672   4.158  0.2984  0.3767  0.2168
   59MOL   C13429250   2.235   1.819   4.183  0.0032  0.4660 -0.7981
   59MOL   C13529251   2.297   1.856   4.323 -0.2881 -0.0550  0.1680
   59MOL   H13629252   2.276   1.341   3.455  2.6793 -0.3639  1.6517
   59MOL   H13729253   2.319   1.483   3.540 -0.1830  0.7910 -0.8342
   59MOL   H13829254   2.155   1.274   3.674  0.4855  0.0736  0.8140
   59MOL   H13929255   2.188   1.294   3.894 -0.3841  0.4009  0.3822
   59MOL   H14029256   2.059   1.402   3.879 -0.0638 -0.0501  1.9039
   59MOL   H14129257   2.347   1.469   3.995  0.2359 -0.6635  0.2604
   59MOL   H14229258   2.218   1.402   4.093  1.9202 -0.4789  0.1967
   59MOL   H14329259   2.234   1.663   3.946  2.2199 -1.1406 -0.9528
   59MOL   H14429260   2.085   1.614   4.049  0.8914 -2.4370  1.0325
   59MOL   H14529261   2.228   1.612   4.244 -1.7318 -0.6332 -1.2012
   59MOL   H14629262   2.369   1.671   4.151  0.1720 -3.1012 -2.4292
   59MOL   H14729263   2.292   1.884   4.117 -0.4385  1.4734 -0.2169
   59MOL   H14829264   2.134   1.859   4.187 -0.1824 -0.1359  3.0637
   59MOL   H14929265   2.398   1.816   4.333 -0.3563 -0.0695  0.7740
   59MOL   H15029266   2.291   1.965   4.325 -1.7039 -0.0347 -2.2080
   59MOL   H15129267   2.235   1.809   4.398  0.8276 -0.5636  0.7709
   59MOL   C15229268   2.373   1.271   3.690 -0.2252  0.4400 -0.4239
   59MOL   C15329269   2.381   1.131   3.619  0.6272 -0.3820 -0.6571
   59MOL   O15429270   2.518   1.090   3.627 -0.0246 -0.1283  0.4862
   59MOL   C15529271   2.595   1.103   3.512 -0.3111  0.4681  0.8234
   59MOL   C15629272   2.738   1.058   3.540  0.6551  0.2529  0.2205
   59MOL   C15729273   2.825   1.086   3.421  0.3356  0.2085  0.7600
   59MOL   C15829274   2.971   1.071   3.447 -0.6601  0.0964 -0.2214
   59MOL   C15929275   3.060   1.146   3.348  0.1637  0.0296  0.1065
   59MOL   C16029276   3.212   1.131   3.384  0.1213 -0.2093  0.2800
   59MOL   H16129277   2.455   1.333   3.653 -0.6702  1.4083  0.1703
   59MOL   H16229278   2.391   1.265   3.797 -0.6868  1.7998 -0.2524
   59MOL   H16329279   2.344   1.143   3.517 -1.3216  0.1478  0.0865
   59MOL   H16429280   2.596   1.210   3.489  1.1793  0.3215  0.1528
   59MOL   H16529281   2.536   1.046   3.439  3.2626 -0.3474 -1.5345
   59MOL   H16629282   2.742   0.951   3.556  1.8658  0.2886  0.1928
   59MOL   H16729283   2.775   1.118   3.623  1.5283 -1.8146  1.3527
   59MOL   H16829284   2.807   1.013   3.342  0.8682  2.5396 -1.5602
   59MOL   H16929285   2.816   1.189   3.389 -1.2822 -0.4792 -1.1002
   59MOL   H17029286   2.991   1.097   3.551 -0.6290  0.0474 -0.2153
   59MOL   H17129287   3.002   0.967   3.442 -0.4131  0.1648 -0.1060
   59MOL   H17229288   3.057   1.104   3.247 -0.3713 -1.0817  0.5771
   59MOL   H17329289   3.035   1.251   3.353  1.2507  0.2989  0.0531
   59MOL   H17429290   3.263   1.160   3.292 -0.4547  3.1975  0.9666
   59MOL   H17529291   3.241   1.202   3.462  1.9280  2.3443 -2.6128
   59MOL   H17629292   3.230   1.033   3.429 -0.1004 -1.4456 -2.2147
   59MOL   C17729293   2.298   1.020   3.696 -0.6707  0.3201  0.3879
   59MOL   C17829294   2.287   0.884   3.623 -0.0444  0.2737  0.1243
   59MOL   O17929295   2.180   0.886   3.525  0.4239 -0.1736  0.1673
   59MOL   C18029296   2.048   0.849   3.568  0.5815 -0.5835  0.1227
   59MOL   C18129297   1.957   0.793   3.462  0.1648 -0.8601  0.6044
   59MOL   C18229298   1.905   0.898   3.362  0.1386 -0.4319  0.9931
   59MOL   C18329299   1.799   0.847   3.258 -0.1446  0.1099  0.8459
   59MOL   C18429300   1.765   0.945   3.145 -0.1288 -0.8078 -0.2480
   59MOL   C18529301   1.873   0.946   3.028  0.3080 -0.2904  0.0335
   59MOL   H18629302   2.362   1.015   3.784  0.6264 -1.6053 -0.6545
   59MOL   H18729303   2.198   1.057   3.722  0.2894  2.5243  1.0743
   59MOL   H18829304   2.249   0.822   3.705  0.6149 -0.6325 -0.2510
   59MOL   H18929305   2.007   0.936   3.620  0.9128 -0.8442  0.8213
   59MOL   H19029306   2.039   0.772   3.645 -2.0939  1.1799  1.6341
   59MOL   H19129307   1.870   0.762   3.520  0.3415  0.2692  1.4727
   59MOL   H19229308   1.993   0.709   3.402  3.2159  0.3097  0.7325
   59MOL   H19329309   1.858   0.983   3.411 -0.0825 -0.4416  0.7994
   59MOL   H19429310   1.990   0.944   3.312 -1.1045  1.6676  0.7610
   59MOL   H19529311   1.835   0.750   3.224 -1.2771 -0.7552  2.0683
   59MOL   H19629312   1.701   0.830   3.300 -0.2809  1.9779  1.3467
   59MOL   H19729313   1.668   0.926   3.100  0.1435 -1.5371 -0.5316
   59MOL   H19829314   1.750   1.044   3.187 -1.4082  0.0632 -2.6524
   59MOL   H19929315   1.928   0.855   3.003  0.9842  0.4053 -1.0302
   59MOL   H20029316   1.818   0.981   2.941 -2.5051 -1.0081  1.4655
   59MOL   H20129317   1.946   1.027   3.039 -1.0207  1.2462 -2.2211
   59MOL   C20229318   2.408   0.810   3.567  0.2656 -0.0891 -0.3450
   59MOL   C20329319   2.377   0.661   3.551 -0.1182 -0.0742  0.0154
   59MOL   O20429320   2.373   0.601   3.681 -0.1706  0.4752 -0.0130
   59MOL   C20529321   2.279   0.493   3.693  0.3654 -0.4424 -0.0105
   59MOL   C20629322   2.279   0.463   3.850  0.8453  0.4306  0.2690
   59MOL   C20729323   2.227   0.323   3.879 -0.0684  0.5719 -0.4082
   59MOL   C20829324   2.162   0.292   4.020  0.0075 -0.2681 -0.2787
   59MOL   C20929325   2.137   0.134   4.031  0.5713  0.2515  0.2983
   59MOL   C21029326   2.262   0.046   4.047 -0.6229  0.1240 -0.4308
   59MOL   H21129327   2.443   0.856   3.475  1.3119 -2.7526 -1.3400
   59MOL   H21229328   2.492   0.824   3.636 -0.4920  0.5833  0.4463
   59MOL   H21329329   2.281   0.649   3.501  0.9678 -2.9077 -1.5816
   59MOL   H21429330   2.312   0.408   3.634 -2.3109 -0.5468 -1.4424
   59MOL   H21529331   2.176   0.519   3.667  0.8920  0.7662 -0.8951
   59MOL   H21629332   2.233   0.540   3.912  0.9508  1.4052 -0.8337
   59MOL   H21729333   2.379   0.471   3.891  0.5681 -0.0960  1.0540
   59MOL   H21829334   2.164   0.286   3.798 -0.0494 -2.2180  0.8012
   59MOL   H21929335   2.303   0.248   3.856 -1.2145 -0.8877  0.4697
   59MOL   H22029336   2.228   0.328   4.099  0.4801 -1.7274 -0.0044
   59MOL   H22129337   2.065   0.342   4.028  0.4979  0.6799 -0.1112
   59MOL   H22229338   2.073   0.112   4.116  1.8437  0.3680  1.3052
   59MOL   H22329339   2.078   0.093   3.950 -0.7200 -0.2136  1.4446
   59MOL   H22429340   2.235   7.722   4.075 -1.2300  0.3130 -0.3108
   59MOL   H22529341   2.317   0.044   3.953 -1.2401  0.4674 -0.8027
   59MOL   H22629342   2.321   0.083   4.131  0.4419  0.2276 -1.2238
   59MOL   C22729343   2.472   0.586   3.459 -0.3121 -0.1366  0.4053
   59MOL   C22829344   2.612   0.561   3.517  0.6411 -0.4143 -0.2471
   59MOL   O22929345   2.607   0.456   3.613  0.2164 -0.4602  0.8483
   59MOL   C23029346   2.653   0.489   3.743 -0.4297  0.7355 -0.5369
   59MOL   C23129347   2.646   0.356   3.829  0.1276  0.4436 -0.2494
   59MOL   C23229348   2.692   0.372   3.978  0.4524 -0.3854 -0.0955
   59MOL   C23329349   2.657   0.252   4.063 -0.4896 -0.5695 -0.4118
   59MOL   C23429350   2.742   0.127   4.040 -0.2222 -0.2294 -0.6117
   59MOL   C23529351   2.695   7.777   4.111 -0.6544  0.3301  0.5426
   59MOL   H23629352   2.428   0.487   3.448  0.2943 -0.2870 -0.8219
   59MOL   H23729353   2.474   0.630   3.359 -0.5148 -0.9242  0.0490
   59MOL   H23829354   2.651   0.653   3.559 -2.9718  1.9477 -1.7826
   59MOL   H23929355   2.592   0.570   3.783  0.1444  2.6306 -3.3355
   59MOL   H24029356   2.760   0.510   3.744 -0.3036  0.1978 -1.9153
   59MOL   H24129357   2.706   0.271   3.794 -0.6688 -0.2597  0.0706
   59MOL   H24229358   2.543   0.320   3.829  0.5340 -0.7509 -0.7884
   59MOL   H24329359   2.799   0.390   3.967  0.3337  0.1952 -0.3155
   59MOL   H24429360   2.644   0.461   4.017  2.3809  0.4667  0.3884
   59MOL   H24529361   2.659   0.269   4.171 -1.1184  0.0475 -0.4933
   59MOL   H24629362   2.555   0.215   4.051  0.7615 -3.9473 -1.0372
   59MOL   H24729363   2.733   0.114   3.932  0.7506 -0.2786 -0.6917
   59MOL   H24829364   2.843   0.159   4.068 -1.3384  2.4521  0.4835
   59MOL   H24929365   2.682   0.010   4.218  2.0369 -0.8772  1.0463
   59MOL   H25029366   2.595   7.754   4.075 -1.0987  1.0834  1.2749
   59MOL   H25129367   2.756   7.688   4.095 -2.2666 -0.5668 -0.8109
   59MOL   C25229368   2.695   0.508   3.400  0.2530 -0.1445 -0.0640
   59MOL   C25329369   2.833   0.472   3.449 -0.3229 -0.7899 -0.0044
   59MOL   O25429370   2.936   0.482   3.349  0.0630  0.0514 -0.3336
   59MOL   C25529371   3.024   0.594   3.373 -0.6726 -0.2366 -0.2315
   59MOL   C25629372   3.093   0.618   3.233  0.2430  0.2620  0.5467
   59MOL   C25729373   3.127   0.762   3.194 -0.4949  0.2850  0.0251
   59MOL   C25829374   3.188   0.780   3.050 -1.0519  0.5952  0.0725
   59MOL   C25929375   3.226   0.925   3.026 -0.4054 -0.1895  0.9927
   59MOL   C26029376   3.315   0.940   2.906 -0.0736  0.1435 -0.4115
   59MOL   H26129377   2.639   0.427   3.354  1.3066 -1.9256  1.7180
   59MOL   H26229378   2.686   0.582   3.320 -0.0354  1.4657  1.4361
   59MOL   H26329379   2.863   0.534   3.534 -0.9282 -0.5687  0.0498
   59MOL   H26429380   3.105   0.572   3.443 -0.0459 -1.5119 -1.3467
   59MOL   H26529381   2.985   0.689   3.409  2.4230  1.3919 -0.9460
   59MOL   H26629382   3.029   0.584   3.151 -0.9326  0.6033  1.3071
   59MOL   H26729383   3.187   0.563   3.232  0.3735  0.4824  0.6189
   59MOL   H26829384   3.042   0.819   3.228  0.8397  1.6687  1.0714
   59MOL   H26929385   3.199   0.808   3.261 -0.5962  0.8971 -0.2870
   59MOL   H27029386   3.271   0.711   3.040 -0.2088  1.7721 -1.4071
   59MOL   H27129387   3.117   0.760   2.970 -0.5176  1.8007 -0.7249
   59MOL   H27229388   3.137   0.984   3.001 -0.5971 -0.2951  1.4313
   59MOL   H27329389   3.272   0.976   3.110 -0.0826  0.6028  0.3399
   59MOL   H27429390   3.414   0.917   2.947 -0.8243 -0.7312  0.9360
   59MOL   H27529391   3.298   0.861   2.834  0.3783 -1.8034  1.5525
   59MOL   H27629392   3.310   1.034   2.850 -0.8019  0.6303  0.4569
   59MOL   C27729393   2.852   0.317   3.479  0.1396 -0.2570 -0.2163
   59MOL   C27829394   2.983   0.272   3.539  0.0596 -0.4154  0.8445
   59MOL   O27929395   3.002   0.321   3.679 -0.0977 -0.0764  0.1829
   59MOL   C28029396   3.134   0.335   3.725 -0.2185  0.3397 -0.2956
   59MOL   C28129397   3.133   0.371   3.870 -0.5033 -0.0077  0.2331
   59MOL   C28229398   3.275   0.398   3.922 -0.4796 -0.0705 -0.5209
   59MOL   C28329399   3.278   0.422   4.076 -0.4764 -0.0025  0.0559
   59MOL   C28429400   3.423   0.454   4.121 -0.2161  0.2274 -0.5510
   59MOL   C28529401   3.423   0.511   4.260  0.2752  0.4842  0.2662
   59MOL   H28629402   2.769   0.283   3.541 -0.0045  0.5123  0.0261
   59MOL   H28729403   2.838   0.276   3.379  0.1501  0.2569 -0.4302
   59MOL   H28829404   3.051   0.322   3.470 -1.7977 -0.1848 -0.8496
   59MOL   H28929405   3.177   0.415   3.665  1.2038 -2.2388 -2.8986
   59MOL   H29029406   3.200   0.249   3.710  0.4560  0.8770 -0.4125
   59MOL   H29129407   3.094   0.281   3.917 -1.0214 -1.0048 -2.0357
   59MOL   H29229408   3.066   0.451   3.899 -0.5757  0.6064 -1.6190
   59MOL   H29329409   3.345   0.321   3.889  0.2571  0.6814 -0.7350
   59MOL   H29429410   3.307   0.490   3.874  0.9584  1.5030  3.2405
   59MOL   H29529411   3.228   0.515   4.102  2.2387  1.6042 -0.3647
   59MOL   H29629412   3.235   0.337   4.130  0.2898  0.6640  1.7332
   59MOL   H29729413   3.482   0.362   4.120  2.6086  1.7933  4.0879
   59MOL   H29829414   3.459   0.517   4.040 -2.6672  1.2786 -0.8610
   59MOL   H29929415   3.417   0.434   4.336 -2.4682  0.8805  0.5150
   59MOL   H30029416   3.524   0.549   4.275  0.8608 -0.0850 -2.0578
   59MOL   H30129417   3.346   0.585   4.284 -0.3052  0.5215 -1.6346
   59MOL   C30229418   3.009   0.116   3.540  0.4161  0.1154  0.4531
   59MOL   C30329419   3.016   0.051   3.402 -0.0206  0.4602  0.1589
   59MOL   O30429420   3.033   7.688   3.412 -0.5017  0.2217 -0.0665
   59MOL   C30529421   2.915   7.617   3.419 -1.0007 -0.6648  0.5841
   59MOL   C30629422   2.974   7.475   3.452 -0.4681 -0.6136 -0.6908
   59MOL   C30729423   3.033   7.469   3.590  0.5072 -0.1824 -0.1408
   59MOL   C30829424   3.103   7.335   3.619 -0.2824  0.4541 -0.4731
   59MOL   C30929425   3.144   7.308   3.768 -0.3711  0.0484  0.0523
   59MOL   C31029426   3.214   7.173   3.782 -0.0159 -0.2025 -0.1887
   59MOL   H31129427   3.102   0.091   3.591  0.2673  0.2856  0.8112
   59MOL   H31229428   2.930   0.066   3.595 -0.3799 -0.1368 -0.9194
   59MOL   H31329429   2.919   0.063   3.354  0.0088 -1.8005 -0.5318
   59MOL   H31429430   2.855   7.626   3.329  1.1089  0.8859 -0.7096
   59MOL   H31529431   2.845   7.655   3.494  0.3428  0.5038  1.2908
   59MOL   H31629432   3.056   7.471   3.380  0.1976 -0.0881  0.0225
   59MOL   H31729433   2.895   7.400   3.443  0.8149 -2.1343  0.3631
   59MOL   H31829434   3.106   7.550   3.600 -1.7103  1.8460 -0.1120
   59MOL   H31929435   2.949   7.484   3.657 -1.1373  0.4461 -2.2614
   59MOL   H32029436   3.043   7.252   3.583 -1.2226  0.4471  1.0832
   59MOL   H32129437   3.190   7.327   3.553 -0.3664  1.1786 -0.6833
   59MOL   H32229438   3.215   7.385   3.798 -1.4925  0.6809  1.1294
   59MOL   H32329439   3.054   7.304   3.831 -2.0753 -0.2055 -2.3225
   59MOL   H32429440   3.224   7.136   3.884 -0.4595 -0.5776 -0.2760
   59MOL   H32529441   3.154   7.108   3.718 -0.5593  1.1159 -1.0227
   59MOL   H32629442   3.314   7.160   3.742  0.0069  0.9252 -0.5084
   59MOL   C32729443   3.117   0.111   3.305  0.7981  0.2648  0.0442
   59MOL   C32829444   3.126   0.044   3.163 -0.3905  0.1074  0.0690
   59MOL   O32929445   3.164   0.154   3.077  0.5623 -0.2593 -0.0328
   59MOL   C33029446   3.050   0.239   3.039  0.4652  0.0994 -0.0888
   59MOL   C33129447   3.100   0.340   2.925  0.3584 -0.2136 -0.5179
   59MOL   C33229448   2.996   0.445   2.877  0.1473 -0.8977  0.0551
   59MOL   C33329449   3.049   0.539   2.776  0.0051 -0.3443  0.0552
   59MOL   C33429450   2.938   0.641   2.739 -0.1898  0.2810 -0.4235
   59MOL   C33529451   3.002   0.754   2.655 -0.0611 -0.8202 -0.0627
   59MOL   H33629452   3.210   0.102   3.362  0.9870 -0.3725 -0.3575
   59MOL   H33729453   3.105   0.219   3.305  0.2915  0.2322 -1.8942
   59MOL   H33829454   3.030   7.774   3.142 -0.9178  0.5958  1.3323
   59MOL   H33929455   3.020   0.295   3.128  2.3877 -0.3356  0.8439
   59MOL   H34029456   2.972   0.175   2.996  0.5883 -0.7485  0.9423
   59MOL   H34129457   3.139   0.286   2.838  1.3727  0.4599 -0.4979
   59MOL   H34229458   3.185   0.402   2.955 -1.0199  2.1468 -1.4266
   59MOL   H34329459   2.911   0.387   2.840  0.9784 -1.6322 -0.7264
   59MOL   H34429460   2.958   0.509   2.957  2.5801 -0.8390  1.2054
   59MOL   H34529461   3.135   0.600   2.802  0.2887  0.7166 -3.1109
   59MOL   H34629462   3.088   0.489   2.688  0.7851 -1.0098  0.7785
   59MOL   H34729463   2.869   0.581   2.679  0.0129  0.5154 -0.8980
   59MOL   H34829464   2.882   0.683   2.823 -0.8748 -0.8339 -0.3150
   59MOL   H34929465   2.924   0.823   2.625 -0.2486 -1.2349 -0.5336
   59MOL   H35029466   3.074   0.804   2.719 -0.1011  0.0634 -0.7122
   59MOL   H35129467   3.057   0.717   2.569 -0.0644 -1.7525  0.3206
   59MOL   C35229468   3.241   7.724   3.142  0.4151  0.2361 -0.8152
   59MOL   C35329469   3.247   7.660   3.007  0.5025 -0.0650 -0.2488
   59MOL   O35429470   3.118   7.596   2.979  0.1849  0.3425  0.5025
   59MOL   C35529471   3.038   7.660   2.883  0.1506 -0.8287 -0.2401
   59MOL   C35629472   2.917   7.575   2.865  0.5345 -0.3085  0.2466
   59MOL   C35729473   2.821   7.624   2.751 -0.0843  0.2840  0.3915
   59MOL   C35829474   2.721   7.507   2.713 -0.2217 -0.1954 -0.0430
   59MOL   C35929475   2.636   7.453   2.833 -0.7507 -0.1063  0.0218
   59MOL   C36029476   2.568   7.329   2.799 -0.0035  0.7883  0.4292
   59MOL   H36129477   3.337   7.774   3.148  2.0453 -2.9525  0.9376
   59MOL   H36229478   3.236   7.649   3.222 -1.4018  1.1962 -0.0025
   59MOL   H36329479   3.253   7.745   2.939  0.1720 -0.5814 -0.9272
   59MOL   H36429480   3.092   7.658   2.788 -0.0065  0.6764 -0.3814
   59MOL   H36529481   3.012   7.763   2.911 -1.8431 -1.5950  0.8248
   59MOL   H36629482   2.865   7.573   2.961  1.4628  0.4069  0.7610
   59MOL   H36729483   2.945   7.473   2.836  0.0070 -0.1553 -0.8084
   59MOL   H36829484   2.769   7.707   2.799  0.4323  0.3845  0.7761
   59MOL   H36929485   2.870   7.672   2.666 -0.2744 -1.7931 -0.9334
   59MOL   H37029486   2.648   7.534   2.637  0.2344  1.0034 -0.0633
   59MOL   H37129487   2.779   7.422   2.675 -0.1328 -0.4212  0.5931
   59MOL   H37229488   2.691   7.435   2.926 -1.6702 -0.8122  0.4439
   59MOL   H37329489   2.562   7.527   2.866 -1.4570 -0.9388  0.3351
   59MOL   H37429490   2.649   7.258   2.781 -0.1107  0.4112  1.3777
   59MOL   H37529491   2.497   7.294   2.874 -1.1499 -0.9193 -1.3718
   59MOL   H37629492   2.507   7.354   2.711 -0.2375 -2.5397 -0.4414
   59MOL   C37729493   3.355   7.555   2.985 -0.0276  0.6141  0.7668
   59MOL   C37829494   3.493   7.603   2.995  0.2741  0.1814 -0.3043
   59MOL   O37929495   3.509   7.715   2.912 -0.1775 -0.7541  0.3306
   59MOL   C38029496   3.613   0.027   2.944 -0.4697  0.0691  0.5449
   59MOL   C38129497   3.582   0.159   2.879  0.4729  0.0155  0.2794
   59MOL   C38229498   3.699   0.254   2.876  0.0601 -0.0134  0.4218
   59MOL   C38329499   3.655   0.397   2.843 -0.2856  0.4015  0.4379
   59MOL   C38429500   3.715   0.512   2.926 -0.2165  0.1074  0.2203
   59MOL   C38529501   3.862   0.532   2.909  0.0032 -0.2376 -0.4582
   59MOL   H38629502   3.349   7.472   3.056  1.7501  0.3871  0.6856
   59MOL   H38729503   3.337   7.524   2.882 -0.3325 -0.1293  1.0354
   59MOL   H38829504   3.501   7.648   3.094 -3.2027 -0.6738  0.4634
   59MOL   H38929505   3.707   7.769   2.904  0.1954  4.0368 -1.7509
   59MOL   H39029506   3.619   0.039   3.052 -1.0143 -1.8069  0.7906
   59MOL   H39129507   3.492   0.198   2.926 -0.2261 -2.4052  1.0245
   59MOL   H39229508   3.549   0.143   2.776 -0.2212 -1.0959  0.6641
   59MOL   H39329509   3.746   0.262   2.974  1.0634  1.2553 -0.1457
   59MOL   H39429510   3.775   0.214   2.809 -1.2758  0.1316 -1.2162
   59MOL   H39529511   3.669   0.409   2.736 -1.0291  0.0452  0.2994
   59MOL   H39629512   3.548   0.400   2.861 -0.8262 -0.5194 -2.3552
   59MOL   H39729513   3.677   0.608   2.891  0.2140  0.9859  2.1241
   59MOL   H39829514   3.681   0.501   3.029 -1.8540  1.9015 -0.1192
   59MOL   H39929515   3.920   0.447   2.945  2.9388  2.5011  1.6026
   59MOL   H40029516   3.902   0.557   2.811 -0.2784  1.2951 -0.1910
   59MOL   H40129517   3.887   0.614   2.976 -2.7967  0.0883  0.2378
   59MOL   C40229518   3.609   7.497   2.980  0.3554 -0.2636 -0.3374
   59MOL   C40329519   3.629   7.443   2.839 -0.5876  0.7980 -0.0009
   59MOL   O40429520   3.519   7.351   2.820 -0.3727 -0.3532  0.6464
   59MOL   C40529521   3.466   7.353   2.689  0.4334  0.1503 -1.0742
   59MOL   C40629522   3.365   7.232   2.681 -0.2363  0.7903  0.0492
   59MOL   C40729523   3.247   7.238   2.774  0.0740 -0.1131  0.1932
   59MOL   C40829524   3.158   7.115   2.766  0.0861  0.1447  0.8163
   59MOL   C40929525   3.012   7.145   2.802 -0.2271  0.6588 -0.7052
   59MOL   C41029526   2.914   7.033   2.827 -0.0932 -0.8101 -0.5438
   59MOL   H41129527   3.587   7.408   3.039  3.4091 -1.5848 -1.1379
   59MOL   H41229528   3.703   7.531   3.023 -0.3895  2.5704 -0.8322
   59MOL   H41329529   3.624   7.526   2.768  1.7613 -0.5451 -1.8052
   59MOL   H41429530   3.542   7.341   2.611 -0.5305 -1.0423 -1.8532
   59MOL   H41529531   3.412   7.446   2.677  0.3858  0.2558 -0.1057
   59MOL   H41629532   3.423   7.142   2.702 -1.4265 -0.3900 -1.5510
   59MOL   H41729533   3.326   7.221   2.580 -0.1356  0.4975  0.0400
   59MOL   H41829534   3.283   7.234   2.877 -1.9952 -1.2813  0.9043
   59MOL   H41929535   3.195   7.331   2.751  1.3719 -0.0867 -2.8844
   59MOL   H42029536   3.184   7.071   2.669 -0.5947 -1.5495  1.3821
   59MOL   H42129537   3.198   7.047   2.841  0.9790  0.4509  0.6234
   59MOL   H42229538   3.015   7.212   2.888 -1.5271  1.3885 -1.2199
   59MOL   H42329539   2.964   7.202   2.722  0.7534 -0.1709 -1.9143
   59MOL   H42429540   2.909   6.957   2.749 -0.1692 -0.1651 -1.1678
   59MOL   H42529541   2.937   6.983   2.921 -1.1922  0.1654  0.2595
   59MOL   H42629542   2.817   7.076   2.852  0.6097 -0.2676  1.3517
   59MOL   C42729543   3.750   7.355   2.813 -0.2797  0.0849 -0.7226
   59MOL   C42829544   3.883   7.443   2.826 -0.8561  0.4086 -0.0034
   59MOL   O42929545   3.989   7.345   2.851 -0.8074  0.1197  0.4386
   59MOL   C43029546   4.082   7.389   2.947 -0.4060  0.2260  0.1854
   59MOL   C43129547   4.201   7.296   2.942 -0.8865 -0.3820 -0.2581
   59MOL   C43229548   4.156   7.170   3.011 -0.4371 -0.1706  0.3170
   59MOL   C43329549   4.275   7.070   3.038 -0.2321  0.2143  0.1499
   59MOL   C43429550   4.369   7.127   3.144  0.1387 -0.1552  0.2475
   59MOL   C43529551   4.475   7.020   3.162 -0.1779  0.2724  0.0198
   59MOL   H43629552   3.761   7.288   2.898  0.7944  2.5256  1.1236
   59MOL   H43729553   3.748   7.289   2.726 -1.9148  0.8727 -1.3025
   59MOL   H43829554   3.873   7.502   2.917  0.9942 -0.7698  1.0040
   59MOL   H43929555   4.049   7.388   3.051 -0.6955 -2.4105  0.1054
   59MOL   H44029556   4.114   7.491   2.925 -1.0072  0.1449 -1.0928
   59MOL   H44129557   4.290   7.343   2.983 -0.1495 -2.8673  1.0560
   59MOL   H44229558   4.230   7.269   2.840 -0.0953 -0.4948 -0.0026
   59MOL   H44329559   4.121   7.189   3.112 -0.1910  2.7531 -0.1006
   59MOL   H44429560   4.075   7.138   2.945 -0.7968 -2.5166  1.8403
   59MOL   H44529561   4.235   6.975   3.074  0.2462 -0.2256 -0.4923
   59MOL   H44629562   4.325   7.052   2.943  0.0778  0.9521  0.1650
   59MOL   H44729563   4.414   7.220   3.110  0.1818  0.0488  0.8727
   59MOL   H44829564   4.314   7.133   3.238 -2.3966  2.2126 -1.3128
   59MOL   H44929565   4.533   6.996   3.073 -0.2912 -2.2273  0.5971
   59MOL   H45029566   4.555   7.053   3.228 -0.0577 -2.2073  1.1691
   59MOL   H45129567   4.437   6.922   3.192  0.9125 -0.4300 -0.8552
   59MOL   C45229568   3.908   7.528   2.699 -0.0569  0.0529 -0.0731
   59MOL   C45329569   4.005   7.649   2.717  0.4364 -0.7905 -0.5463
   59MOL   O45429570   3.945   7.744   2.802 -0.0515  0.3857 -0.0278
   59MOL   C45529571   4.022   0.000   2.914  0.0569  0.3466  0.9303
   59MOL   C45629572   4.107   0.119   2.867 -0.5052 -0.8819 -0.3917
   59MOL   C45729573   4.165   0.204   2.979 -0.3412  0.5483 -0.2721
   59MOL   C45829574   4.233   0.328   2.909  0.3846  0.5031 -0.8545
   59MOL   C45929575   4.294   0.441   3.005  0.4612  0.3134  0.2897
   59MOL   C46029576   4.414   0.521   2.953 -0.2217 -0.0993  0.2517
   59MOL   H46129577   3.956   7.470   2.620 -0.1440 -0.8946  0.5656
   59MOL   H46229578   3.816   7.576   2.666  0.3827  1.1723  0.3111
   59MOL   H46329579   4.106   7.631   2.752  0.8264  1.0127 -0.7366
   59MOL   H46429580   4.073   7.699   2.967  1.6700  1.0137  0.4358
   59MOL   H46529581   3.958   0.052   2.985 -0.4703 -0.7028  1.2311
   59MOL   H46629582   4.041   0.184   2.807  0.9446 -0.4102 -1.5090
   59MOL   H46729583   4.189   0.086   2.804 -0.1785 -0.4882 -0.1793
   59MOL   H46829584   4.081   0.242   3.037  1.1996 -0.0225  2.4179
   59MOL   H46929585   4.231   0.148   3.046  1.9610  0.8338 -2.2174
   59MOL   H47029586   4.317   0.288   2.851 -1.7504 -1.1437 -2.8995
   59MOL   H47129587   4.168   0.373   2.834 -0.7381  0.8490  0.3029
   59MOL   H47229588   4.217   0.515   3.028 -0.2591 -0.2793 -0.1691
   59MOL   H47329589   4.330   0.391   3.096 -0.8347  1.6031  1.5302
   59MOL   H47429590   4.390   0.574   2.861  0.3852 -2.2463 -1.1782
   59MOL   H47529591   4.453   0.595   3.022  0.4673 -0.4594  0.2494
   59MOL   H47629592   4.496   0.455   2.925  0.5194  0.8933  0.0647
   59MOL   C47729593   4.031   7.726   2.585  0.2825 -0.8759  0.2543
   59MOL   C47829594   3.907   0.008   2.518 -0.3628  0.0745 -0.0546
   59MOL   O47929595   3.845   7.699   2.430  0.3468  0.1494 -0.0053
   59MOL   C48029596   3.705   7.691   2.425 -0.3205 -0.0591 -0.2067
   59MOL   C48129597   3.683   7.599   2.301  0.6662  0.4175 -0.7027
   59MOL   C48229598   3.741   7.455   2.339 -0.1584 -0.2535 -0.8599
   59MOL   C48329599   3.779   7.376   2.215  0.5301  0.4065  0.1231
   59MOL   C48429600   3.663   7.371   2.112 -1.1314  0.6951 -0.0860
   59MOL   C48529601   3.686   7.309   1.970 -0.1205  0.4459 -0.3544
   59MOL   H48629602   4.100   0.027   2.613  0.4441 -0.8878 -0.0935
   59MOL   H48729603   4.099   7.673   2.517 -0.2099 -1.1250 -0.0505
   59MOL   H48829604   3.831   0.032   2.592 -0.5818 -1.6716  0.3133
   59MOL   H48929605   3.675   0.013   2.392 -1.0077  0.4966  2.0221
   59MOL   H49029606   3.660   7.655   2.518 -1.4697 -1.0618 -1.1444
   59MOL   H49129607   3.737   7.642   2.217 -0.0814  0.8958 -0.9435
   59MOL   H49229608   3.578   7.591   2.271  0.7077  1.2233 -1.0675
   59MOL   H49329609   3.835   7.465   2.393  0.1402 -1.7930 -1.0861
   59MOL   H49429610   3.676   7.396   2.403  0.4056  1.2589  1.1922
   59MOL   H49529611   3.872   7.399   2.163  0.3908 -0.9066 -0.7325
   59MOL   H49629612   3.793   7.274   2.248  0.0551  0.6540  1.1093
   59MOL   H49729613   3.579   7.314   2.151 -1.1002  1.3034  0.8933
   59MOL   H49829614   3.616   7.467   2.092 -0.4680  0.5869 -2.3216
   59MOL   H49929615   3.691   7.201   1.985  1.0581  0.6772  0.9853
   59MOL   H50029616   3.594   7.335   1.917  1.4287  2.5942 -2.0677
   59MOL   H50129617   3.780   7.345   1.929  0.5588 -1.5443 -0.5922
   59MOL   H50229618   3.922   0.101   2.464  0.2288 -0.4529 -0.8071
   60MOL     C129619   6.029   1.283   2.550  0.2585 -0.3855 -0.3612
   60MOL     C229620   6.153   1.215   2.494  0.5154  0.8191 -0.4759
   60MOL     O329621   6.120   1.082   2.481  0.0548  0.4493 -0.2610
   60MOL     C429622   6.056   1.032   2.362  0.4543 -0.0721 -0.3360
   60MOL     C529623   5.991   0.892   2.372 -0.6235  0.1347 -0.2114
   60MOL     C629624   5.891   0.887   2.493  0.1001  0.4740  0.0592
   60MOL     C729625   5.826   0.747   2.500 -0.1934  0.0375 -0.1736
   60MOL     C829626   5.715   0.750   2.610 -0.9980 -0.2278 -0.0892
   60MOL     C929627   5.630   0.621   2.612  0.0953  0.5481 -0.0128
   60MOL    H1029628   5.940   1.286   2.487 -1.7263 -1.0605  2.3271
   60MOL    H1129629   5.999   1.226   2.638  2.1089 -0.8983 -0.0516
   60MOL    H1229630   6.183   1.265   2.401  0.5996 -0.4153 -1.1167
   60MOL    H1329631   6.127   1.025   2.279  1.6539  1.6463  0.5096
   60MOL    H1429632   5.982   1.103   2.326 -0.0588 -0.4048  0.0747
   60MOL    H1529633   6.074   0.823   2.384 -0.3068  1.0485  3.7273
   60MOL    H1629634   5.939   0.865   2.281  1.6294 -1.1213 -1.1593
   60MOL    H1729635   5.943   0.921   2.582 -1.9835  0.3884  1.3534
   60MOL    H1829636   5.817   0.965   2.470  1.0423  1.4044  0.1321
   60MOL    H1929637   5.794   0.715   2.401 -1.4811  0.2662  0.1501
   60MOL    H2029638   5.902   0.676   2.531  0.9765  0.8610 -1.1135
   60MOL    H2129639   5.649   0.829   2.575  0.1680  0.7149 -0.2117
   60MOL    H2229640   5.746   0.769   2.713  1.6078 -1.8793 -0.5139
   60MOL    H2329641   5.578   0.598   2.519  1.0942 -0.1973 -0.3942
   60MOL    H2429642   5.687   0.535   2.646 -1.6043 -0.7528 -0.4038
   60MOL    H2529643   5.555   0.632   2.690 -0.8533 -1.3801 -0.6218
   60MOL    H2629644   6.055   1.380   2.594  3.9182 -1.0803 -0.8199
   60MOL    C2729645   6.281   1.228   2.593  0.4720 -0.0422  0.1616
   60MOL    C2829646   6.258   1.180   2.736 -0.6154  0.0475 -0.0028
   60MOL    O2929647   6.380   1.133   2.801  0.0419 -0.2956  0.3937
   60MOL    C3029648   6.416   0.998   2.773  0.7125 -0.5566 -0.4773
   60MOL    C3129649   6.551   0.972   2.836  0.7639 -0.2687 -0.3337
   60MOL    C3229650   6.633   0.858   2.764  0.9026 -0.4912 -0.0259
   60MOL    C3329651   6.781   0.853   2.810 -0.0701  0.2539 -0.4071
   60MOL    C3429652   6.855   0.738   2.738 -0.1505 -0.3167 -0.3996
   60MOL    C3529653   7.002   0.720   2.748  0.2739  0.2179 -0.1127
   60MOL    H3629654   6.357   1.168   2.542  0.6088  1.0183 -0.8973
   60MOL    H3729655   6.332   1.324   2.595  0.5034  0.0385 -2.6370
   60MOL    H3829656   6.191   1.094   2.727 -1.2476  0.3997  1.2480
   60MOL    H3929657   6.418   0.976   2.666 -0.8850  0.1201 -0.6470
   60MOL    H4029658   6.343   0.933   2.820 -0.0663  0.5859 -0.1022
   60MOL    H4129659   6.548   0.945   2.942 -2.5445  2.7924  0.4351
   60MOL    H4229660   6.608   1.065   2.825 -0.5907  0.5653 -0.3422
   60MOL    H4329661   6.585   0.761   2.772  2.4459 -1.2256  0.4328
   60MOL    H4429662   6.634   0.902   2.664 -0.4760  3.9052  1.7770
   60MOL    H4529663   6.834   0.946   2.790  0.6982  0.1989  1.2685
   60MOL    H4629664   6.786   0.837   2.918 -2.5205 -1.4927 -0.5109
   60MOL    H4729665   6.806   0.652   2.785 -1.3584 -0.5004 -1.9463
   60MOL    H4829666   6.830   0.733   2.632 -0.6550  1.7222 -0.3963
   60MOL    H4929667   7.018   0.705   2.854 -0.7341  3.7910  0.6136
   60MOL    H5029668   7.048   0.631   2.703  0.2397  1.0242 -1.7911
   60MOL    H5129669   7.050   0.810   2.712 -1.6017  0.9577 -0.8461
   60MOL    C5229670   6.203   1.293   2.828  0.5937  0.5215 -0.0508
   60MOL    C5329671   6.165   1.242   2.971  0.4269 -0.6664 -0.4122
   60MOL    O5429672   6.148   1.365   3.042  0.6487  0.3478  0.3041
   60MOL    C5529673   6.256   1.389   3.125 -0.2584  0.9728 -0.1263
   60MOL    C5629674   6.231   1.501   3.232 -0.0089 -0.2508  1.0292
   60MOL    C5729675   6.324   1.487   3.357  0.2650 -0.4858  1.2661
   60MOL    C5829676   6.309   1.606   3.455 -0.6474 -0.1431  0.0550
   60MOL    C5929677   6.416   1.591   3.565 -0.3609 -0.3875 -0.2180
   60MOL    C6029678   6.427   1.723   3.654  0.4350 -0.4830 -0.2710
   60MOL    H6129679   6.112   1.339   2.788  0.0211 -0.2410  0.3651
   60MOL    H6229680   6.279   1.371   2.836  0.5269  0.3906  2.1016
   60MOL    H6329681   6.246   1.182   3.013 -0.1142 -0.9030  0.3076
   60MOL    H6429682   6.349   1.407   3.072 -0.4893  1.6833 -0.2955
   60MOL    H6529683   6.276   1.295   3.175  0.0136  1.3568  0.5039
   60MOL    H6629684   6.131   1.486   3.271 -0.0909  1.4875  1.5106
   60MOL    H6729685   6.243   1.598   3.184 -1.2035 -1.4099 -1.7584
   60MOL    H6829686   6.305   1.394   3.410  0.5868 -0.5245  1.3146
   60MOL    H6929687   6.431   1.491   3.336  0.0533  0.2198  0.3004
   60MOL    H7029688   6.330   1.692   3.391 -1.1182 -1.4172 -1.8681
   60MOL    H7129689   6.208   1.618   3.493 -1.4822  0.0188 -2.1655
   60MOL    H7229690   6.388   1.514   3.637  0.0669 -1.6615 -1.3822
   60MOL    H7329691   6.515   1.573   3.522 -0.4473 -0.7679 -0.2618
   60MOL    H7429692   6.464   1.811   3.601  1.8391 -0.5072  0.6355
   60MOL    H7529693   6.332   1.746   3.702  0.8363  0.9390 -0.1227
   60MOL    H7629694   6.488   1.712   3.744  2.0683 -0.6746 -1.3802
   60MOL    C7729695   6.032   1.162   2.976  0.2092  1.3402 -0.0846
   60MOL    C7829696   6.007   1.080   3.110 -1.0350  0.2420 -0.7916
   60MOL    O7929697   5.890   1.003   3.097  0.2602 -0.7994  0.2110
   60MOL    C8029698   5.890   0.878   3.032  0.1062  0.4821 -0.4156
   60MOL    C8129699   5.857   0.751   3.111 -0.0272  0.1878 -0.0428
   60MOL    C8229700   5.878   0.622   3.027 -0.0548 -0.4650 -0.1512
   60MOL    C8329701   5.862   0.491   3.118  0.2081 -0.0444  0.6151
   60MOL    C8429702   5.872   0.362   3.036  0.1797  0.1469  0.3202
   60MOL    C8529703   5.999   0.343   2.969  0.2532  0.1365  0.1388
   60MOL    H8629704   6.044   1.097   2.889 -0.2273  2.2956 -0.8656
   60MOL    H8729705   5.950   1.229   2.951  1.5302  1.9602 -2.9989
   60MOL    H8829706   6.088   1.008   3.119 -1.7788 -0.3813  1.2150
   60MOL    H8929707   5.991   0.866   2.993  0.4501 -0.1994  0.6858
   60MOL    H9029708   5.833   0.883   2.939 -0.4355 -0.3263 -0.1285
   60MOL    H9129709   5.755   0.750   3.149  0.2449  1.1859  0.7469
   60MOL    H9229710   5.905   0.762   3.208  1.2708  3.8725 -1.0232
   60MOL    H9329711   5.811   0.624   2.942 -1.5569  0.4409  1.0336
   60MOL    H9429712   5.982   0.637   2.997  0.1942  0.9380  1.3353
   60MOL    H9529713   5.942   0.494   3.193  3.4161  1.7646 -2.6920
   60MOL    H9629714   5.762   0.495   3.162  0.2697 -0.2212  0.7745
   60MOL    H9729715   5.871   0.267   3.089 -0.5342 -0.4129 -0.6747
   60MOL    H9829716   5.793   0.355   2.961  0.4908 -1.6095  0.1300
   60MOL    H9929717   6.027   0.431   2.910  1.7267  0.0409  0.6711
   60MOL   H10029718   6.079   0.318   3.039 -1.1381  1.8839  2.4493
   60MOL   H10129719   5.992   0.251   2.912  1.8003  0.2965 -0.3317
   60MOL   C10229720   5.976   1.169   3.232 -0.4022  0.3163 -0.4941
   60MOL   C10329721   5.985   1.097   3.374 -0.4585 -0.1750 -0.7594
   60MOL   O10429722   5.990   1.199   3.475 -0.2624 -0.7642 -0.2728
   60MOL   C10529723   6.109   1.192   3.559  0.8471 -0.0435 -0.0659
   60MOL   C10629724   6.083   1.285   3.680 -0.3256  0.3478 -0.2362
   60MOL   C10729725   6.001   1.224   3.799  0.3175  0.1203  0.3089
   60MOL   C10829726   5.945   1.314   3.900  0.2090 -0.0958  0.6819
   60MOL   C10929727   6.043   1.425   3.962 -0.0310 -0.4517 -0.8435
   60MOL   C11029728   5.972   1.513   4.068 -0.1650 -0.6251  0.6785
   60MOL   H11129729   6.052   1.247   3.235  1.2106 -1.2389 -0.0616
   60MOL   H11229730   5.878   1.215   3.217 -1.3511 -0.9895  1.5117
   60MOL   H11329731   6.076   1.038   3.381 -0.5608 -0.3652 -1.0135
   60MOL   H11429732   6.184   1.233   3.491  0.4228 -4.1576 -3.1643
   60MOL   H11529733   6.131   1.092   3.596  2.4121 -0.5546 -2.3001
   60MOL   H11629734   6.014   1.365   3.650 -0.2885  0.4291 -0.1038
   60MOL   H11729735   6.181   1.322   3.711  0.3423 -1.8195  0.3366
   60MOL   H11829736   5.928   1.153   3.762  1.3679 -0.2864 -1.0278
   60MOL   H11929737   6.075   1.156   3.842  1.7489  0.4220 -1.5876
   60MOL   H12029738   5.865   1.369   3.849  0.8922 -0.9753 -1.3747
   60MOL   H12129739   5.903   1.257   3.983 -2.8556  1.1813  0.0912
   60MOL   H12229740   6.121   1.373   4.017  2.6358  1.5923 -2.5818
   60MOL   H12329741   6.093   1.493   3.893  0.8720  0.0398  0.2890
   60MOL   H12429742   5.904   1.570   4.004 -0.3588 -2.1628 -0.5097
   60MOL   H12529743   5.926   1.450   4.144 -1.2178 -2.7195 -1.6165
   60MOL   H12629744   6.031   1.587   4.122  0.5069 -2.3883  2.3910
   60MOL   C12729745   5.867   1.004   3.398  0.3966 -0.1251  0.3383
   60MOL   C12829746   5.861   0.934   3.534  0.1741  0.4347  0.6857
   60MOL   O12929747   5.961   0.827   3.522  0.3423  0.2244  0.1685
   60MOL   C13029748   6.008   0.789   3.649  0.1258  0.0662  0.5357
   60MOL   C13129749   6.122   0.685   3.638 -0.6492  0.0098  0.2049
   60MOL   C13229750   6.081   0.544   3.577 -0.6993 -0.1839  0.3699
   60MOL   C13329751   6.193   0.439   3.583 -0.2486  0.4262  0.5946
   60MOL   C13429752   6.302   0.484   3.481 -0.0124  0.3465 -0.3251
   60MOL   C13529753   6.416   0.379   3.464  0.8935 -0.0696  0.3989
   60MOL   H13629754   5.778   1.065   3.388 -0.1600 -0.9398  0.2772
   60MOL   H13729755   5.862   0.934   3.314  1.6898  1.4530 -1.1101
   60MOL   H13829756   5.884   1.010   3.609  0.9251  1.8679 -0.9799
   60MOL   H13929757   5.927   0.742   3.705  0.7927 -3.0988 -1.0243
   60MOL   H14029758   6.042   0.878   3.702  2.3561 -0.4999  0.1221
   60MOL   H14129759   6.171   0.680   3.736 -1.2790 -2.9391  0.4079
   60MOL   H14229760   6.200   0.728   3.574 -1.5663 -0.4478 -1.2313
   60MOL   H14329761   6.008   0.512   3.651 -0.5970 -0.1346  0.4938
   60MOL   H14429762   6.040   0.563   3.478  0.9454 -0.2553 -0.3351
   60MOL   H14529763   6.231   0.425   3.684  0.1235 -1.7460  0.1838
   60MOL   H14629764   6.154   0.342   3.550  1.2054  0.1338 -0.3299
   60MOL   H14729765   6.255   0.503   3.384 -1.8962  0.1336  0.5295
   60MOL   H14829766   6.352   0.570   3.527  0.7385  0.6355 -1.6494
   60MOL   H14929767   6.375   0.308   3.392  0.0395 -2.1241  2.8171
   60MOL   H15029768   6.505   0.434   3.434  0.5360  0.5661  0.5008
   60MOL   H15129769   6.448   0.336   3.559  0.2387 -0.0416  0.6330
   60MOL   C15229770   5.724   0.855   3.563 -0.3855 -0.1085  0.5408
   60MOL   C15329771   5.607   0.954   3.592 -0.2380  0.4725 -0.3799
   60MOL   O15429772   5.488   0.885   3.551 -0.1112  0.0330 -0.1253
   60MOL   C15529773   5.463   0.890   3.413 -0.1784 -0.6235 -0.3675
   60MOL   C15629774   5.328   0.825   3.383 -0.4657 -0.3870 -0.5083
   60MOL   C15729775   5.206   0.908   3.429  0.0915 -0.2476  0.1208
   60MOL   C15829776   5.069   0.849   3.390 -0.3334 -0.4139  0.1395
   60MOL   C15929777   4.957   0.942   3.423  0.2970 -0.8220  0.0833
   60MOL   C16029778   4.911   0.956   3.566 -0.0261  0.2644 -0.0927
   60MOL   H16129779   5.704   0.780   3.486  0.0563 -0.9069  1.2009
   60MOL   H16229780   5.731   0.790   3.650 -1.0008 -2.5741 -1.2104
   60MOL   H16329781   5.620   1.048   3.538 -1.1347  1.0846  0.4518
   60MOL   H16429782   5.535   0.827   3.360  0.6809 -0.9539  1.1712
   60MOL   H16529783   5.465   0.991   3.373 -1.8006 -0.2339  0.5367
   60MOL   H16629784   5.327   0.725   3.426 -1.5662 -1.3428 -2.6538
   60MOL   H16729785   5.331   0.800   3.277 -2.5053  0.1198 -0.7005
   60MOL   H16829786   5.202   0.917   3.538  0.7967  0.2981  0.1094
   60MOL   H16929787   5.227   1.005   3.385  0.6046 -0.2548  0.3349
   60MOL   H17029788   5.066   0.840   3.282  1.2535  0.7834 -0.0204
   60MOL   H17129789   5.067   0.758   3.450 -1.1300 -1.0805 -0.8834
   60MOL   H17229790   4.970   1.038   3.372  1.7318 -0.9527  0.1940
   60MOL   H17329791   4.866   0.907   3.374 -1.0681  2.7453 -0.0876
   60MOL   H17429792   4.920   0.856   3.608 -0.6401 -0.4856 -1.7275
   60MOL   H17529793   4.977   1.020   3.624 -0.1702 -0.7722  1.2535
   60MOL   H17629794   4.810   0.997   3.575 -0.6196 -1.1065 -0.3969
   60MOL   C17729795   5.593   0.982   3.738 -0.6247 -0.1198 -0.2806
   60MOL   C17829796   5.478   1.085   3.775 -0.4227  0.1384  0.2405
   60MOL   O17929797   5.467   1.082   3.919 -0.4694  0.3403 -0.3357
   60MOL   C18029798   5.339   1.091   3.970 -0.4821  0.0410 -0.4181
   60MOL   C18129799   5.380   1.107   4.112 -0.5265  0.2159 -0.2477
   60MOL   C18229800   5.454   1.238   4.143 -0.3798  0.4963  0.1668
   60MOL   C18329801   5.534   1.232   4.281  0.8443 -0.4423  0.9939
   60MOL   C18429802   5.642   1.339   4.299  0.0162 -0.3125 -0.1265
   60MOL   C18529803   5.594   1.483   4.297 -0.2467  0.7294 -1.2249
   60MOL   H18629804   5.575   0.886   3.786 -0.0280 -0.7012 -1.1957
   60MOL   H18729805   5.684   1.027   3.778 -0.6743 -0.2501 -0.0217
   60MOL   H18829806   5.390   1.050   3.721  0.2906  0.7488 -1.3378
   60MOL   H18929807   5.279   1.003   3.944 -0.4571  0.1269 -0.7637
   60MOL   H19029808   5.287   1.181   3.938 -1.1899 -0.8252 -1.7835
   60MOL   H19129809   5.444   1.025   4.144 -0.2226 -0.1594 -1.8021
   60MOL   H19229810   5.281   1.095   4.157  0.7815 -1.4457  2.3402
   60MOL   H19329811   5.532   1.238   4.066  0.1023  3.8485  0.5773
   60MOL   H19429812   5.398   1.331   4.129  0.4125  0.7671 -1.3085
   60MOL   H19529813   5.460   1.257   4.358  0.1971 -1.6358  0.7794
   60MOL   H19629814   5.573   1.132   4.299 -0.7384 -1.2467  0.0136
   60MOL   H19729815   5.683   1.325   4.399 -2.2283  2.5249  1.2499
   60MOL   H19829816   5.724   1.318   4.230 -0.0721  2.2933 -1.0950
   60MOL   H19929817   5.501   1.504   4.348 -0.0852  0.8895 -0.9983
   60MOL   H20029818   5.673   1.543   4.341  1.9430 -1.3476 -2.1566
   60MOL   H20129819   5.579   1.517   4.194  2.4140  0.4774 -1.7367
   60MOL   C20229820   5.505   1.229   3.732 -0.3531  0.1499  0.0381
   60MOL   C20329821   5.450   1.285   3.595 -0.7147 -0.1491 -0.1118
   60MOL   O20429822   5.495   1.419   3.589 -0.3152 -0.4125 -0.3597
   60MOL   C20529823   5.624   1.429   3.534 -0.0541 -0.3826  0.1416
   60MOL   C20629824   5.661   1.572   3.567  0.5018 -0.3033 -0.1683
   60MOL   C20729825   5.797   1.615   3.521  0.5256  0.6786  1.0416
   60MOL   C20829826   5.818   1.765   3.513 -0.2005  0.3833  0.6616
   60MOL   C20929827   5.798   1.836   3.644 -0.0731  0.6448  0.2999
   60MOL   C21029828   5.882   1.789   3.768 -0.7769  0.6834  1.0185
   60MOL   H21129829   5.471   1.298   3.809  0.0470 -1.4586  1.6763
   60MOL   H21229830   5.614   1.233   3.728 -0.4198  0.7968 -1.6772
   60MOL   H21329831   5.483   1.222   3.513  2.0377 -0.4985  1.2150
   60MOL   H21429832   5.622   1.407   3.427  0.7350 -2.2793  0.5082
   60MOL   H21529833   5.693   1.354   3.572 -0.9856 -2.4257 -2.0993
   60MOL   H21629834   5.654   1.594   3.673  4.3419 -0.4093  0.1698
   60MOL   H21729835   5.591   1.637   3.516 -1.7091 -0.8596  2.0625
   60MOL   H21829836   5.879   1.570   3.577  0.7534 -1.3542 -0.8604
   60MOL   H21929837   5.809   1.566   3.424  0.4716  0.0232  1.3569
   60MOL   H22029838   5.918   1.792   3.480  0.2768 -2.1422 -0.0511
   60MOL   H22129839   5.742   1.788   3.438 -0.5165 -0.4686  0.7125
   60MOL   H22229840   5.830   1.939   3.626  1.5386 -0.0720 -1.0466
   60MOL   H22329841   5.692   1.856   3.662  0.1044  2.5312 -0.6211
   60MOL   H22429842   5.861   1.844   3.859 -1.7174  1.1934  0.4957
   60MOL   H22529843   5.868   1.684   3.794 -1.5174  0.3511 -0.6909
   60MOL   H22629844   5.988   1.809   3.748 -1.2069  1.8862 -0.1508
   60MOL   C22729845   5.295   1.280   3.588  0.3472  0.1606  0.0945
   60MOL   C22829846   5.232   1.344   3.463 -0.2661  0.4098 -0.4048
   60MOL   O22929847   5.272   1.262   3.350  0.2359 -0.1200  0.0770
   60MOL   C23029848   5.291   1.333   3.225  0.1305  0.0757  0.6524
   60MOL   C23129849   5.381   1.252   3.129 -0.0163 -0.2942  0.5484
   60MOL   C23229850   5.437   1.329   3.011 -0.0296 -0.6056 -0.2355
   60MOL   C23329851   5.539   1.257   2.926  0.3089  0.2593 -0.5479
   60MOL   C23429852   5.471   1.147   2.837  0.2107  0.2321 -0.3398
   60MOL   C23529853   5.580   1.055   2.780 -0.0266 -0.5888 -0.2753
   60MOL   H23629854   5.262   1.177   3.599 -1.6640  0.4976 -2.5546
   60MOL   H23729855   5.249   1.328   3.675 -2.6140  0.7742 -1.7490
   60MOL   H23829856   5.248   1.451   3.443 -0.5534  0.2463 -1.5687
   60MOL   H23929857   5.338   1.430   3.242  2.0998 -0.5683 -0.9033
   60MOL   H24029858   5.197   1.352   3.173 -0.2704 -0.2223  1.2586
   60MOL   H24129859   5.320   1.166   3.100 -0.1271  0.4149 -1.4270
   60MOL   H24229860   5.470   1.222   3.183  0.3531 -1.1866 -0.5278
   60MOL   H24329861   5.361   1.382   2.953 -0.4952 -0.4227  0.5337
   60MOL   H24429862   5.494   1.408   3.061 -0.9366 -1.5710  2.4110
   60MOL   H24529863   5.598   1.318   2.858  1.8756 -0.1422  0.4278
   60MOL   H24629864   5.617   1.207   2.984  2.9430  0.7194 -3.5174
   60MOL   H24729865   5.403   1.087   2.897  1.1198  0.6792  1.1520
   60MOL   H24829866   5.408   1.196   2.763 -0.7925  1.0923  1.0653
   60MOL   H24929867   5.528   0.972   2.731 -1.4711 -1.0076  1.9055
   60MOL   H25029868   5.641   1.109   2.708 -2.8940  1.4766 -1.2605
   60MOL   H25129869   5.638   1.004   2.856 -1.2443  1.5680  2.1747
   60MOL   C25229870   5.082   1.330   3.456  0.8144  1.1456 -0.1275
   60MOL   C25329871   5.004   1.434   3.544 -0.0068  0.3032  0.6163
   60MOL   O25429872   4.879   1.400   3.599 -0.1055  0.1921  0.1674
   60MOL   C25529873   4.876   1.313   3.710  0.1711 -0.4261 -0.4953
   60MOL   C25629874   4.753   1.353   3.783  0.6018 -0.6901  0.3224
   60MOL   C25729875   4.626   1.341   3.700  0.8011 -0.0715 -0.0493
   60MOL   C25829876   4.509   1.404   3.767 -0.5909  0.2291  0.1844
   60MOL   C25929877   4.373   1.358   3.707  0.6036  0.2411 -0.3489
   60MOL   C26029878   4.249   1.444   3.748 -0.0681 -0.5994  0.9271
   60MOL   H26129879   5.044   1.343   3.355  1.4525  0.1656 -0.4968
   60MOL   H26229880   5.053   1.228   3.483  2.4969 -0.0565 -2.7145
   60MOL   H26329881   5.066   1.460   3.630 -1.0201  1.0259  1.1409
   60MOL   H26429882   4.971   1.324   3.763  1.4755  0.9596 -3.0031
   60MOL   H26529883   4.853   1.209   3.686 -0.0275 -0.6728  0.7332
   60MOL   H26629884   4.772   1.453   3.825  0.4105  0.1622 -1.5941
   60MOL   H26729885   4.740   1.297   3.876 -2.2443 -1.4587 -0.5035
   60MOL   H26829886   4.633   1.399   3.608 -0.8982  0.4972  0.1690
   60MOL   H26929887   4.599   1.239   3.673  0.9353 -0.0285 -0.3455
   60MOL   H27029888   4.513   1.377   3.872  0.0822  0.1506  0.1369
   60MOL   H27129889   4.512   1.513   3.770 -0.4237  0.3227 -2.1961
   60MOL   H27229890   4.364   1.353   3.599 -3.1408  2.1005 -0.2127
   60MOL   H27329891   4.365   1.253   3.736  1.0051  0.8599  2.1225
   60MOL   H27429892   4.256   1.552   3.730 -0.3470 -0.5037  1.3822
   60MOL   H27529893   4.162   1.417   3.689  0.3139  0.9457 -0.3787
   60MOL   H27629894   4.225   1.429   3.853 -0.1906 -0.2706  0.9481
   60MOL   C27729895   4.974   1.562   3.457 -0.2047  0.4021  0.2105
   60MOL   C27829896   4.934   1.690   3.534 -1.3780  0.6575  0.5953
   60MOL   O27929897   5.028   1.792   3.504  0.2740 -0.4045 -0.1267
   60MOL   C28029898   5.154   1.765   3.553  0.5436  0.0809  0.3880
   60MOL   C28129899   5.244   1.872   3.494 -0.4165 -0.2387  0.7609
   60MOL   C28229900   5.252   1.861   3.340 -0.0543 -0.0715  0.3741
   60MOL   C28329901   5.351   1.960   3.271  0.6772  0.8912 -0.4079
   60MOL   C28429902   5.276   2.055   3.190 -0.1144  0.7882  0.1501
   60MOL   C28529903   5.361   2.133   3.095 -0.5380 -0.4752  1.0778
   60MOL   H28629904   5.064   1.572   3.397 -0.9137  1.4361 -0.7117
   60MOL   H28729905   4.894   1.533   3.390 -0.6318 -1.4617  1.5139
   60MOL   H28829906   4.918   1.669   3.640 -1.6594  0.2223  0.4692
   60MOL   H28929907   5.192   1.664   3.537 -0.3543 -0.2806  0.5308
   60MOL   H29029908   5.152   1.770   3.662  4.2732 -0.6406  0.5827
   60MOL   H29129909   5.347   1.869   3.531 -0.6070 -2.9491  1.2030
   60MOL   H29229910   5.216   1.976   3.504  1.0534  0.2227  0.2668
   60MOL   H29329911   5.284   1.759   3.315  1.4360  0.0618  1.6738
   60MOL   H29429912   5.152   1.885   3.305 -0.3262  0.2515  1.3650
   60MOL   H29529913   5.416   2.014   3.340  0.3325  1.5921 -0.6173
   60MOL   H29629914   5.419   1.896   3.216  2.3142  0.2218  2.2833
   60MOL   H29729915   5.200   2.007   3.129 -2.4556  1.4950  2.4377
   60MOL   H29829916   5.220   2.116   3.261 -0.0245 -0.7658  1.5834
   60MOL   H29929917   5.432   2.188   3.159  1.7456 -2.0153 -0.0633
   60MOL   H30029918   5.422   2.070   3.031 -1.3822 -0.0917 -0.1111
   60MOL   H30129919   5.297   2.198   3.036 -0.0931 -2.2558 -1.4052
   60MOL   C30229920   4.789   1.740   3.490 -0.2593  0.6056  0.3998
   60MOL   C30329921   4.735   1.854   3.569  0.6099 -0.0327 -0.1654
   60MOL   O30429922   4.697   1.828   3.706  0.1944  0.4048  0.0741
   60MOL   C30529923   4.761   1.917   3.801 -0.2590 -0.0102 -0.0047
   60MOL   C30629924   4.741   1.839   3.933 -0.5529  0.0177 -0.1139
   60MOL   C30729925   4.828   1.866   4.051  0.3679 -0.1830 -0.7635
   60MOL   C30829926   4.798   1.775   4.169  0.8926 -0.5335 -0.2087
   60MOL   C30929927   4.905   1.801   4.285  0.8335  0.6397 -0.0414
   60MOL   C31029928   4.876   1.708   4.406  0.1463 -0.4395  0.3278
   60MOL   H31129929   4.792   1.762   3.383 -1.0669 -1.1309 -0.0023
   60MOL   H31229930   4.715   1.662   3.507 -2.2452  2.2377 -0.3963
   60MOL   H31329931   4.799   1.942   3.564 -0.5271  0.8645  0.9574
   60MOL   H31429932   4.709   2.012   3.810 -1.6846 -0.9975  2.7952
   60MOL   H31529933   4.866   1.923   3.773 -0.4917  0.2979 -0.8092
   60MOL   H31629934   4.734   1.731   3.926  0.8903 -0.0330 -1.0180
   60MOL   H31729935   4.640   1.867   3.962  0.1779  2.0461  0.6177
   60MOL   H31829936   4.936   1.859   4.035  0.0772 -0.1646 -2.8832
   60MOL   H31929937   4.813   1.968   4.086  0.4912 -1.2706  2.7204
   60MOL   H32029938   4.693   1.786   4.196  1.0110  0.0787  0.0046
   60MOL   H32129939   4.812   1.673   4.133  0.9317 -0.6772  0.2104
   60MOL   H32229940   5.006   1.802   4.244  1.4061  1.7006  1.3493
   60MOL   H32329941   4.870   1.900   4.313 -1.2326  0.0799 -0.5438
   60MOL   H32429942   4.930   1.736   4.497  1.6102  1.5790 -1.0965
   60MOL   H32529943   4.770   1.695   4.426 -0.2354 -0.9125 -1.7979
   60MOL   H32629944   4.910   1.605   4.391  0.0312 -0.4220 -0.0574
   60MOL   C32729945   4.600   1.896   3.519  0.7560  0.2011  0.3981
   60MOL   C32829946   4.555   2.041   3.550 -0.4640 -0.0650 -0.0341
   60MOL   O32929947   4.624   2.152   3.506 -0.1555  0.0380 -0.4703
   60MOL   C33029948   4.660   2.156   3.366 -0.5475  0.7734  0.0521
   60MOL   C33129949   4.760   2.268   3.350 -0.0793 -0.4856 -0.3171
   60MOL   C33229950   4.896   2.234   3.388 -0.5261  0.1865  0.0542
   60MOL   C33329951   5.000   2.350   3.378  0.2736  0.0820  0.3247
   60MOL   C33429952   5.127   2.307   3.450 -0.6545  0.0456  0.1078
   60MOL   C33529953   5.254   2.389   3.414  0.0214  0.1978 -0.3697
   60MOL   H33629954   4.521   1.827   3.547  0.3020 -0.3434 -2.0762
   60MOL   H33729955   4.595   1.894   3.410 -1.5362 -2.1812  0.5056
   60MOL   H33829956   4.559   2.062   3.657 -2.0941  0.1772 -0.0105
   60MOL   H33929957   4.563   2.167   3.316  0.2239  0.4886 -1.5445
   60MOL   H34029958   4.713   2.069   3.327  2.2286  3.4446 -2.3585
   60MOL   H34129959   4.734   2.367   3.388 -2.3148 -0.4719 -1.7465
   60MOL   H34229960   4.774   2.293   3.244 -0.1469  0.6170 -0.0768
   60MOL   H34329961   4.902   2.197   3.490  1.6623  2.6778  0.8526
   60MOL   H34429962   4.928   2.157   3.317 -0.8003  1.0271 -0.9927
   60MOL   H34529963   5.016   2.382   3.275  0.1360  0.0548  0.2947
   60MOL   H34629964   4.964   2.439   3.429 -1.8067 -1.3220  1.4244
   60MOL   H34729965   5.107   2.315   3.557  0.4771  0.1059  0.3266
   60MOL   H34829966   5.144   2.200   3.442 -1.0177 -0.1187  1.4316
   60MOL   H34929967   5.275   2.384   3.307  1.2934  1.2987 -0.1890
   60MOL   H35029968   5.234   2.494   3.435  0.4237  0.0980  0.5349
   60MOL   H35129969   5.337   2.345   3.470 -1.3589 -0.7508  0.9564
   60MOL   C35229970   4.408   2.053   3.511  0.3645 -0.4181  0.3683
   60MOL   C35329971   4.338   2.183   3.554  0.3385  0.3040  0.5290
   60MOL   O35429972   4.328   2.187   3.697  0.6835  0.0838  0.6544
   60MOL   C35529973   4.341   2.313   3.760  0.1875  0.0936 -0.0412
   60MOL   C35629974   4.359   2.307   3.915  0.0482 -0.0693  0.3037
   60MOL   C35729975   4.465   2.201   3.955 -0.6958  0.2624  0.6312
   60MOL   C35829976   4.482   2.200   4.105  0.1320  0.1936 -0.2311
   60MOL   C35929977   4.599   2.119   4.155  0.3478  0.0548  0.4680
   60MOL   C36029978   4.616   2.140   4.304 -0.5165  0.0161  0.0254
   60MOL   H36129979   4.405   2.041   3.403  0.6265  0.7834  0.2209
   60MOL   H36229980   4.357   1.969   3.559  1.7697 -1.5094 -0.0304
   60MOL   H36329981   4.401   2.266   3.520  0.6169 -0.1974 -0.1908
   60MOL   H36429982   4.247   2.364   3.739 -0.5884 -2.0597 -1.9519
   60MOL   H36529983   4.428   2.359   3.712 -0.6731  0.1163 -1.6360
   60MOL   H36629984   4.268   2.273   3.963  0.1110 -1.1188 -0.3045
   60MOL   H36729985   4.377   2.404   3.961 -0.6878  0.7126 -1.0203
   60MOL   H36829986   4.445   2.102   3.914  2.6425 -1.0513  2.0161
   60MOL   H36929987   4.557   2.232   3.905 -0.6837  2.5116  1.9531
   60MOL   H37029988   4.506   2.303   4.131  1.5589  0.0926 -1.0499
   60MOL   H37129989   4.388   2.173   4.151  1.1186 -0.7322  1.2816
   60MOL   H37229990   4.574   2.014   4.140 -2.8380  1.2331 -3.0195
   60MOL   H37329991   4.697   2.134   4.109  0.2896  0.7069  0.5560
   60MOL   H37429992   4.675   2.060   4.350  0.1255  1.0427  1.0412
   60MOL   H37529993   4.655   2.240   4.326 -0.6535 -0.4698  2.6269
   60MOL   H37629994   4.523   2.137   4.361 -0.8800  0.6498 -0.5274
   60MOL   C37729995   4.193   2.204   3.503 -0.3151  0.4600 -0.2525
   60MOL   C37829996   4.179   2.315   3.396  0.0843 -0.9093  0.1277
   60MOL   O37929997   4.206   2.441   3.459  0.1178  0.4439 -0.3906
   60MOL   C38029998   4.248   2.544   3.370 -0.2702 -0.7995  0.6880
   60MOL   C38129999   4.308   2.661   3.457 -0.1691 -0.1595 -0.1575
   60MOL   C38230000   4.432   2.622   3.533 -0.5904  0.2227 -1.0012
   60MOL   C38330001   4.505   2.746   3.584 -0.1553  0.8509 -1.0839
   60MOL   C38430002   4.411   2.834   3.675 -0.1299 -0.0286  0.4845
   60MOL   C38530003   4.494   2.946   3.737  0.2573  0.2237 -0.2605
   60MOL   H38630004   4.157   2.114   3.453  0.3329  0.0640  0.0047
   60MOL   H38730005   4.127   2.230   3.585  0.5494  2.3031 -0.1262
   60MOL   H38830006   4.250   2.288   3.318  0.1467 -1.5921  0.4100
   60MOL   H38930007   4.170   2.585   3.305 -0.7630 -0.7636  1.3022
   60MOL   H39030008   4.328   2.507   3.306  1.5459  1.4607  1.5508
   60MOL   H39130009   4.234   2.711   3.519 -0.4161 -4.2187  3.0366
   60MOL   H39230010   4.320   2.742   3.384  0.3504 -1.2259 -1.2821
   60MOL   H39330011   4.405   2.568   3.623  0.8995 -1.3047 -1.4390
   60MOL   H39430012   4.501   2.560   3.476  1.7258  0.3890  1.5369
   60MOL   H39530013   4.597   2.709   3.629 -1.2494  1.3700  1.6574
   60MOL   H39630014   4.537   2.789   3.489  1.9871  0.3410 -0.6258
   60MOL   H39730015   4.334   2.881   3.613  0.0725 -0.1783  0.1150
   60MOL   H39830016   4.360   2.778   3.753 -0.2052 -3.7119 -2.0852
   60MOL   H39930017   4.532   3.001   3.651 -0.5483  0.6019 -0.3799
   60MOL   H40030018   4.435   3.004   3.808  0.1233 -1.4767  1.0371
   60MOL   H40130019   4.578   2.905   3.794  0.0730 -0.2166 -0.3048
   60MOL   C40230020   4.038   2.324   3.323 -0.2637 -0.5907  0.0757
   60MOL   C40330021   3.996   2.205   3.239  0.0459 -0.2447 -0.2170
   60MOL   O40430022   3.954   2.255   3.113 -0.1105 -0.0425 -0.1357
   60MOL   C40530023   4.067   2.291   3.032  0.3866 -0.7086 -0.1073
   60MOL   C40630024   4.006   2.315   2.897 -0.4355 -0.2245 -0.1340
   60MOL   C40730025   3.962   2.190   2.814 -0.5911 -0.8845 -0.4155
   60MOL   C40830026   4.079   2.106   2.772 -1.2984 -0.6435 -0.0128
   60MOL   C40930027   4.038   1.956   2.759  0.1729 -0.1762 -0.6784
   60MOL   C41030028   4.139   1.862   2.691 -0.3257  0.0992 -0.9687
   60MOL   H41130029   4.016   2.420   3.277  2.3974  0.8575  1.7014
   60MOL   H41230030   3.971   2.341   3.408 -2.0333  0.8592 -1.5676
   60MOL   H41330031   4.083   2.142   3.220 -0.3687 -0.7911 -0.3374
   60MOL   H41430032   4.146   2.217   3.023  0.6940 -0.2048 -1.9201
   60MOL   H41530033   4.099   2.391   3.063 -1.2445 -0.4112  0.6867
   60MOL   H41630034   4.078   2.376   2.842 -0.1619 -1.5162 -1.2311
   60MOL   H41730035   3.930   2.389   2.922  1.9941  2.2684  0.2148
   60MOL   H41830036   3.887   2.130   2.865 -0.4435  3.0101  4.7031
   60MOL   H41930037   3.925   2.232   2.720 -0.9529 -1.3602 -0.4913
   60MOL   H42030038   4.122   2.140   2.678  1.4585  0.1223  1.4646
   60MOL   H42130039   4.162   2.102   2.844  0.0184  0.2598 -1.4453
   60MOL   H42230040   4.002   1.925   2.857 -0.0551 -0.1722 -0.7610
   60MOL   H42330041   3.944   1.951   2.705 -0.7986 -1.0110  1.0597
   60MOL   H42430042   4.239   1.890   2.723 -0.1959 -1.1958 -0.2299
   60MOL   H42530043   4.117   1.760   2.722 -0.4944  0.4660  0.1653
   60MOL   H42630044   4.143   1.862   2.582  0.3627  0.9218 -0.9517
   60MOL   C42730045   3.866   2.139   3.301 -0.2817  0.1011  0.0638
   60MOL   C42830046   3.797   2.017   3.227  0.1507  0.4902  0.2204
   60MOL   O42930047   3.717   1.958   3.329 -0.2929 -0.3414  0.1304
   60MOL   C43030048   3.795   1.866   3.410 -0.3977  0.5294 -0.9364
   60MOL   C43130049   3.743   1.855   3.559 -0.2145  0.7313  0.5396
   60MOL   C43230050   3.828   1.761   3.642 -0.9690 -0.4552  0.1272
   60MOL   C43330051   3.759   1.729   3.778 -0.2151  0.1749 -0.0371
   60MOL   C43430052   3.818   1.614   3.860 -0.3900 -0.5118  0.1559
   60MOL   C43530053   3.971   1.626   3.869 -0.2234  0.3983 -0.5895
   60MOL   H43630054   3.895   2.112   3.403 -1.4271  0.5406  0.5071
   60MOL   H43730055   3.799   2.220   3.330  2.0657  1.3988  2.1312
   60MOL   H43830056   3.865   1.950   3.175  0.5683  0.1129  1.2494
   60MOL   H43930057   3.900   1.897   3.408 -0.1858 -0.1899 -0.9123
   60MOL   H44030058   3.786   1.773   3.355 -0.3822 -1.1968  1.8585
   60MOL   H44130059   3.638   1.826   3.562  0.2484 -1.1832 -0.9309
   60MOL   H44230060   3.741   1.948   3.616  1.0842  1.8690 -1.2116
   60MOL   H44330061   3.851   1.676   3.578  0.5187 -0.2934  0.4356
   60MOL   H44430062   3.923   1.810   3.662 -1.1484 -0.7196  1.6622
   60MOL   H44530063   3.769   1.818   3.840 -1.3406 -0.9248  1.7768
   60MOL   H44630064   3.652   1.711   3.766 -0.7261  3.1131 -0.2559
   60MOL   H44730065   3.767   1.617   3.956  1.4849  0.8424  1.1311
   60MOL   H44830066   3.797   1.518   3.814  0.8327 -0.9186  0.4338
   60MOL   H44930067   3.995   1.712   3.932  0.7835 -1.2324  1.3137
   60MOL   H45030068   4.001   1.547   3.938 -0.2075  0.8999 -0.0160
   60MOL   H45130069   4.021   1.612   3.773 -0.3685 -1.1542 -0.4464
   60MOL   C45230070   3.696   2.067   3.114  0.4814 -0.8268 -0.0380
   60MOL   C45330071   3.610   1.964   3.033 -0.7406  0.5613  0.1254
   60MOL   O45430072   3.704   1.908   2.939 -0.4314  0.2645 -0.2947
   60MOL   C45530073   3.681   1.767   2.917  0.4849 -0.3665 -0.6719
   60MOL   C45630074   3.777   1.693   2.834 -0.2436  0.2516  1.0726
   60MOL   C45730075   3.888   1.623   2.919  0.1582 -0.3186 -0.6100
   60MOL   C45830076   3.843   1.497   3.008 -0.2738 -0.2723  0.2540
   60MOL   C45930077   3.953   1.456   3.106  0.1096  0.2865 -0.4042
   60MOL   C46030078   4.065   1.382   3.030  0.0891 -0.2330 -0.2519
   60MOL   H46130079   3.632   2.135   3.170  0.2123 -0.2310 -1.0571
   60MOL   H46230080   3.752   2.123   3.038 -1.9712  0.3333 -1.0378
   60MOL   H46330081   3.574   1.885   3.099 -0.1315  1.6589  1.7958
   60MOL   H46430082   3.583   1.753   2.871 -0.7172  1.4700  1.2303
   60MOL   H46530083   3.678   1.717   3.014 -3.3616 -2.0305 -1.5519
   60MOL   H46630084   3.819   1.759   2.758  0.7075 -0.3515  1.0646
   60MOL   H46730085   3.721   1.614   2.785  0.1307 -0.4619  1.7903
   60MOL   H46830086   3.967   1.576   2.860  1.0830 -0.9251  1.0516
   60MOL   H46930087   3.944   1.700   2.972 -0.5532 -0.4849  0.3917
   60MOL   H47030088   3.744   1.511   3.052 -2.4753 -2.1511 -3.6941
   60MOL   H47130089   3.833   1.416   2.935 -0.7976 -0.2825  0.3321
   60MOL   H47230090   3.976   1.551   3.155  1.7049 -0.9322  1.2224
   60MOL   H47330091   3.913   1.384   3.177 -1.1598  0.9610 -0.4202
   60MOL   H47430092   4.100   1.436   2.942 -0.4024 -0.6387 -0.6944
   60MOL   H47530093   4.148   1.361   3.098  0.5105 -0.2809 -0.7730
   60MOL   H47630094   4.035   1.284   2.994  1.3899 -1.5152  2.0364
   60MOL   C47730095   3.490   2.011   2.951 -0.6764 -0.0003  0.1324
   60MOL   C47830096   3.363   2.026   3.037  0.4777 -0.3248  0.5033
   60MOL   O47930097   3.259   2.077   2.953 -0.1649 -0.1001 -0.3028
   60MOL   C48030098   3.145   2.110   3.039  0.1724 -0.0965  0.2655
   60MOL   C48130099   3.013   2.126   2.952 -0.0356 -0.2641 -0.4942
   60MOL   C48230100   3.020   2.250   2.859 -0.2376 -0.3508 -0.6912
   60MOL   C48330101   2.912   2.247   2.751 -0.1932 -0.1568  0.0045
   60MOL   C48430102   2.773   2.211   2.803  0.0724  0.7168 -0.7318
   60MOL   C48530103   2.680   2.224   2.681  0.2128  0.2098  0.1554
   60MOL   H48630104   3.500   2.107   2.899  1.3807  0.0970  0.6625
   60MOL   H48730105   3.470   1.935   2.876  1.4278 -1.0054  0.5717
   60MOL   H48830106   3.338   1.927   3.074 -1.8789  1.2795  3.3248
   60MOL   H48930107   3.153   2.192   3.110 -1.5557 -0.1247  0.5041
   60MOL   H49030108   3.118   2.026   3.102 -1.0685 -0.9979 -1.4291
   60MOL   H49130109   2.927   2.148   3.016 -0.2956 -2.8003  0.0911
   60MOL   H49230110   2.992   2.030   2.903  1.4715 -1.2368  0.7240
   60MOL   H49330111   2.996   2.339   2.917 -0.6126 -1.0390  0.2257
   60MOL   H49430112   3.117   2.256   2.811  1.2399 -2.9189  1.8600
   60MOL   H49530113   2.906   2.341   2.695  1.4002 -1.0634 -1.7356
   60MOL   H49630114   2.938   2.171   2.678  1.5843  1.0432 -0.6537
   60MOL   H49730115   2.777   2.108   2.838  3.1358  0.5592 -1.4215
   60MOL   H49830116   2.730   2.279   2.877 -0.6153  1.6573 -1.9778
   60MOL   H49930117   2.580   2.193   2.711 -0.3824 -0.0531 -2.0717
   60MOL   H50030118   2.674   2.329   2.654 -0.8486  0.4420  1.2603
   60MOL   H50130119   2.717   2.169   2.594 -1.5277 -2.1265  0.8535
   60MOL   H50230120   3.381   2.094   3.120 -0.6422 -1.5916  1.8129
   61MOL     C130121   1.913   4.389   6.379 -0.2312  0.1718 -0.2646
   61MOL     C230122   1.842   4.254   6.339 -1.0758 -0.2894  0.4609
   61MOL     O330123   1.914   4.207   6.225 -0.4420  0.1083 -0.6311
   61MOL     C430124   2.025   4.129   6.263 -0.0489  0.1380 -0.2544
   61MOL     C530125   2.141   4.143   6.160  0.3611  0.1523 -0.4581
   61MOL     C630126   2.204   4.288   6.160  0.3415  0.1601 -0.4681
   61MOL     C730127   2.315   4.298   6.267  0.7854 -0.3346 -0.2869
   61MOL     C830128   2.368   4.447   6.270  0.3435 -0.9304 -0.3118
   61MOL     C930129   2.470   4.471   6.383  0.3868 -0.1615 -0.2263
   61MOL    H1030130   1.850   4.445   6.448 -0.0279  0.4476 -0.2998
   61MOL    H1130131   2.015   4.374   6.416 -0.2116 -0.4500 -0.5670
   61MOL    H1230132   1.825   4.184   6.421  0.3153 -2.4193 -1.0178
   61MOL    H1330133   1.989   4.027   6.250  1.8149 -0.7404  1.2390
   61MOL    H1430134   2.049   4.133   6.369 -0.3987 -1.5256 -0.0914
   61MOL    H1530135   2.087   4.122   6.067 -2.8428  0.3277  1.2932
   61MOL    H1630136   2.219   4.070   6.180 -1.5192 -1.6699  0.5107
   61MOL    H1730137   2.252   4.311   6.065 -0.5630  0.9403 -0.7428
   61MOL    H1830138   2.133   4.369   6.173  0.2308 -0.1115  0.6592
   61MOL    H1930139   2.260   4.288   6.360 -0.6752 -1.2641 -1.2213
   61MOL    H2030140   2.396   4.226   6.260  2.1322  1.1047  0.2089
   61MOL    H2130141   2.281   4.513   6.271  0.9127 -0.1827  0.8217
   61MOL    H2230142   2.432   4.473   6.185  1.1520 -0.7515  0.3425
   61MOL    H2330143   2.473   4.578   6.403 -0.0564 -0.2173  0.1525
   61MOL    H2430144   2.429   4.430   6.475  0.0466  0.5320 -0.0641
   61MOL    H2530145   2.571   4.436   6.358  0.4437 -0.3420  0.2369
   61MOL    H2630146   1.927   4.449   6.289  1.4879 -0.3144 -0.3493
   61MOL    C2730147   1.700   4.287   6.286  0.0943 -0.0020 -0.4029
   61MOL    C2830148   1.603   4.174   6.258  0.5987 -0.4912  0.5680
   61MOL    O2930149   1.554   4.106   6.373 -0.6997  0.1743  0.3759
   61MOL    C3030150   1.508   4.183   6.487  0.0378 -0.6412  0.0701
   61MOL    C3130151   1.442   4.086   6.587  0.3983 -0.4175 -0.4459
   61MOL    C3230152   1.306   4.032   6.529  0.3425 -0.0061 -0.0343
   61MOL    C3330153   1.247   3.930   6.627  1.0889  0.1896 -0.2194
   61MOL    C3430154   1.330   3.796   6.661  0.2802  0.3706  0.1590
   61MOL    C3530155   1.271   3.710   6.768  0.5174 -0.1484  0.6079
   61MOL    H3630156   1.663   4.359   6.359 -0.0594 -1.1633  0.6825
   61MOL    H3730157   1.702   4.349   6.196  3.0920 -0.3221 -0.6042
   61MOL    H3830158   1.660   4.114   6.187  0.3239  0.2260 -0.2686
   61MOL    H3930159   1.434   4.259   6.461  1.8501  0.8515 -0.9173
   61MOL    H4030160   1.589   4.226   6.547  0.8422 -0.8825 -0.8272
   61MOL    H4130161   1.430   4.143   6.679  2.2260 -1.0785  0.2196
   61MOL    H4230162   1.517   4.007   6.580  1.5892  0.7507 -1.0449
   61MOL    H4330163   1.242   4.117   6.505  2.0400  0.7320 -2.0807
   61MOL    H4430164   1.332   3.997   6.429 -2.1331 -0.8730 -0.4034
   61MOL    H4530165   1.238   3.980   6.724 -1.8999  0.8064 -0.7536
   61MOL    H4630166   1.145   3.904   6.600  1.5281 -0.8858 -0.8654
   61MOL    H4730167   1.336   3.738   6.569 -0.9603 -0.5242  0.6321
   61MOL    H4830168   1.432   3.815   6.696  0.6122 -1.5413  0.2395
   61MOL    H4930169   1.167   3.682   6.750 -0.3712  2.6591  1.0907
   61MOL    H5030170   1.327   3.617   6.770 -0.1721 -0.6449 -1.4459
   61MOL    H5130171   1.277   3.759   6.865 -1.3941  1.3241  0.0309
   61MOL    C5230172   1.488   4.220   6.164  0.2875  0.1772  0.0489
   61MOL    C5330173   1.422   4.100   6.092  0.1870 -0.1756  0.0082
   61MOL    O5430174   1.287   4.145   6.059  0.2588  0.4042 -0.3875
   61MOL    C5530175   1.193   4.114   6.160 -0.0947 -0.1236  1.6452
   61MOL    C5630176   1.066   4.181   6.106 -0.4390 -0.0214 -0.1764
   61MOL    C5730177   0.937   4.154   6.183 -0.0007  0.2465 -0.1893
   61MOL    C5830178   0.940   4.204   6.330 -0.2913 -0.4618 -0.0719
   61MOL    C5930179   0.805   4.196   6.398 -0.2508 -0.1402  0.1049
   61MOL    C6030180   0.830   4.221   6.538  0.0946  0.9668 -0.0522
   61MOL    H6130181   1.516   4.287   6.083  1.1348 -1.9515 -1.4727
   61MOL    H6230182   1.414   4.270   6.226 -0.6284 -0.8149 -0.2432
   61MOL    H6330183   1.425   4.012   6.155  0.1444 -0.7459 -0.7749
   61MOL    H6430184   1.199   4.158   6.259 -1.7099  0.6388  1.4264
   61MOL    H6530185   1.181   4.007   6.177 -0.4035 -0.0949  1.6102
   61MOL    H6630186   1.056   4.163   5.999 -1.7083 -0.8929  0.0711
   61MOL    H6730187   1.074   4.290   6.110 -1.1229  0.0993 -1.6025
   61MOL    H6830188   0.853   4.201   6.132  0.4583  0.1410 -1.0588
   61MOL    H6930189   0.918   4.047   6.184  0.4868  0.1397 -1.2079
   61MOL    H7030190   1.013   4.147   6.387 -0.4325 -0.1899  0.3841
   61MOL    H7130191   0.974   4.307   6.323 -0.2240 -0.3698  1.4247
   61MOL    H7230192   0.730   4.264   6.358 -0.0883  0.2749  0.5083
   61MOL    H7330193   0.775   4.092   6.385  2.8928 -0.9886 -0.8423
   61MOL    H7430194   0.740   4.212   6.598 -1.0579 -0.3901 -1.9177
   61MOL    H7530195   0.905   4.148   6.569  0.7378  1.9666  0.7888
   61MOL    H7630196   0.870   4.321   6.555  0.8969  1.2331 -3.2275
   61MOL    C7730197   1.489   4.065   5.959 -0.3857 -0.1483 -0.6994
   61MOL    C7830198   1.433   3.936   5.902 -0.1638  0.1972  0.5501
   61MOL    O7930199   1.504   3.832   5.969  0.8205 -0.1596  0.1192
   61MOL    C8030200   1.424   3.739   6.041 -0.2157 -0.1236  0.0187
   61MOL    C8130201   1.513   3.643   6.125 -0.2284 -0.3005 -0.3041
   61MOL    C8230202   1.580   3.715   6.247  1.1827  0.1769 -0.4451
   61MOL    C8330203   1.670   3.610   6.309  0.6787  0.8503  0.4088
   61MOL    C8430204   1.759   3.658   6.425 -0.4724  0.3371  0.4438
   61MOL    C8530205   1.696   3.729   6.540  0.0441  0.3561  0.2163
   61MOL    H8630206   1.597   4.054   5.969 -0.3577  2.6483  2.9197
   61MOL    H8730207   1.485   4.149   5.889  1.0367  1.7034  1.4031
   61MOL    H8830208   1.326   3.927   5.919 -0.1072  0.3400  0.9652
   61MOL    H8930209   1.357   3.691   5.969 -0.0020  0.9713 -0.9391
   61MOL    H9030210   1.362   3.797   6.109 -1.9812 -0.3616 -1.3369
   61MOL    H9130211   1.582   3.583   6.066 -0.3922 -3.5350  2.6874
   61MOL    H9230212   1.444   3.578   6.178 -0.5955  0.6876  0.4514
   61MOL    H9330213   1.636   3.800   6.208 -0.1241  1.2914  0.0841
   61MOL    H9430214   1.507   3.746   6.322 -0.2078 -1.2389 -1.1890
   61MOL    H9530215   1.613   3.522   6.338 -0.1380  0.7446 -1.4668
   61MOL    H9630216   1.749   3.566   6.250 -0.1570 -3.4892  2.3639
   61MOL    H9730217   1.806   3.568   6.462  0.5185  0.3971 -0.6256
   61MOL    H9830218   1.840   3.713   6.377 -1.3664  1.6197  0.3443
   61MOL    H9930219   1.675   3.830   6.506  1.3032  1.0667  1.5333
   61MOL   H10030220   1.596   3.687   6.554 -0.8359  2.2618 -0.1260
   61MOL   H10130221   1.749   3.731   6.635 -1.3316  0.5472  1.0069
   61MOL   C10230222   1.464   3.916   5.746  1.0612  0.0740 -1.0000
   61MOL   C10330223   1.342   3.862   5.666  0.4438  0.2975 -0.6879
   61MOL   O10430224   1.235   3.952   5.703  0.0084 -0.2976  0.7977
   61MOL   C10530225   1.102   3.911   5.655  0.0596  0.6840 -0.9054
   61MOL   C10630226   1.000   3.960   5.756  0.4305  0.4700  0.1276
   61MOL   C10730227   0.855   3.912   5.722 -0.1707 -0.6136 -0.1718
   61MOL   C10830228   0.748   3.966   5.828 -0.2424 -0.5172  0.1688
   61MOL   C10930229   0.746   3.873   5.952 -0.4307  0.0361 -0.1590
   61MOL   C11030230   0.633   3.911   6.052  0.1411  0.3123 -0.1353
   61MOL   H11130231   1.501   4.009   5.704  0.6894  1.2498  1.2075
   61MOL   H11230232   1.546   3.846   5.730 -1.1015 -2.4369 -1.5153
   61MOL   H11330233   1.323   3.762   5.704  5.3333 -0.7836 -0.6641
   61MOL   H11430234   1.105   3.803   5.641 -0.2570  0.2582  2.0361
   61MOL   H11530235   1.085   3.957   5.557  0.7716  1.4473 -0.6784
   61MOL   H11630236   1.006   4.069   5.760 -0.3583  0.5531 -0.8352
   61MOL   H11730237   1.030   3.923   5.854 -3.2339 -1.2662  0.6971
   61MOL   H11830238   0.826   3.954   5.626 -2.1559  0.2176  0.7583
   61MOL   H11930239   0.845   3.804   5.714  1.4511 -0.8040  0.3283
   61MOL   H12030240   0.784   4.064   5.860  1.3460 -0.7019 -1.0019
   61MOL   H12130241   0.649   3.976   5.784 -0.1221 -3.2948 -0.8653
   61MOL   H12230242   0.737   3.771   5.914  2.4120 -0.2688 -0.1047
   61MOL   H12330243   0.833   3.889   6.015  0.1711  1.3115 -1.2794
   61MOL   H12430244   0.665   3.902   6.156 -2.4530  1.0161  0.7603
   61MOL   H12530245   0.602   4.014   6.033  1.7437  1.2699  2.2260
   61MOL   H12630246   0.542   3.853   6.037  1.5662 -1.8599 -0.5705
   61MOL   C12730247   1.366   3.867   5.508  0.2156  0.6980  0.7706
   61MOL   C12830248   1.471   3.769   5.460  0.2296  0.2235  0.4794
   61MOL   O12930249   1.538   3.815   5.342  0.0051  0.3858 -0.0237
   61MOL   C13030250   1.471   3.852   5.220 -0.3213  0.0808  0.0863
   61MOL   C13130251   1.581   3.884   5.113  1.0258  0.1279 -0.9824
   61MOL   C13230252   1.520   3.930   4.982 -0.0826  0.0482  0.0855
   61MOL   C13330253   1.625   3.951   4.870 -0.2384 -0.1540  0.0759
   61MOL   C13430254   1.613   4.056   4.758  0.2565 -0.2156  0.2628
   61MOL   C13530255   1.742   4.075   4.679 -0.5356  0.2836 -0.1329
   61MOL   H13630256   1.274   3.841   5.455  1.3376 -0.5627 -0.5922
   61MOL   H13730257   1.391   3.969   5.479 -1.7516  1.1320  0.5166
   61MOL   H13830258   1.542   3.783   5.541 -0.6451  1.0387  1.1124
   61MOL   H13930259   1.411   3.943   5.227  0.8221  0.7994  0.6920
   61MOL   H14030260   1.401   3.781   5.176 -1.8064  1.6513 -0.1139
   61MOL   H14130261   1.641   3.798   5.084  0.2811 -0.3000 -1.2770
   61MOL   H14230262   1.656   3.956   5.145  0.2756  0.4831  0.0095
   61MOL   H14330263   1.423   3.897   4.944  0.0624 -0.3811  0.0943
   61MOL   H14430264   1.491   4.031   5.013 -0.0016  0.4910 -1.2446
   61MOL   H14530265   1.716   3.975   4.925  0.9152  0.1619 -1.8957
   61MOL   H14630266   1.639   3.858   4.813 -0.5657 -0.8854  1.1806
   61MOL   H14730267   1.529   4.035   4.692 -2.2273  0.0436  3.2116
   61MOL   H14830268   1.582   4.150   4.804  1.6517 -0.0142  0.8166
   61MOL   H14930269   1.777   3.989   4.621  2.1522 -0.4576  2.5070
   61MOL   H15030270   1.728   4.143   4.594 -1.3320 -1.2245 -1.2518
   61MOL   H15130271   1.822   4.113   4.742 -0.6422 -0.0208  0.1816
   61MOL   C15230272   1.421   3.623   5.448  0.8868  0.5161  0.9191
   61MOL   C15330273   1.509   3.517   5.522  1.0006  0.5194 -0.2572
   61MOL   O15430274   1.451   3.498   5.648  0.2114 -0.8024  0.3510
   61MOL   C15530275   1.544   3.486   5.753  0.0828 -0.2637 -0.4010
   61MOL   C15630276   1.482   3.399   5.866 -0.3908  0.0728 -0.2282
   61MOL   C15730277   1.599   3.317   5.942  0.1889  0.7054 -0.0047
   61MOL   C15830278   1.527   3.239   6.068 -0.2768  0.5985 -0.4514
   61MOL   C15930279   1.621   3.146   6.149 -0.0322  0.1547 -0.3535
   61MOL   C16030280   1.561   3.100   6.278  0.4161 -0.2341 -0.3330
   61MOL   H16130281   1.326   3.616   5.502  0.4442 -0.9085 -0.0059
   61MOL   H16230282   1.389   3.592   5.348  0.5448  0.6184  0.9964
   61MOL   H16330283   1.615   3.540   5.523  0.1985  4.8062 -2.0053
   61MOL   H16430284   1.581   3.581   5.792 -0.8341 -1.0919  2.6363
   61MOL   H16530285   1.635   3.444   5.710  1.1245  2.0273 -0.4834
   61MOL   H16630286   1.414   3.328   5.818  0.3754 -2.5601  2.4397
   61MOL   H16730287   1.421   3.465   5.928 -2.5795 -0.6909 -1.4783
   61MOL   H16830288   1.637   3.237   5.879 -0.6943 -0.0771  0.4257
   61MOL   H16930289   1.667   3.394   5.977 -2.0534  2.0327  1.6101
   61MOL   H17030290   1.472   3.311   6.129  1.8645  2.0842 -0.2173
   61MOL   H17130291   1.448   3.175   6.027  2.0675 -2.4407 -0.3623
   61MOL   H17230292   1.647   3.066   6.080 -1.9810 -0.6946 -0.1376
   61MOL   H17330293   1.713   3.200   6.170  0.3760  0.4131 -2.6117
   61MOL   H17430294   1.630   3.042   6.339  1.3221 -1.8818 -2.8565
   61MOL   H17530295   1.538   3.189   6.336  1.5398  0.4672 -0.9570
   61MOL   H17630296   1.464   3.051   6.267 -0.8688  1.6671  1.9246
   61MOL   C17730297   1.505   3.377   5.459 -0.3056  0.5363  0.4802
   61MOL   C17830298   1.543   3.370   5.308  0.2798  0.1240 -0.1946
   61MOL   O17930299   1.674   3.423   5.287  0.1059 -0.7597  0.0727
   61MOL   C18030300   1.697   3.465   5.156 -0.0426  0.0359 -0.6140
   61MOL   C18130301   1.830   3.541   5.161  0.1874  0.3312  0.4746
   61MOL   C18230302   1.888   3.585   5.025  0.1709 -0.1930  0.5053
   61MOL   C18330303   1.947   3.462   4.942  0.2587  0.4015  0.3985
   61MOL   C18430304   2.032   3.501   4.827  0.4159  0.5475 -0.5392
   61MOL   C18530305   2.133   3.392   4.777  0.1138 -0.3964 -0.5687
   61MOL   H18630306   1.579   3.310   5.503 -2.4184 -1.2708  1.3531
   61MOL   H18730307   1.409   3.333   5.487 -0.6641  0.4621 -0.8311
   61MOL   H18830308   1.464   3.422   5.253  0.7219  0.4119 -0.5575
   61MOL   H18930309   1.627   3.540   5.120  0.3177  0.4333 -0.5007
   61MOL   H19030310   1.690   3.376   5.093 -1.9604 -0.2665 -0.0006
   61MOL   H19130311   1.905   3.486   5.217  0.0477 -0.6876 -0.3307
   61MOL   H19230312   1.812   3.632   5.217 -0.9028  0.0355  0.6315
   61MOL   H19330313   1.822   3.652   4.970 -1.6628 -0.7087  2.0027
   61MOL   H19430314   1.975   3.647   5.049  0.8660 -1.2024  0.6475
   61MOL   H19530315   2.006   3.413   5.020 -0.1807  0.3317  0.6945
   61MOL   H19630316   1.867   3.390   4.921 -0.0393  0.8644 -0.0609
   61MOL   H19730317   1.972   3.540   4.745 -1.6137  0.1337  0.7132
   61MOL   H19830318   2.092   3.589   4.847  1.4474 -0.5845  1.5278
   61MOL   H19930319   2.208   3.381   4.856  0.6125  1.8186 -0.6866
   61MOL   H20030320   2.094   3.293   4.755  1.4538 -0.9098 -0.6831
   61MOL   H20130321   2.186   3.422   4.687  0.0193 -0.4099 -0.6292
   61MOL   C20230322   1.551   3.218   5.267  0.4360  0.1645 -0.2898
   61MOL   C20330323   1.432   3.159   5.189  0.3790 -0.3526  0.6685
   61MOL   O20430324   1.419   3.231   5.068 -0.6174  0.3760  0.1804
   61MOL   C20530325   1.486   3.166   4.952  0.3991  0.1360 -0.5353
   61MOL   C20630326   1.458   3.248   4.834 -0.4577 -0.3098  0.1793
   61MOL   C20730327   1.544   3.376   4.835  0.1202  0.4834 -0.1278
   61MOL   C20830328   1.552   3.446   4.701  0.0353 -0.0920 -0.3103
   61MOL   C20930329   1.621   3.585   4.702  0.1699  0.7727  0.1228
   61MOL   C21030330   1.639   3.657   4.565  0.0951 -0.0221  0.0044
   61MOL   H21130331   1.642   3.191   5.214 -0.6552  2.2646 -3.3294
   61MOL   H21230332   1.552   3.157   5.357 -2.7936  1.7780  0.9143
   61MOL   H21330333   1.468   3.058   5.173  2.0340  0.6022 -1.8266
   61MOL   H21430334   1.440   3.069   4.932 -1.0768  0.7940 -0.4075
   61MOL   H21530335   1.590   3.136   4.967  0.6893  1.4680  0.2186
   61MOL   H21630336   1.352   3.269   4.821 -0.1497  0.0852 -1.7815
   61MOL   H21730337   1.473   3.190   4.743  0.7332 -0.7534  0.6530
   61MOL   H21830338   1.505   3.435   4.917  0.4642 -1.3847  1.4107
   61MOL   H21930339   1.644   3.337   4.859 -0.2071 -0.1207  0.2703
   61MOL   H22030340   1.612   3.389   4.630 -1.2540  0.7605 -2.1340
   61MOL   H22130341   1.453   3.449   4.656  0.0223  0.2738 -0.2595
   61MOL   H22230342   1.563   3.656   4.761 -3.8648 -1.9176 -0.4787
   61MOL   H22330343   1.722   3.564   4.737 -0.0263  1.1096  0.9075
   61MOL   H22430344   1.546   3.657   4.508 -1.3519 -0.5302  2.2608
   61MOL   H22530345   1.663   3.762   4.579 -1.6756  0.4385 -0.2283
   61MOL   H22630346   1.713   3.619   4.495  0.6025  2.2141 -0.6911
   61MOL   C22730347   1.292   3.149   5.253 -0.6087  0.0559 -0.3684
   61MOL   C22830348   1.206   3.033   5.193  0.8775  0.3482 -0.3457
   61MOL   O22930349   1.108   3.014   5.294  0.2787 -0.1442 -0.0410
   61MOL   C23030350   1.108   2.884   5.358 -0.5985  0.3426  0.6572
   61MOL   C23130351   1.001   2.882   5.458  0.0751 -0.0867 -0.3963
   61MOL   C23230352   0.984   2.739   5.503 -0.4331  0.1526  0.3729
   61MOL   C23330353   0.871   2.711   5.610 -0.3839 -0.0496 -0.0454
   61MOL   C23430354   0.870   2.564   5.663 -0.0859  0.5376 -0.2949
   61MOL   C23530355   0.816   2.464   5.561 -0.2378 -0.0703 -0.2870
   61MOL   H23630356   1.313   3.132   5.359  0.3820 -2.2335 -0.8945
   61MOL   H23730357   1.241   3.245   5.249  1.3208  1.0522 -1.4323
   61MOL   H23830358   1.261   2.940   5.182  0.4265 -0.0951  1.0788
   61MOL   H23930359   1.204   2.870   5.410 -0.0025 -0.8497 -0.7308
   61MOL   H24030360   1.094   2.804   5.286 -1.5743  1.3254 -0.2592
   61MOL   H24130361   0.912   2.926   5.414  0.1806 -1.4396 -1.9963
   61MOL   H24230362   1.024   2.947   5.543 -1.1307 -0.9966  0.6605
   61MOL   H24330363   0.959   2.684   5.412  0.6223  0.8994 -0.3843
   61MOL   H24430364   1.079   2.702   5.541 -1.7193 -2.4675  1.2074
   61MOL   H24530365   0.884   2.784   5.690  0.1552 -0.7882  0.5434
   61MOL   H24630366   0.770   2.714   5.571 -0.3273 -0.9594 -0.2790
   61MOL   H24730367   0.976   2.539   5.669 -0.2294 -0.0475 -0.1675
   61MOL   H24830368   0.826   2.560   5.763  1.4683  0.2927  0.3950
   61MOL   H24930369   0.713   2.499   5.555 -1.3462 -2.8104  1.7823
   61MOL   H25030370   0.858   2.482   5.462  0.6117 -0.5899 -0.0284
   61MOL   H25130371   0.820   2.364   5.604 -1.6321  0.1673  0.4278
   61MOL   C25230372   1.140   3.060   5.050 -0.3068  0.3737  0.2162
   61MOL   C25330373   1.053   2.935   5.001 -0.4856 -0.7688  0.2212
   61MOL   O25430374   1.127   2.856   4.909 -0.8985  0.0333 -0.1814
   61MOL   C25530375   1.076   2.725   4.887 -0.1040 -0.3200 -0.1515
   61MOL   C25630376   1.179   2.638   4.822  0.1480  0.2465  0.3937
   61MOL   C25730377   1.152   2.490   4.814  0.1110 -0.9089  0.0214
   61MOL   C25830378   1.250   2.406   4.731  0.1131 -0.3925 -0.2875
   61MOL   C25930379   1.244   2.252   4.751  0.1930  0.3532  0.4626
   61MOL   C26030380   1.282   2.194   4.617 -0.5979  0.4364 -0.3557
   61MOL   H26130381   1.074   3.146   5.056 -2.1081 -0.7046 -2.9931
   61MOL   H26230382   1.222   3.080   4.981 -0.4235  0.6528  0.1585
   61MOL   H26330383   1.010   2.875   5.082  0.5969 -1.2200  0.4611
   61MOL   H26430384   0.980   2.721   4.834 -0.2185 -0.5464  0.0719
   61MOL   H26530385   1.054   2.683   4.985  2.8017  0.2556  0.7762
   61MOL   H26630386   1.273   2.649   4.876  0.5006 -0.7714  0.0022
   61MOL   H26730387   1.193   2.675   4.720  2.4961 -1.5432  0.0050
   61MOL   H26830388   1.129   2.445   4.910  1.3594 -0.5876  0.4816
   61MOL   H26930389   1.053   2.481   4.769 -1.2509 -2.4145  3.2222
   61MOL   H27030390   1.218   2.429   4.629 -0.8987  0.7861  0.2773
   61MOL   H27130391   1.352   2.443   4.737 -0.1092  0.3019 -0.7080
   61MOL   H27230392   1.317   2.239   4.832  0.8463  0.9737 -0.0184
   61MOL   H27330393   1.143   2.226   4.782 -0.1923 -0.1849 -1.2448
   61MOL   H27430394   1.206   2.216   4.542  1.1174  1.2911 -1.8820
   61MOL   H27530395   1.388   2.207   4.594 -0.7438 -1.5807 -2.2900
   61MOL   H27630396   1.269   2.088   4.640  0.0851  0.5847  0.7730
   61MOL   C27730397   0.931   2.996   4.915 -0.4920 -0.2239  0.7162
   61MOL   C27830398   0.798   3.031   4.999 -0.4191 -0.0274  0.8337
   61MOL   O27930399   0.819   3.148   5.079  0.0416 -0.3098 -0.5046
   61MOL   C28030400   0.729   3.152   5.185  0.0631  0.4114 -0.0957
   61MOL   C28130401   0.763   3.278   5.266 -0.1979 -0.0649  0.0887
   61MOL   C28230402   0.906   3.295   5.319  0.1406 -0.0561  0.6459
   61MOL   C28330403   0.926   3.426   5.401 -0.6332 -0.1906  0.1904
   61MOL   C28430404   1.072   3.438   5.447  0.2598  0.5076 -0.4143
   61MOL   C28530405   1.112   3.362   5.574 -0.2067  0.2856 -0.0099
   61MOL   H28630406   0.972   3.083   4.864  2.1737 -1.3007  0.9374
   61MOL   H28730407   0.899   2.922   4.842 -1.6360  2.2058 -1.3378
   61MOL   H28830408   0.807   2.946   5.068 -1.6397  0.4505  1.5912
   61MOL   H28930409   0.736   3.065   5.251  0.3007 -0.3714 -1.1265
   61MOL   H29030410   0.626   3.160   5.150 -0.3416 -0.0727  0.9698
   61MOL   H29130411   0.691   3.292   5.346 -0.1356  0.6223  0.0329
   61MOL   H29230412   0.739   3.370   5.211 -0.0175  0.5375  1.0117
   61MOL   H29330413   0.921   3.206   5.380  1.3040  0.2115  0.7672
   61MOL   H29430414   0.965   3.296   5.227 -2.0029 -0.8796 -0.7844
   61MOL   H29530415   0.907   3.514   5.340 -0.4513 -0.5320 -0.3598
   61MOL   H29630416   0.864   3.439   5.490  2.1906 -0.0091  2.2126
   61MOL   H29730417   1.138   3.403   5.367 -0.6732 -0.2298 -0.8609
   61MOL   H29830418   1.098   3.544   5.456 -0.4452  0.6605 -0.1362
   61MOL   H29930419   1.215   3.384   5.601  0.4889 -1.5546 -1.0893
   61MOL   H30030420   1.046   3.382   5.658  0.3410  1.9407  0.0442
   61MOL   H30130421   1.088   3.257   5.561  0.9838 -0.0491  0.4140
   61MOL   C30230422   0.682   3.041   4.903  0.5331  0.5992  0.7508
   61MOL   C30330423   0.625   2.908   4.870  0.3932  0.0202 -0.3576
   61MOL   O30430424   0.507   2.930   4.783 -0.3159  0.3452  0.0984
   61MOL   C30530425   0.538   2.909   4.650 -0.3693  0.2136 -0.3340
   61MOL   C30630426   0.414   2.929   4.559 -0.3996 -0.0173  0.4020
   61MOL   C30730427   0.328   2.803   4.566  0.3066  0.7107 -0.5016
   61MOL   C30830428   0.246   2.787   4.441 -0.1802  0.4322  0.4430
   61MOL   C30930429   0.141   2.895   4.416 -0.8120  0.2365  0.9037
   61MOL   C31030430   0.018   2.850   4.338 -0.1903 -0.0965  0.2630
   61MOL   H31130431   0.597   3.105   4.928  0.6847  0.8770  0.5568
   61MOL   H31230432   0.707   3.086   4.807 -1.7480  0.2229 -0.0497
   61MOL   H31330433   0.694   2.844   4.813  2.2371  1.3899  0.2776
   61MOL   H31430434   0.587   2.813   4.639  3.5488  2.4059 -3.4502
   61MOL   H31530435   0.617   2.981   4.627 -1.5996  0.8407 -2.7668
   61MOL   H31630436   0.454   2.942   4.459  2.5967 -1.1524  1.4097
   61MOL   H31730437   0.356   3.020   4.574 -0.8989 -0.3200  0.3171
   61MOL   H31830438   0.394   2.718   4.580  0.2791  0.5172 -1.4870
   61MOL   H31930439   0.265   2.816   4.654  1.1141  0.5151  0.1071
   61MOL   H32030440   0.316   2.762   4.362  0.1000 -1.0778  1.1468
   61MOL   H32130441   0.181   2.701   4.453 -0.8354  0.6850 -1.2734
   61MOL   H32230442   0.125   2.945   4.512  3.1433  2.2122  0.6570
   61MOL   H32330443   0.194   2.971   4.359 -0.7152 -0.9607 -0.6145
   61MOL   H32430444   7.760   2.754   4.375  0.5075 -0.6844 -0.5838
   61MOL   H32530445   7.725   2.931   4.354  2.8782  3.0156 -1.1880
   61MOL   H32630446   0.042   2.830   4.234 -0.9036 -4.0915  0.7783
   61MOL   C32730447   0.585   2.822   4.995 -0.3431  0.0523 -0.4952
   61MOL   C32830448   0.576   2.671   4.961 -0.1254  0.0307 -0.4470
   61MOL   O32930449   0.616   2.591   5.074  0.5378  0.4325  0.5578
   61MOL   C33030450   0.759   2.571   5.076  0.0641  1.1797  0.2404
   61MOL   C33130451   0.799   2.454   5.158 -0.0729  0.1023  0.1696
   61MOL   C33230452   0.745   2.327   5.089 -0.4908  0.3314  0.5049
   61MOL   C33330453   0.831   2.296   4.964  0.1938 -0.0574 -0.6044
   61MOL   C33430454   0.783   2.165   4.903  0.3786 -0.0294  0.1034
   61MOL   C33530455   0.859   2.127   4.779 -0.0053 -0.2403  0.1806
   61MOL   H33630456   0.496   2.869   5.038  0.0824 -0.0644  0.5291
   61MOL   H33730457   0.656   2.823   5.077 -0.5327  0.0897 -0.3307
   61MOL   H33830458   0.628   2.625   4.877  0.0301 -1.5639  0.5103
   61MOL   H33930459   0.806   2.657   5.123  0.8734  0.2990  1.0755
   61MOL   H34030460   0.804   2.564   4.977  0.4802 -1.9479  0.5992
   61MOL   H34130461   0.761   2.464   5.260 -0.2561 -0.6609  0.1789
   61MOL   H34230462   0.906   2.462   5.175  0.0928  2.8328 -1.9013
   61MOL   H34330463   0.757   2.252   5.166 -1.3217  1.1568  1.4433
   61MOL   H34430464   0.643   2.346   5.055 -1.0883 -1.5998  1.1583
   61MOL   H34530465   0.818   2.373   4.887 -0.5386 -0.6620 -1.0996
   61MOL   H34630466   0.934   2.277   4.992 -0.1064 -0.6849  0.0648
   61MOL   H34730467   0.782   2.088   4.979 -0.7026  1.2492  1.4078
   61MOL   H34830468   0.681   2.182   4.868  0.3094  0.1118  0.3773
   61MOL   H34930469   0.816   2.034   4.741 -0.8764  0.1876  0.1102
   61MOL   H35030470   0.859   2.202   4.699  0.5242 -0.6778 -0.2381
   61MOL   H35130471   0.963   2.101   4.799 -0.4766 -1.1864  1.4811
   61MOL   C35230472   0.430   2.631   4.945  0.0140 -0.0742  0.1323
   61MOL   C35330473   0.408   2.496   4.870  0.2835  0.5566 -0.0329
   61MOL   O35430474   0.443   2.521   4.734 -0.0762 -0.3016  0.5082
   61MOL   C35530475   0.519   2.414   4.673  0.7775  0.6305 -0.6159
   61MOL   C35630476   0.579   2.466   4.538 -0.1512  0.4026 -0.3735
   61MOL   C35730477   0.487   2.444   4.409 -0.0066  0.4944  0.1316
   61MOL   C35830478   0.560   2.487   4.276 -0.3743  0.5367  0.6197
   61MOL   C35930479   0.493   2.428   4.157  0.3178  0.4032 -1.0369
   61MOL   C36030480   0.343   2.464   4.137  0.1408  0.2676  0.2828
   61MOL   H36130481   0.382   2.627   5.042  1.6990  0.5529  1.0127
   61MOL   H36230482   0.385   2.704   4.877 -0.0018  0.8890  1.1599
   61MOL   H36330483   0.465   2.420   4.922 -1.7933  0.4531  2.1352
   61MOL   H36430484   0.448   2.337   4.643 -1.5998  1.7924  1.8454
   61MOL   H36530485   0.598   2.383   4.741  2.0389  1.7061 -1.5444
   61MOL   H36630486   0.669   2.404   4.536 -0.8528 -0.6973  0.9345
   61MOL   H36730487   0.609   2.570   4.546 -0.1644  0.4760 -1.2471
   61MOL   H36830488   0.450   2.342   4.415  1.1322  0.1778  2.2213
   61MOL   H36930489   0.398   2.502   4.432 -1.5354 -1.0270 -1.7343
   61MOL   H37030490   0.557   2.596   4.268 -1.4868  0.5954  1.5823
   61MOL   H37130491   0.663   2.451   4.271  0.2382  2.4085 -0.7478
   61MOL   H37230492   0.542   2.436   4.060  0.2988 -1.9052 -1.2643
   61MOL   H37330493   0.504   2.320   4.169  0.6732  0.6440  0.9977
   61MOL   H37430494   0.314   2.460   4.033  0.3426 -0.4843  0.2515
   61MOL   H37530495   0.276   2.399   4.195 -0.6704  1.8883  1.1849
   61MOL   H37630496   0.330   2.567   4.169 -0.6420  0.6810 -1.3514
   61MOL   C37730497   0.259   2.464   4.858  0.2235 -0.5829 -0.4111
   61MOL   C37830498   0.220   2.401   4.993 -0.0817  0.0808  0.5666
   61MOL   O37930499   0.217   2.252   4.973 -0.3115 -0.7858  0.2643
   61MOL   C38030500   0.304   2.176   5.060 -0.0216  0.2393 -1.2572
   61MOL   C38130501   0.306   2.035   5.000 -0.2741  0.9257 -0.0918
   61MOL   C38230502   0.393   2.037   4.875 -0.3135  1.1955  0.3711
   61MOL   C38330503   0.382   1.904   4.806 -0.2033 -0.2152  0.1341
   61MOL   C38430504   0.465   1.912   4.673  0.6467  0.3179 -0.6648
   61MOL   C38530505   0.437   1.786   4.600 -0.0998  0.1600 -0.6055
   61MOL   H38630506   0.202   2.555   4.841 -0.3874 -1.0546 -0.9133
   61MOL   H38730507   0.244   2.388   4.782  1.2164 -2.0869  0.8566
   61MOL   H38830508   0.293   2.424   5.071  0.0204 -1.3942  0.9235
   61MOL   H38930509   0.265   2.184   5.161 -0.1208  1.3136 -1.3764
   61MOL   H39030510   0.402   2.223   5.066  0.6826 -1.2572 -0.8454
   61MOL   H39130511   0.206   1.993   4.997 -1.0447  2.6818  0.4561
   61MOL   H39230512   0.357   1.972   5.073 -0.1487 -0.2916 -1.2154
   61MOL   H39330513   0.354   2.121   4.818 -0.9224 -0.2042 -1.3170
   61MOL   H39430514   0.497   2.063   4.896  0.3902  0.3670 -1.9702
   61MOL   H39530515   0.437   1.838   4.873  0.9571  2.6987  2.1688
   61MOL   H39630516   0.281   1.865   4.799 -0.4533  0.2065  1.3816
   61MOL   H39730517   0.431   1.991   4.607  1.5184  0.1678 -1.2919
   61MOL   H39830518   0.572   1.927   4.685  0.7632 -1.5423  0.9928
   61MOL   H39930519   0.331   1.774   4.579 -0.4009  0.4253  0.7146
   61MOL   H40030520   0.493   1.783   4.507 -1.2246 -1.1520 -1.2589
   61MOL   H40130521   0.462   1.698   4.660 -0.1087 -0.3036 -1.2830
   61MOL   C40230522   0.077   2.428   5.032 -0.3341 -0.3557 -0.1211
   61MOL   C40330523   7.740   2.392   4.940  0.1108  0.5860  0.1321
   61MOL   O40430524   7.654   2.501   4.933  0.1500 -0.4369  0.3584
   61MOL   C40530525   7.669   2.603   4.825  0.0878  0.0591 -0.1033
   61MOL   C40630526   7.579   2.730   4.830 -0.2544 -0.3559 -0.0465
   61MOL   C40730527   7.584   2.817   4.706  0.2231 -0.0172 -0.3126
   61MOL   C40830528   7.542   2.968   4.742  0.0242  0.9206 -1.1096
   61MOL   C40930529   7.559   3.049   4.615  0.2080 -0.0533 -0.3942
   61MOL   C41030530   7.520   3.194   4.629 -0.2976 -0.9980 -0.5025
   61MOL   H41130531   0.059   2.531   5.060  2.4642  0.2327 -0.4334
   61MOL   H41230532   0.059   2.372   5.125 -0.5219 -2.6599 -1.4944
   61MOL   H41330533   0.001   2.386   4.838  2.9653  0.7977  1.1718
   61MOL   H41430534   7.654   2.557   4.727 -1.1932 -1.7572  0.9070
   61MOL   H41530535   7.773   2.635   4.818  0.6749 -1.8347 -0.2480
   61MOL   H41630536   7.613   2.783   4.919  1.7860 -1.2088 -0.2952
   61MOL   H41730537   7.475   2.697   4.840 -0.2726 -1.1380 -2.4562
   61MOL   H41830538   7.682   2.811   4.657 -0.6454 -1.1605 -1.9841
   61MOL   H41930539   7.513   2.778   4.633 -1.7815  0.8801  1.1010
   61MOL   H42030540   7.443   2.984   4.784 -0.8550 -0.7548 -2.4771
   61MOL   H42130541   7.604   3.008   4.822 -1.2136  0.3396  0.1531
   61MOL   H42230542   7.658   3.038   4.570  1.0075 -2.1029  1.7875
   61MOL   H42330543   7.480   3.014   4.549 -0.2456 -0.6671  0.4647
   61MOL   H42430544   7.539   3.245   4.535 -2.0364  1.7236  0.5652
   61MOL   H42530545   7.415   3.195   4.659 -0.3007 -0.5704 -0.5256
   61MOL   H42630546   7.578   3.245   4.705  0.1550  1.3858 -2.4177
   61MOL   C42730547   7.672   2.263   4.984  0.7649 -0.7570  1.1041
   61MOL   C42830548   7.549   2.235   4.897 -0.3540  0.5712 -1.0710
   61MOL   O42930549   7.600   2.182   4.776 -0.0568  0.6228  1.0727
   61MOL   C43030550   7.531   2.196   4.653 -0.2858  0.5514  1.2690
   61MOL   C43130551   7.594   2.112   4.542  0.0245  0.2098  0.0385
   61MOL   C43230552   7.749   2.131   4.529  0.3309  0.1311  0.3681
   61MOL   C43330553   0.041   2.015   4.463 -0.5334 -0.3981 -0.1830
   61MOL   C43430554   0.187   2.032   4.420  0.0441  0.2351 -0.5923
   61MOL   C43530555   0.225   2.150   4.331 -0.2243 -0.1266  0.2764
   61MOL   H43630556   7.741   2.179   4.978  0.1082 -1.2085 -0.5351
   61MOL   H43730557   7.628   2.289   5.081  0.7358  1.7557  0.4550
   61MOL   H43830558   7.495   2.324   4.865 -1.0784 -0.1380 -1.8467
   61MOL   H43930559   7.537   2.303   4.634  1.5333  0.1959 -0.2409
   61MOL   H44030560   7.431   2.175   4.693  0.4195 -1.9894  1.8065
   61MOL   H44130561   7.546   2.135   4.447  0.2277 -1.7412 -0.5675
   61MOL   H44230562   7.579   2.005   4.553  1.5260 -0.0289 -0.0365
   61MOL   H44330563   7.772   2.222   4.474 -0.0313  0.0003 -0.0036
   61MOL   H44430564   0.012   2.152   4.628  1.9526  2.7214 -0.8079
   61MOL   H44530565   0.042   1.921   4.519  0.9114 -1.2883 -1.6348
   61MOL   H44630566   7.758   2.001   4.375 -2.4572 -0.3519  1.1252
   61MOL   H44730567   0.241   2.047   4.513 -1.6603 -1.4647  0.6904
   61MOL   H44830568   0.226   1.942   4.371 -0.7457 -0.2282 -0.3760
   61MOL   H44930569   0.179   2.142   4.232 -1.1260  1.4592  0.5422
   61MOL   H45030570   0.209   2.249   4.375 -0.1808 -1.0432  2.3929
   61MOL   H45130571   0.329   2.161   4.300 -0.4693  0.0066 -0.5129
   61MOL   C45230572   7.464   2.121   4.971 -0.1537  0.2348  0.2088
   61MOL   C45330573   7.336   2.164   5.047  0.0552 -0.3914 -0.1999
   61MOL   O45430574   7.291   2.046   5.121 -0.1515  0.9767 -0.0782
   61MOL   C45530575   7.200   2.066   5.229  0.8212  0.1565 -0.0672
   61MOL   C45630576   7.105   1.949   5.263 -0.1762 -0.1973 -0.0186
   61MOL   C45730577   7.182   1.824   5.301  0.5201  0.5822 -0.8257
   61MOL   C45830578   7.083   1.709   5.327  0.4666 -0.7310 -0.2913
   61MOL   C45930579   7.166   1.578   5.363 -0.2870  0.2677  0.3515
   61MOL   C46030580   7.086   1.467   5.422 -0.0102 -0.4487 -0.6345
   61MOL   H46130581   7.441   2.042   4.900 -1.6466 -0.1487  1.0802
   61MOL   H46230582   7.534   2.063   5.030 -0.5801 -1.5311 -0.9910
   61MOL   H46330583   7.361   2.234   5.126  0.3073 -2.8985  2.0132
   61MOL   H46430584   7.135   2.151   5.209 -2.1281 -2.1355 -0.6383
   61MOL   H46530585   7.242   2.105   5.321  0.9767  1.5068 -0.7055
   61MOL   H46630586   7.036   1.926   5.181  0.7153 -0.5168 -0.6820
   61MOL   H46730587   7.039   1.980   5.344 -0.3354 -1.0500  0.1824
   61MOL   H46830588   7.249   1.796   5.219  1.0681 -1.3902  0.2648
   61MOL   H46930589   7.246   1.841   5.387  1.9045  1.6612 -2.0433
   61MOL   H47030590   7.014   1.733   5.408  2.0756 -0.1633  0.9447
   61MOL   H47130591   7.032   1.698   5.232 -0.2740  0.0526  0.0046
   61MOL   H47230592   7.200   1.539   5.267 -1.6431  1.9251 -0.8391
   61MOL   H47330593   7.240   1.609   5.437 -0.4938 -0.0068  0.6729
   61MOL   H47430594   7.046   1.492   5.520  1.2576  1.1620 -0.5299
   61MOL   H47530595   7.009   1.432   5.352 -2.8073  0.6398  1.7998
   61MOL   H47630596   7.146   1.380   5.447  0.9536  0.4202  0.0853
   61MOL   C47730597   7.224   2.239   4.962  0.6152 -0.1510  0.1460
   61MOL   C47830598   7.150   2.134   4.880  0.9358 -0.4776  0.0358
   61MOL   O47930599   7.025   2.193   4.833  0.2847 -0.7024 -0.7858
   61MOL   C48030600   6.949   2.101   4.760 -0.0995  1.2491  1.2640
   61MOL   C48130601   7.026   2.056   4.635 -0.5641  0.2614 -0.9604
   61MOL   C48230602   6.946   1.995   4.520 -0.7458 -0.4957 -0.8727
   61MOL   C48330603   6.908   1.852   4.541  0.1137  0.6005  0.1651
   61MOL   C48430604   6.808   1.803   4.436 -0.0060 -0.2321  0.2296
   61MOL   C48530605   6.734   1.678   4.473 -0.1436 -0.3004  0.4504
   61MOL   H48630606   7.149   2.293   5.021  0.1880 -0.6704  0.0759
   61MOL   H48730607   7.271   2.317   4.902  1.0848 -0.0804  0.6066
   61MOL   H48830608   7.219   2.127   4.796  1.8916  1.1301  0.6601
   61MOL   H48930609   6.853   2.147   4.740 -0.6269 -0.4948 -0.3053
   61MOL   H49030610   6.926   2.014   4.821  3.4133 -1.2610 -0.7976
   61MOL   H49130611   7.107   1.987   4.657 -0.1832  1.6947  2.4381
   61MOL   H49230612   7.074   2.148   4.602 -0.6755  0.3809 -0.7889
   61MOL   H49330613   6.861   2.059   4.499 -2.7870 -1.8560  2.8141
   61MOL   H49430614   7.013   2.002   4.434  0.8981 -2.9823  0.1545
   61MOL   H49530615   6.991   1.783   4.527 -0.7275 -0.2738 -0.6080
   61MOL   H49630616   6.876   1.829   4.643 -1.7057 -2.5360 -1.0297
   61MOL   H49730617   6.731   1.877   4.412 -1.3554 -0.9930  2.0467
   61MOL   H49830618   6.857   1.795   4.339 -0.0604  1.5712  0.0399
   61MOL   H49930619   6.674   1.688   4.564 -0.4972  0.2460  0.1665
   61MOL   H50030620   6.660   1.631   4.408 -0.0456  1.1402 -0.7512
   61MOL   H50130621   6.813   1.610   4.503  2.1496  2.2276  0.2738
   61MOL   H50230622   7.136   2.036   4.926  1.0286 -0.4341  0.1537
   62MOL     C130623   5.622   2.879   6.395 -0.2192 -0.5107 -0.4746
   62MOL     C230624   5.487   2.930   6.343  0.4089 -0.0285  0.3834
   62MOL     O330625   5.387   2.914   6.440  0.4297  0.3082 -0.0338
   62MOL     C430626   5.386   3.008   6.543  0.3581  0.8516 -0.1769
   62MOL     C530627   5.265   2.986   6.632  0.5564 -0.3318 -0.1926
   62MOL     C630628   5.264   2.849   6.707  0.4882 -0.1701  0.0758
   62MOL     C730629   5.156   2.810   6.811 -0.6827  0.1334  0.3708
   62MOL     C830630   5.187   2.671   6.863  0.0810  0.3260 -0.0155
   62MOL     C930631   5.307   2.656   6.956  0.0220 -0.5509 -0.4890
   62MOL    H1030632   5.632   2.771   6.394  3.4177 -0.2304 -0.0130
   62MOL    H1130633   5.702   2.921   6.334 -0.3842 -0.6800 -0.8100
   62MOL    H1230634   5.510   3.035   6.326  0.5336 -0.0754  0.2602
   62MOL    H1330635   5.365   3.104   6.498 -0.0010  1.0169  0.3404
   62MOL    H1430636   5.477   3.018   6.603 -0.4232  1.4663  0.9112
   62MOL    H1530637   5.182   2.998   6.563  1.5050 -0.8359 -1.4459
   62MOL    H1630638   5.262   3.064   6.708 -1.6334 -1.1324  0.5582
   62MOL    H1730639   5.268   2.780   6.624  0.2300  0.2523 -0.2901
   62MOL    H1830640   5.364   2.843   6.750  0.5992  0.6419 -0.0540
   62MOL    H1930641   5.143   2.886   6.888  3.6645  0.9885  0.3793
   62MOL    H2030642   5.063   2.793   6.757 -0.7565 -0.2707  0.6167
   62MOL    H2130643   5.191   2.599   6.781 -0.5853  0.2033  0.0581
   62MOL    H2230644   5.102   2.638   6.922  1.2951  1.1255  2.2493
   62MOL    H2330645   5.402   2.651   6.902 -1.0978  1.1984 -2.7284
   62MOL    H2430646   5.321   2.730   7.034 -0.1248  1.3226 -2.1939
   62MOL    H2530647   5.300   2.559   7.005  0.1245 -0.2118  0.2018
   62MOL    H2630648   5.641   2.917   6.495 -0.7958  0.6021 -0.7691
   62MOL    C2730649   5.443   2.853   6.216  0.3315  0.3678  0.4241
   62MOL    C2830650   5.531   2.880   6.089  0.5655 -0.5585  0.3999
   62MOL    O2930651   5.483   2.817   5.979 -0.0223  0.4602  0.4132
   62MOL    C3030652   5.526   2.682   5.966  0.1327 -1.1780 -0.2484
   62MOL    C3130653   5.531   2.632   5.819 -0.1834  0.6954  0.1686
   62MOL    C3230654   5.660   2.661   5.744 -0.2083  0.3985  0.3271
   62MOL    C3330655   5.655   2.658   5.598 -0.2045 -0.1839  0.4217
   62MOL    C3430656   5.785   2.691   5.530 -0.0520  0.3527 -0.2873
   62MOL    C3530657   5.771   2.670   5.375 -0.7932 -0.3537 -0.1045
   62MOL    H3630658   5.442   2.745   6.226  1.7026  0.1564 -1.3743
   62MOL    H3730659   5.338   2.877   6.198 -0.4343 -1.5321  2.1868
   62MOL    H3830660   5.636   2.857   6.107  1.6949  1.1394 -3.5060
   62MOL    H3930661   5.460   2.625   6.031 -1.2723  0.5826 -0.1089
   62MOL    H4030662   5.619   2.661   6.020 -1.3440 -0.6091  2.5616
   62MOL    H4130663   5.448   2.667   5.757 -0.4072  1.5799  0.9487
   62MOL    H4230664   5.523   2.523   5.818 -2.3626  0.8283 -0.7707
   62MOL    H4330665   5.686   2.762   5.773  1.9700 -1.0705  3.8264
   62MOL    H4430666   5.745   2.603   5.781  1.5697  2.3960 -0.5478
   62MOL    H4530667   5.620   2.555   5.595 -0.3928 -0.1005 -0.2262
   62MOL    H4630668   5.580   2.721   5.551  2.1464  0.7565 -2.2578
   62MOL    H4730669   5.814   2.792   5.562 -0.9661  0.4953  0.0982
   62MOL    H4830670   5.862   2.619   5.555 -1.0248 -0.5083  0.2382
   62MOL    H4930671   5.730   2.570   5.357 -1.7218 -0.1297  0.7223
   62MOL    H5030672   5.697   2.735   5.329  1.0990  0.5637 -1.9292
   62MOL    H5130673   5.873   2.680   5.337 -1.2927 -0.0499 -1.3966
   62MOL    C5230674   5.519   3.035   6.051  0.1342 -0.2889  0.4154
   62MOL    C5330675   5.587   3.075   5.914 -0.0935  0.5736  0.2536
   62MOL    O5430676   5.562   3.216   5.887  0.2356 -0.3093  0.3462
   62MOL    C5530677   5.428   3.243   5.862 -0.0448  0.4256  0.5026
   62MOL    C5630678   5.377   3.329   5.973  0.7368  0.2475 -0.1781
   62MOL    C5730679   5.228   3.314   6.014  0.1321  0.4137 -0.0421
   62MOL    C5830680   5.192   3.346   6.159  0.0143 -0.2048  1.0645
   62MOL    C5930681   5.051   3.319   6.201  0.4661 -0.1572  0.3676
   62MOL    C6030682   5.027   3.176   6.238 -0.2911 -0.2182  0.8919
   62MOL    H6130683   5.549   3.106   6.127  1.6703  0.4546 -0.8460
   62MOL    H6230684   5.411   3.042   6.038  0.6048  2.1247 -2.6723
   62MOL    H6330685   5.558   3.017   5.827  0.8316 -0.7683  0.8286
   62MOL    H6430686   5.367   3.155   5.839  1.8063 -0.4337 -1.2795
   62MOL    H6530687   5.417   3.288   5.763 -0.4439 -0.3600  0.1783
   62MOL    H6630688   5.396   3.429   5.933 -0.0824 -0.0063 -1.2343
   62MOL    H6730689   5.435   3.330   6.065 -2.4328 -2.0875  1.9403
   62MOL    H6830690   5.166   3.370   5.944  0.8665  2.5102  0.9391
   62MOL    H6930691   5.206   3.209   5.993  0.4059  0.1353  1.0820
   62MOL    H7030692   5.251   3.296   6.236  1.7259  0.7837  0.4348
   62MOL    H7130693   5.209   3.451   6.185  0.2846  0.1129 -0.3761
   62MOL    H7230694   5.033   3.363   6.299 -1.4760  0.2253 -0.1290
   62MOL    H7330695   4.977   3.356   6.130  0.8315 -0.3615 -0.1238
   62MOL    H7430696   5.069   3.148   6.335  0.5019 -0.3757  0.5000
   62MOL    H7530697   4.921   3.153   6.251 -0.0262 -1.7711  0.3653
   62MOL    H7630698   5.050   3.106   6.159 -1.2465  0.4570 -0.0006
   62MOL    C7730699   5.737   3.059   5.927  0.6692 -0.2203 -0.2991
   62MOL    C7830700   5.812   3.052   5.791  1.0347 -0.0636  0.0584
   62MOL    O7930701   5.952   3.016   5.813  0.2436  0.7886  0.0788
   62MOL    C8030702   5.971   2.878   5.854 -0.7997  0.3372  0.3852
   62MOL    C8130703   6.083   2.869   5.958  0.8521 -0.9007  0.3737
   62MOL    C8230704   6.039   2.943   6.089 -1.1668 -0.4311 -0.1694
   62MOL    C8330705   6.137   2.940   6.204 -0.2663 -0.1185 -0.2214
   62MOL    C8430706   6.081   3.017   6.332  0.1179 -0.3605 -0.0673
   62MOL    C8530707   6.170   3.011   6.461 -0.2055  0.2835  0.2749
   62MOL    H8630708   5.765   2.963   5.971 -0.8466 -1.3970 -1.8288
   62MOL    H8730709   5.800   3.121   5.991 -0.4572  3.6785 -2.7751
   62MOL    H8830710   5.760   2.976   5.733  0.8780  0.4309 -0.4440
   62MOL    H8930711   6.013   2.815   5.775  0.4060  1.9476 -0.2936
   62MOL    H9030712   5.885   2.826   5.895 -0.4104 -0.2128  0.5043
   62MOL    H9130713   6.172   2.924   5.926  0.3414  0.5490  1.4029
   62MOL    H9230714   6.107   2.766   5.980 -0.5777 -1.4593 -0.5916
   62MOL    H9330715   6.014   3.047   6.068  0.6110 -0.0885 -0.6531
   62MOL    H9430716   5.947   2.894   6.121 -0.7631 -0.7172  0.5729
   62MOL    H9530717   6.139   2.833   6.228  0.1743 -0.0199  0.2129
   62MOL    H9630718   6.240   2.961   6.175 -0.4872  0.0722 -0.8556
   62MOL    H9730719   6.058   3.122   6.314 -1.6766 -1.0348 -2.0194
   62MOL    H9830720   5.982   2.974   6.347  0.6138 -1.4280  0.2274
   62MOL    H9930721   6.260   3.073   6.459  1.6034 -2.1925  1.3314
   62MOL   H10030722   6.123   3.032   6.557  1.9384 -2.9311  2.1450
   62MOL   H10130723   6.221   2.914   6.464  0.5787  0.7144  1.2409
   62MOL   C10230724   5.816   3.187   5.704 -0.6149  0.1883 -0.6933
   62MOL   C10330725   5.712   3.198   5.596  0.2677  0.5411 -0.0691
   62MOL   O10430726   5.741   3.325   5.543 -0.0134 -0.2177  0.9653
   62MOL   C10530727   5.648   3.424   5.579 -0.5657 -0.2485  0.4158
   62MOL   C10630728   5.678   3.553   5.495 -0.4730  1.3759 -0.6392
   62MOL   C10730729   5.590   3.668   5.524  0.3998  0.1329  0.3459
   62MOL   C10830730   5.441   3.644   5.495 -0.0097 -0.4381 -0.0042
   62MOL   C10930731   5.362   3.760   5.558 -0.3952  0.5630  0.2658
   62MOL   C11030732   5.212   3.741   5.552  0.1191 -0.4835  0.3696
   62MOL   H11130733   5.818   3.270   5.774 -1.1309 -2.3727  2.4798
   62MOL   H11230734   5.909   3.197   5.647 -1.5206  2.0348 -1.9018
   62MOL   H11330735   5.618   3.189   5.650  0.2306  0.3037 -0.1732
   62MOL   H11430736   5.647   3.448   5.686  0.3202  0.5091  0.2661
   62MOL   H11530737   5.545   3.393   5.561 -0.3432  0.4768 -2.2936
   62MOL   H11630738   5.674   3.521   5.391 -0.5137  0.5006 -0.3687
   62MOL   H11730739   5.784   3.578   5.499 -0.2540  0.3340  0.2748
   62MOL   H11830740   5.610   3.709   5.623 -0.4422  1.1230  0.1185
   62MOL   H11930741   5.630   3.753   5.468 -0.9914  1.3656  1.1666
   62MOL   H12030742   5.425   3.646   5.388 -0.8123  2.6133  0.1218
   62MOL   H12130743   5.401   3.551   5.536 -2.5627  0.2041 -0.9094
   62MOL   H12230744   5.389   3.759   5.663 -2.0896  0.8263  0.7237
   62MOL   H12330745   5.389   3.858   5.521 -0.0151  0.5028  0.3843
   62MOL   H12430746   5.190   3.642   5.591 -0.7022 -0.1816  0.6902
   62MOL   H12530747   5.154   3.814   5.609  2.5108  0.5472  1.5205
   62MOL   H12630748   5.171   3.735   5.451 -0.3924  0.0745  0.5351
   62MOL   C12730749   5.729   3.096   5.476 -0.6813 -0.0655 -0.8025
   62MOL   C12830750   5.608   3.093   5.386 -0.2279 -0.5027 -0.2406
   62MOL   O12930751   5.509   3.005   5.443 -0.2356 -0.2738  0.0167
   62MOL   C13030752   5.372   3.019   5.393  0.1199 -1.3097 -1.0126
   62MOL   C13130753   5.279   2.937   5.487  0.2435 -0.0427 -0.8206
   62MOL   C13230754   5.288   2.973   5.640 -0.9979 -0.2420  0.3802
   62MOL   C13330755   5.183   2.892   5.715  0.1335  0.2977 -0.5345
   62MOL   C13430756   5.164   2.932   5.865  0.1253 -0.3990  0.2933
   62MOL   C13530757   5.062   2.838   5.933 -0.7955  0.3406 -0.1922
   62MOL   H13630758   5.821   3.123   5.424 -0.3310 -0.1802 -0.2419
   62MOL   H13730759   5.743   2.996   5.516 -0.7336 -0.6225 -2.1342
   62MOL   H13830760   5.564   3.193   5.389  0.8409  0.0280 -1.9268
   62MOL   H13930761   5.367   2.973   5.294  0.7792 -0.5383 -1.4087
   62MOL   H14030762   5.342   3.123   5.404 -2.1950 -2.0892  0.4739
   62MOL   H14130763   5.302   2.831   5.481 -0.0953 -0.3231  2.0157
   62MOL   H14230764   5.178   2.945   5.448  0.8800 -0.9869 -2.6848
   62MOL   H14330765   5.381   2.937   5.685  0.1386 -0.7981 -2.3004
   62MOL   H14430766   5.280   3.081   5.647  2.4366 -0.0015  1.8587
   62MOL   H14530767   5.088   2.901   5.661 -0.1286  1.8610  0.1739
   62MOL   H14630768   5.226   2.792   5.715  0.6299  0.5141 -0.3223
   62MOL   H14730769   5.264   2.942   5.908  0.7685  0.1860 -1.3236
   62MOL   H14830770   5.111   3.027   5.868 -0.6487 -0.8226  0.0887
   62MOL   H14930771   5.108   2.739   5.938 -0.1033  0.8103  4.7289
   62MOL   H15030772   5.038   2.857   6.037 -0.7894  1.9417 -0.4718
   62MOL   H15130773   4.961   2.828   5.893 -1.0348 -0.3016  0.5630
   62MOL   C15230774   5.645   3.042   5.239 -0.9382 -0.6758 -0.5128
   62MOL   C15330775   5.735   3.140   5.158  0.4807  0.1571  0.1402
   62MOL   O15430776   5.794   3.076   5.046 -0.2684 -0.3334 -0.3100
   62MOL   C15530777   5.918   3.012   5.075  0.3485  0.0768  0.3594
   62MOL   C15630778   5.999   2.984   4.945  0.5413  0.2137 -0.3850
   62MOL   C15730779   6.023   3.114   4.873  0.0168  0.0052 -0.8249
   62MOL   C15830780   6.124   3.119   4.752  0.5606  0.5190 -0.1205
   62MOL   C15930781   6.124   3.253   4.684 -0.1164  0.4632  0.1655
   62MOL   C16030782   5.998   3.276   4.602  0.2498 -0.3323 -0.1411
   62MOL   H16130783   5.706   2.954   5.257  2.3602  1.5338 -0.5615
   62MOL   H16230784   5.556   3.018   5.180 -1.5798  0.6206 -0.0921
   62MOL   H16330785   5.821   3.167   5.220  1.3431 -0.5439 -0.7474
   62MOL   H16430786   5.890   2.924   5.134 -0.8773 -0.5286 -1.0966
   62MOL   H16530787   5.986   3.073   5.135  1.3509 -0.6787 -0.0073
   62MOL   H16630788   5.942   2.925   4.873  3.7765 -1.5583 -1.6165
   62MOL   H16730789   6.089   2.928   4.970 -0.7349  0.5696  5.7457
   62MOL   H16830790   5.923   3.146   4.844  0.0294  0.0948 -0.7670
   62MOL   H16930791   6.047   3.192   4.945 -0.1966  0.0720 -0.8239
   62MOL   H17030792   6.223   3.103   4.796  0.3020 -1.5069 -0.2320
   62MOL   H17130793   6.096   3.045   4.678 -0.2329  0.5462  0.1515
   62MOL   H17230794   6.148   3.339   4.747 -1.2013  2.0187 -1.4996
   62MOL   H17330795   6.208   3.248   4.615  1.0288 -0.8780  1.6374
   62MOL   H17430796   5.912   3.261   4.667  0.2534 -0.1150 -0.0854
   62MOL   H17530797   6.001   3.377   4.561  0.4493 -0.5697 -0.7181
   62MOL   H17630798   5.981   3.210   4.517  1.3630 -1.3272  0.3851
   62MOL   C17730799   5.658   3.265   5.109 -0.2086  0.7847 -0.5952
   62MOL   C17830800   5.765   3.371   5.049 -0.1939 -0.3785 -0.0786
   62MOL   O17930801   5.687   3.474   4.991 -0.3307 -0.3017  0.3828
   62MOL   C18030802   5.655   3.454   4.853  0.9016  0.4722 -0.3024
   62MOL   C18130803   5.522   3.536   4.811 -0.3867  0.4140  0.8008
   62MOL   C18230804   5.475   3.501   4.668 -0.0274 -0.0389 -0.1787
   62MOL   C18330805   5.348   3.572   4.612 -0.5988  0.3423  0.1943
   62MOL   C18430806   5.315   3.513   4.478 -0.0026  0.5215 -0.4752
   62MOL   C18530807   5.171   3.560   4.438 -0.3855 -0.3909 -0.3935
   62MOL   H18630808   5.598   3.225   5.027  1.0603  1.2314 -1.7679
   62MOL   H18730809   5.601   3.322   5.182  3.6693 -0.4671  3.7100
   62MOL   H18830810   5.819   3.314   4.973  0.3287 -1.6186  1.1900
   62MOL   H18930811   5.646   3.349   4.826 -0.9699  0.2149  1.1868
   62MOL   H19030812   5.737   3.481   4.787  2.2249 -3.1669 -0.2738
   62MOL   H19130813   5.529   3.643   4.834  2.0123  0.5158 -0.2282
   62MOL   H19230814   5.438   3.507   4.873 -0.7393  0.4598  0.3487
   62MOL   H19330815   5.560   3.529   4.607 -0.4417 -3.0048 -2.2273
   62MOL   H19430816   5.478   3.392   4.660  0.8586 -0.1703  1.6755
   62MOL   H19530817   5.265   3.553   4.680  0.5200  0.2648  1.5718
   62MOL   H19630818   5.355   3.680   4.598  1.1168  0.5712  2.3817
   62MOL   H19730819   5.398   3.545   4.415  2.1440 -1.0411  1.4953
   62MOL   H19830820   5.324   3.404   4.487 -0.8862  0.3727 -1.3197
   62MOL   H19930821   5.134   3.514   4.346 -0.6659  1.7529 -1.3742
   62MOL   H20030822   5.092   3.538   4.510 -0.1090  2.0403  0.6973
   62MOL   H20130823   5.178   3.667   4.421  1.3045 -0.4547 -0.2708
   62MOL   C20230824   5.857   3.436   5.152 -0.1757  0.6777  0.4328
   62MOL   C20330825   5.969   3.517   5.080 -0.5393 -1.0983  0.5387
   62MOL   O20430826   6.094   3.488   5.144  0.4027  0.0239  0.4728
   62MOL   C20530827   6.165   3.372   5.107 -0.8883  0.0791  0.0398
   62MOL   C20630828   6.305   3.373   5.167 -0.6301  0.4315 -0.7622
   62MOL   C20730829   6.372   3.510   5.151 -0.2269  0.0393 -1.2682
   62MOL   C20830830   6.519   3.518   5.198  0.3612  0.1923  0.6146
   62MOL   C20930831   6.578   3.664   5.189 -0.2837  0.1089  0.1177
   62MOL   C21030832   6.719   3.679   5.245 -0.9153 -0.5149 -0.3254
   62MOL   H21130833   5.799   3.498   5.220 -1.5433  1.4020 -1.3381
   62MOL   H21230834   5.910   3.361   5.210 -0.1654 -0.0788 -0.5490
   62MOL   H21330835   5.979   3.488   4.975  1.9333  0.0301  0.4221
   62MOL   H21430836   6.164   3.377   4.999  1.9148  1.6374  0.0157
   62MOL   H21530837   6.115   3.277   5.121  2.0701 -1.5067  0.2252
   62MOL   H21630838   6.363   3.299   5.111 -0.7556  0.3627 -0.8032
   62MOL   H21730839   6.293   3.360   5.274 -1.2189  0.4942 -0.8203
   62MOL   H21830840   6.376   3.553   5.051 -3.3317  3.3945 -0.0442
   62MOL   H21930841   6.310   3.578   5.210 -0.5651 -1.9095  0.7022
   62MOL   H22030842   6.524   3.488   5.303 -2.0970 -0.0271  0.6958
   62MOL   H22130843   6.579   3.444   5.146 -0.9100 -0.6514  0.3114
   62MOL   H22230844   6.571   3.701   5.087 -0.9025  0.2302  0.2021
   62MOL   H22330845   6.521   3.731   5.254 -0.7184 -1.0191  0.9166
   62MOL   H22430846   6.718   3.725   5.344  1.9001 -0.3180 -0.3608
   62MOL   H22530847   6.777   3.587   5.257  1.5356  0.9923 -0.3834
   62MOL   H22630848   6.780   3.751   5.191  0.8422 -0.2964  1.9118
   62MOL   C22730849   5.943   3.671   5.082  0.2728 -0.0969 -0.1435
   62MOL   C22830850   6.036   3.751   4.990 -0.2576  0.5348  0.0323
   62MOL   O22930851   6.010   3.708   4.856  0.0178  0.5440 -0.0114
   62MOL   C23030852   6.112   3.732   4.762  0.2366  0.5501  0.1863
   62MOL   C23130853   6.095   3.637   4.638  0.0313  0.7588 -0.4713
   62MOL   C23230854   6.192   3.668   4.527 -0.8569  0.3605 -0.0076
   62MOL   C23330855   6.178   3.592   4.396 -0.8901 -0.0081 -0.1272
   62MOL   C23430856   6.304   3.612   4.313 -0.0754  0.3751  0.0746
   62MOL   C23530857   6.258   3.573   4.169  0.2692 -0.1143  0.3526
   62MOL   H23630858   5.841   3.691   5.049 -0.3052 -0.5846  1.2942
   62MOL   H23730859   5.961   3.713   5.181  1.0642  1.5423 -0.9639
   62MOL   H23830860   6.132   3.716   5.025 -1.2788 -0.6390  1.7170
   62MOL   H23930861   6.204   3.705   4.814  0.9638  1.9000 -0.3625
   62MOL   H24030862   6.118   3.834   4.724 -1.9543  0.6343  0.0494
   62MOL   H24130863   5.992   3.634   4.603  0.0936 -2.2381 -0.5155
   62MOL   H24230864   6.125   3.539   4.675  1.5195  0.8868 -1.2991
   62MOL   H24330865   6.191   3.774   4.505 -1.5976  0.5196  0.7967
   62MOL   H24430866   6.288   3.647   4.574 -0.8876 -0.0049 -0.1066
   62MOL   H24530867   6.153   3.489   4.421 -1.3745  0.3550  0.9402
   62MOL   H24630868   6.092   3.634   4.345 -0.3472  0.0575 -0.9900
   62MOL   H24730869   6.331   3.717   4.305  0.6479  0.0074 -2.6356
   62MOL   H24830870   6.386   3.555   4.356  1.7039  3.0316  0.3091
   62MOL   H24930871   6.241   3.467   4.149 -2.6503 -0.3181  3.5909
   62MOL   H25030872   6.162   3.620   4.150 -0.5031 -2.0680 -0.6702
   62MOL   H25130873   6.326   3.599   4.087  1.2767 -2.1942  0.4952
   62MOL   C25230874   6.040   3.904   5.014 -0.0801 -1.0148 -0.8257
   62MOL   C25330875   6.081   3.959   5.150  0.1790 -0.1499  0.6007
   62MOL   O25430876   6.053   4.098   5.145 -0.3338 -0.3649 -0.6670
   62MOL   C25530877   6.051   4.172   5.260  0.0135 -0.0434 -0.5201
   62MOL   C25630878   6.025   4.312   5.217  0.0229 -0.4800  0.4054
   62MOL   C25730879   5.902   4.318   5.129  0.0042  0.2187 -0.2110
   62MOL   C25830880   5.764   4.336   5.190  0.2187  0.6857  0.1886
   62MOL   C25930881   5.663   4.281   5.092 -0.2941 -0.7802  0.2133
   62MOL   C26030882   5.519   4.285   5.147  0.1992  0.3327  0.4012
   62MOL   H26130883   6.110   3.956   4.948 -0.4936  0.4638 -0.1280
   62MOL   H26230884   5.941   3.942   4.991 -0.4127 -0.5626  1.2612
   62MOL   H26330885   6.008   3.922   5.222  1.6764 -2.6791  0.8924
   62MOL   H26430886   6.143   4.162   5.316 -1.2068  0.3131  1.6178
   62MOL   H26530887   5.976   4.131   5.328 -0.2099 -0.3992 -0.9795
   62MOL   H26630888   6.111   4.351   5.163 -1.4939  0.8640 -1.0935
   62MOL   H26730889   6.010   4.376   5.304 -1.5506 -0.5028  0.1610
   62MOL   H26830890   5.904   4.411   5.073 -0.6848  1.6878  2.1186
   62MOL   H26930891   5.914   4.243   5.052  2.7226  0.0258  0.3590
   62MOL   H27030892   5.752   4.282   5.283  0.4963  0.0657 -0.1256
   62MOL   H27130893   5.749   4.441   5.213 -0.5650  1.0833 -1.9842
   62MOL   H27230894   5.669   4.344   5.003 -0.6273  1.2430  1.5733
   62MOL   H27330895   5.672   4.177   5.061 -0.8017 -0.5367 -0.7915
   62MOL   H27430896   5.450   4.248   5.071  0.8994  0.4078 -0.2822
   62MOL   H27530897   5.513   4.217   5.231  0.9951 -0.4881 -0.2027
   62MOL   H27630898   5.489   4.389   5.164 -0.8682  0.1948 -0.5947
   62MOL   C27730899   6.225   3.913   5.195 -0.6922 -0.5259  0.1608
   62MOL   C27830900   6.349   3.987   5.138 -0.4676  0.7412  0.7377
   62MOL   O27930901   6.459   3.951   5.229 -0.2215  0.2713 -0.0800
   62MOL   C28030902   6.472   4.048   5.330 -0.3879  0.3107 -0.5738
   62MOL   C28130903   6.570   3.991   5.425  0.2536 -0.5008  0.0935
   62MOL   C28230904   6.623   4.082   5.535  0.4819  0.2119 -0.1678
   62MOL   C28330905   6.751   4.044   5.585 -1.0097 -0.3586 -0.2957
   62MOL   C28430906   6.809   4.133   5.696  0.1476  0.2570  0.0592
   62MOL   C28530907   6.925   4.070   5.771  0.8799 -0.1009  0.4070
   62MOL   H28630908   6.233   3.933   5.302  3.7426  0.8386 -0.3328
   62MOL   H28730909   6.245   3.806   5.182 -0.5424 -0.2966 -1.5092
   62MOL   H28830910   6.326   4.093   5.130  1.4891  1.1080 -0.3536
   62MOL   H28930911   6.377   4.074   5.378 -1.0683 -1.1106 -1.1281
   62MOL   H29030912   6.501   4.141   5.282 -0.2256  1.1202  1.0678
   62MOL   H29130913   6.652   3.951   5.365 -0.2385 -0.1626 -0.8186
   62MOL   H29230914   6.524   3.900   5.464  1.4920 -1.3040 -0.2687
   62MOL   H29330915   6.626   4.180   5.488 -1.3205  0.2503 -0.2414
   62MOL   H29430916   6.544   4.096   5.609 -1.0047  1.6549 -1.9632
   62MOL   H29530917   6.749   3.941   5.621  0.8230 -1.1407 -2.2845
   62MOL   H29630918   6.817   4.047   5.498 -0.9134  1.4466 -0.1763
   62MOL   H29730919   6.839   4.233   5.662 -2.2910  1.0675  0.1674
   62MOL   H29830920   6.728   4.155   5.765 -0.2269  1.4037 -0.7124
   62MOL   H29930921   6.886   3.977   5.813 -1.3609  0.1549 -1.0313
   62MOL   H30030922   7.017   4.052   5.716  0.4861  0.0755 -0.3080
   62MOL   H30130923   6.963   4.127   5.856  0.4246 -1.2144  1.3851
   62MOL   C30230924   6.388   3.937   5.000  0.9668  0.1046  0.1628
   62MOL   C30330925   6.507   4.012   4.932  0.1704  0.0829  0.6590
   62MOL   O30430926   6.496   3.985   4.801 -0.0246 -0.0957 -0.1374
   62MOL   C30530927   6.461   4.091   4.719  0.2815 -0.5570  0.6987
   62MOL   C30630928   6.471   4.038   4.574 -0.0210  0.1162 -0.0372
   62MOL   C30730929   6.432   4.139   4.473 -0.5583 -0.0694 -0.4028
   62MOL   C30830930   6.496   4.112   4.331 -0.4445 -0.0384  0.2832
   62MOL   C30930931   6.467   3.961   4.300  0.4841  0.1549 -0.4029
   62MOL   C31030932   6.538   3.907   4.176 -0.4828 -0.0638  0.1419
   62MOL   H31130933   6.418   3.833   5.012  0.1400  0.0053  1.4538
   62MOL   H31230934   6.311   3.950   4.924 -0.2030  1.7360  1.5874
   62MOL   H31330935   6.507   4.117   4.962  1.3296  0.1221  0.5307
   62MOL   H31430936   6.520   4.182   4.733 -0.3870  0.0933 -0.6020
   62MOL   H31530937   6.361   4.122   4.748  0.2696  1.7217 -1.6181
   62MOL   H31630938   6.398   3.957   4.573 -0.8673  0.8770 -1.0192
   62MOL   H31730939   6.574   4.002   4.564  0.6675  1.9336  0.2820
   62MOL   H31830940   6.326   4.136   4.450 -0.3604 -2.3157 -1.1530
   62MOL   H31930941   6.462   4.240   4.500  1.1662 -1.1521  1.9750
   62MOL   H32030942   6.457   4.182   4.257 -0.0900  1.2934  1.3266
   62MOL   H32130943   6.605   4.121   4.340 -0.3848  0.0725 -0.4531
   62MOL   H32230944   6.496   3.890   4.377 -0.9906 -1.3797 -1.2223
   62MOL   H32330945   6.361   3.951   4.281  0.3208  0.2219  0.4724
   62MOL   H32430946   6.640   3.876   4.199 -0.1207  0.4612 -0.7362
   62MOL   H32530947   6.487   3.811   4.170 -2.4215  0.9285  0.2910
   62MOL   H32630948   6.530   3.955   4.079 -3.2535 -0.1224  0.3008
   62MOL   C32730949   6.644   3.953   4.983 -0.3206 -0.5133 -0.1023
   62MOL   C32830950   6.756   4.058   4.975 -0.5743 -0.8348 -0.0669
   62MOL   O32930951   6.767   4.125   4.850  0.0839  0.6576 -0.1237
   62MOL   C33030952   6.886   4.099   4.782  0.0642 -0.0054 -0.1073
   62MOL   C33130953   6.880   4.145   4.637 -0.5206  0.5780 -0.3252
   62MOL   C33230954   6.856   4.298   4.627 -0.7162  0.5303 -0.9064
   62MOL   C33330955   6.847   4.353   4.481 -0.6255  0.9603  0.3370
   62MOL   C33430956   6.815   4.507   4.470  0.7095  0.8960 -1.1528
   62MOL   C33530957   6.677   4.529   4.534 -0.2160 -0.2109  0.2322
   62MOL   H33630958   6.677   3.868   4.923 -0.5148  0.3388 -1.4285
   62MOL   H33730959   6.642   3.919   5.086  0.7119 -0.7917 -0.1684
   62MOL   H33830960   6.842   3.997   5.002 -0.3364  0.5337  2.3834
   62MOL   H33930961   6.921   3.998   4.799 -0.0972 -0.4590 -2.3110
   62MOL   H34030962   6.961   4.154   4.839  0.2885  0.6859 -1.0437
   62MOL   H34130963   6.813   4.079   4.582 -0.6041 -0.1101  0.5988
   62MOL   H34230964   6.986   4.141   4.612 -0.1624  0.4698  1.1633
   62MOL   H34330965   6.762   4.302   4.681  0.1891 -1.5912  0.9212
   62MOL   H34430966   6.932   4.343   4.691  1.6292 -2.0710 -1.7647
   62MOL   H34530967   6.939   4.334   4.427 -0.0181 -1.5281  2.1291
   62MOL   H34630968   6.774   4.289   4.431  0.9345 -0.6759  0.1348
   62MOL   H34730969   6.895   4.570   4.509  0.5319 -0.1033  0.8963
   62MOL   H34830970   6.811   4.528   4.364  0.1241  1.6878 -0.9807
   62MOL   H34930971   6.694   4.512   4.640  0.0071 -0.1385  0.2073
   62MOL   H35030972   6.641   4.631   4.522  0.0089 -0.1685 -0.0786
   62MOL   H35130973   6.612   4.448   4.500 -0.7264  1.7391 -3.7814
   62MOL   C35230974   6.744   4.168   5.085  0.0395 -0.8305  0.2391
   62MOL   C35330975   6.879   4.204   5.152  0.5607 -0.5418  0.0448
   62MOL   O35430976   6.922   4.088   5.215  0.6459 -0.1373 -0.1666
   62MOL   C35530977   7.073   4.081   5.210  0.1538 -0.3738  0.1092
   62MOL   C35630978   7.107   3.936   5.239 -0.6819  0.0416 -0.1779
   62MOL   C35730979   7.049   3.874   5.369  0.1912 -0.4032  0.5152
   62MOL   C35830980   7.101   3.730   5.403  0.5808  0.2067 -0.1380
   62MOL   C35930981   7.077   3.707   5.552 -0.2850  0.6484 -0.4288
   62MOL   C36030982   6.934   3.656   5.589  0.4852 -0.5498 -0.1480
   62MOL   H36130983   6.691   4.254   5.044 -1.8619 -1.4895  1.2422
   62MOL   H36230984   6.674   4.139   5.164 -0.7237 -0.5132 -0.3119
   62MOL   H36330985   6.942   4.234   5.069  0.5338 -3.1918 -0.9638
   62MOL   H36430986   7.111   4.143   5.291  1.2834 -1.4896  0.4415
   62MOL   H36530987   7.116   4.098   5.111  1.0054  1.0572  0.7005
   62MOL   H36630988   7.216   3.935   5.242 -0.4979  1.0003 -3.8073
   62MOL   H36730989   7.075   3.876   5.154  0.9217 -0.2147 -0.6101
   62MOL   H36830990   7.082   3.945   5.445  0.6100  1.2186 -1.1551
   62MOL   H36930991   6.940   3.882   5.371  0.2664  0.8459 -0.3083
   62MOL   H37030992   7.035   3.664   5.347  0.1376  1.2637 -0.8670
   62MOL   H37130993   7.201   3.701   5.369  0.6994  1.5315 -0.9280
   62MOL   H37230994   7.145   3.628   5.584 -2.0982 -0.2982  1.2041
   62MOL   H37330995   7.101   3.788   5.621 -3.0137 -0.8172  2.3869
   62MOL   H37430996   6.888   3.590   5.516 -0.3179  3.3125 -3.2912
   62MOL   H37530997   6.943   3.609   5.687 -1.2801  1.9478  1.2710
   62MOL   H37630998   6.858   3.733   5.603  2.1814  1.3793 -1.2168
   62MOL   C37730999   6.864   4.310   5.264 -0.6453 -0.3251 -0.5265
   62MOL   C37831000   6.812   4.450   5.216 -0.1785  0.9207  0.1117
   62MOL   O37931001   6.898   4.501   5.112 -0.4174  0.1676 -0.1566
   62MOL   C38031002   6.819   4.556   5.001 -0.3326  0.1110  0.5258
   62MOL   C38131003   6.910   4.576   4.879 -0.8571 -0.9159  0.1954
   62MOL   C38231004   6.995   4.705   4.898 -0.4004  0.5294 -0.0073
   62MOL   C38331005   7.074   4.735   4.771 -0.7412  0.0904  0.5510
   62MOL   C38431006   7.187   4.841   4.799  0.1832 -0.2983 -0.1643
   62MOL   C38531007   7.253   4.861   4.668 -0.4869 -0.6020 -0.2586
   62MOL   H38631008   6.800   4.269   5.342  0.4663 -2.8819 -0.8925
   62MOL   H38731009   6.962   4.318   5.312 -0.2839 -0.2296 -1.2676
   62MOL   H38831010   6.710   4.455   5.181 -0.4130 -2.5514  0.0717
   62MOL   H38931011   6.767   4.645   5.035 -2.8845 -0.3053 -2.1087
   62MOL   H39031012   6.744   4.483   4.973  0.9090 -1.1125  0.3085
   62MOL   H39131013   6.848   4.581   4.790  2.2669 -0.7262 -2.0237
   62MOL   H39231014   6.965   4.484   4.862 -0.0011 -0.3892  0.0674
   62MOL   H39331015   6.947   4.797   4.930  0.3380  1.0280 -0.3216
   62MOL   H39431016   7.064   4.694   4.981 -1.0106 -0.2782  0.3973
   62MOL   H39531017   7.114   4.638   4.744  0.1848  0.4311  0.6413
   62MOL   H39631018   7.009   4.768   4.691  0.3981 -0.1001 -0.4624
   62MOL   H39731019   7.134   4.934   4.817  0.2264 -0.2933 -0.0700
   62MOL   H39831020   7.257   4.815   4.878 -0.5562  0.1215  0.6379
   62MOL   H39931021   7.308   4.955   4.666 -1.2789 -0.1651 -2.4454
   62MOL   H40031022   7.328   4.782   4.668 -1.0543 -1.1587 -1.7151
   62MOL   H40131023   7.188   4.859   4.581 -0.0868 -1.0936 -0.5427
   62MOL   C40231024   6.820   4.550   5.339 -0.1052  0.1348  0.7183
   62MOL   C40331025   6.700   4.538   5.439 -0.0665 -0.2365 -0.1508
   62MOL   O40431026   6.583   4.546   5.362  0.6007 -0.2748 -0.0750
   62MOL   C40531027   6.505   4.427   5.344 -0.5498 -0.7137 -0.0680
   62MOL   C40631028   6.395   4.450   5.241 -0.1729  0.7604 -0.2976
   62MOL   C40731029   6.450   4.480   5.104 -0.1178 -0.3434  0.0557
   62MOL   C40831030   6.334   4.487   5.004  0.7720 -0.0707  0.2515
   62MOL   C40931031   6.376   4.552   4.871  0.3752 -0.4131 -0.2595
   62MOL   C41031032   6.251   4.562   4.780 -0.5373 -0.2776 -0.2270
   62MOL   H41131033   6.820   4.651   5.298  0.9969  0.1572  0.7558
   62MOL   H41231034   6.915   4.524   5.386  0.6697 -1.2504 -1.5276
   62MOL   H41331035   6.701   4.447   5.498  0.4804  0.0650  0.3027
   62MOL   H41431036   6.477   4.391   5.443  1.8213 -0.7742  0.6085
   62MOL   H41531037   6.565   4.344   5.307  0.2968 -0.6659  1.1607
   62MOL   H41631038   6.325   4.529   5.269  0.7815  0.7249  2.3334
   62MOL   H41731039   6.339   4.358   5.228 -0.3538  0.9597 -0.9130
   62MOL   H41831040   6.500   4.576   5.110  0.0106 -0.5102  1.8969
   62MOL   H41931041   6.508   4.397   5.062 -1.0415 -0.8466 -0.2555
   62MOL   H42031042   6.284   4.393   4.981  0.7259 -0.2267  0.9651
   62MOL   H42131043   6.250   4.549   5.036 -0.0046 -0.5783 -0.7747
   62MOL   H42231044   6.401   4.657   4.888  0.9921 -0.5246 -0.4532
   62MOL   H42331045   6.459   4.502   4.821  0.3980 -1.4465  0.7793
   62MOL   H42431046   6.189   4.646   4.813 -1.0055 -0.5679 -0.3608
   62MOL   H42531047   6.281   4.587   4.678  1.5092 -2.9199 -0.3354
   62MOL   H42631048   6.195   4.469   4.766  0.7467 -1.0463 -0.2737
   62MOL   C42731049   6.705   4.649   5.545  0.4825 -0.0424 -0.1851
   62MOL   C42831050   6.583   4.656   5.639  0.7705 -0.1578  0.2507
   62MOL   O42931051   6.624   4.624   5.767 -0.4035  0.2490  0.9884
   62MOL   C43031052   6.531   4.561   5.852  0.5404  0.1549 -0.5460
   62MOL   C43131053   6.546   4.409   5.850 -0.3362 -0.1848 -0.3047
   62MOL   C43231054   6.429   4.335   5.906 -0.4553 -0.2814  0.3103
   62MOL   C43331055   6.431   4.182   5.878 -0.2921 -0.0726 -0.4817
   62MOL   C43431056   6.329   4.096   5.962  0.7317 -0.2632  0.1720
   62MOL   C43531057   6.337   3.948   5.934  0.2340 -0.0846 -0.0979
   62MOL   H43631058   6.792   4.640   5.610 -0.1082  1.7811  0.9254
   62MOL   H43731059   6.719   4.744   5.494  0.1139  1.5290  2.5363
   62MOL   H43831060   6.512   4.581   5.603 -1.9224  0.0760  4.6941
   62MOL   H43931061   6.432   4.599   5.825  0.2633 -0.5143 -0.4550
   62MOL   H44031062   6.545   4.584   5.957 -0.0991 -3.7128  0.4309
   62MOL   H44131063   6.639   4.382   5.898  0.4875  1.4506 -0.9257
   62MOL   H44231064   6.553   4.365   5.750 -0.4471  2.9709 -1.7953
   62MOL   H44331065   6.427   4.353   6.014 -1.6652 -1.3401  0.4755
   62MOL   H44431066   6.332   4.374   5.877 -0.4174 -0.8064 -0.5414
   62MOL   H44531067   6.409   4.160   5.774 -2.3605 -0.9387  0.1049
   62MOL   H44631068   6.528   4.131   5.876  0.7560  1.9110 -0.7893
   62MOL   H44731069   6.343   4.117   6.068  0.1262  0.9743  0.0156
   62MOL   H44831070   6.227   4.129   5.943  1.5784  3.5311  1.6293
   62MOL   H44931071   6.271   3.887   5.997 -2.0553  1.1142 -1.2785
   62MOL   H45031072   6.318   3.929   5.829 -0.8748 -2.5111  0.5029
   62MOL   H45131073   6.441   3.916   5.944  0.0282 -1.0788 -1.0866
   62MOL   C45231074   6.508   4.791   5.651  0.1122  0.4405 -0.3078
   62MOL   C45331075   6.442   4.858   5.528  0.2770 -0.0227  0.1573
   62MOL   O45431076   6.423   5.001   5.531  0.4345  0.1419  0.1711
   62MOL   C45531077   6.532   5.089   5.524  0.8469 -0.4966 -0.3588
   62MOL   C45631078   6.503   5.230   5.571  0.2071  0.3817  1.1995
   62MOL   C45731079   6.467   5.245   5.724  0.0718 -0.3436 -0.0040
   62MOL   C45831080   6.459   5.398   5.754 -0.0089  0.4625 -0.7601
   62MOL   C45931081   6.405   5.433   5.890  0.0560  0.0250  0.3617
   62MOL   C46031082   6.418   5.585   5.917 -0.6010 -0.3604  0.0483
   62MOL   H46131083   6.433   4.796   5.730  0.7094  0.7498  0.2409
   62MOL   H46231084   6.582   4.854   5.699  0.0458 -0.8286  1.4704
   62MOL   H46331085   6.485   4.831   5.432  0.5157  0.3540  0.1598
   62MOL   H46431086   6.581   5.080   5.427  1.0606 -1.8743 -0.1324
   62MOL   H46531087   6.606   5.059   5.599 -0.3060  0.2288  1.0944
   62MOL   H46631088   6.423   5.269   5.508 -1.2058 -1.2406  1.9466
   62MOL   H46731089   6.595   5.284   5.549  1.6331 -2.3327  0.3311
   62MOL   H46831090   6.375   5.189   5.740  0.3599 -0.9822 -0.5710
   62MOL   H46931091   6.539   5.194   5.787  1.2983  1.2352 -0.1107
   62MOL   H47031092   6.559   5.442   5.748 -1.3996  3.6298 -1.9172
   62MOL   H47131093   6.401   5.448   5.676 -1.8944 -0.8525 -0.2190
   62MOL   H47231094   6.304   5.403   5.917  0.9782 -2.2201  1.5061
   62MOL   H47331095   6.455   5.383   5.973 -0.8331 -1.4000  0.0648
   62MOL   H47431096   6.526   5.598   5.924 -0.4773 -1.6874  1.0014
   62MOL   H47531097   6.381   5.641   5.832 -0.8123  0.6139  0.7826
   62MOL   H47631098   6.365   5.620   6.006  0.9563  1.7040  0.1958
   62MOL   C47731099   6.297   4.801   5.527 -0.1936 -0.1333  0.1517
   62MOL   C47831100   6.230   4.839   5.392 -0.3962  0.2353  0.6015
   62MOL   O47931101   6.094   4.790   5.389 -0.9109  0.4134  0.8329
   62MOL   C48031102   6.044   4.768   5.258 -0.1451  0.1534 -0.4101
   62MOL   C48131103   5.890   4.777   5.248  0.0418  0.4364 -0.1468
   62MOL   C48231104   5.818   4.683   5.347  0.9533  0.3665  0.5927
   62MOL   C48331105   5.667   4.679   5.346  0.9670  0.4707 -0.5869
   62MOL   C48431106   5.605   4.796   5.412  0.5951 -0.0444  0.3280
   62MOL   C48531107   5.449   4.794   5.418 -0.1797 -1.2473  0.3541
   62MOL   H48631108   6.290   4.692   5.527  1.7652 -0.2954  3.1288
   62MOL   H48731109   6.232   4.833   5.609 -0.6958  0.0076 -0.2962
   62MOL   H48831110   6.219   4.946   5.376 -1.0773  0.0203 -0.4703
   62MOL   H48931111   6.090   4.675   5.225 -0.5434  0.6553 -2.4645
   62MOL   H49031112   6.083   4.839   5.185 -1.2065 -0.1063 -1.2444
   62MOL   H49131113   5.856   4.769   5.145 -0.0918  1.5526 -0.2021
   62MOL   H49231114   5.862   4.881   5.267 -0.6910  0.0815  0.7314
   62MOL   H49331115   5.859   4.583   5.335 -1.8385 -0.7436 -0.1899
   62MOL   H49431116   5.845   4.720   5.446 -0.3783  0.9551  0.7399
   62MOL   H49531117   5.629   4.677   5.244 -2.9944 -1.5163  0.8061
   62MOL   H49631118   5.621   4.594   5.395  0.6821  1.4193  0.8335
   62MOL   H49731119   5.648   4.806   5.512 -0.4766  1.4178  0.6571
   62MOL   H49831120   5.640   4.885   5.361 -1.1313  1.3505  1.5232
   62MOL   H49931121   5.418   4.790   5.313  1.6540  2.1743 -0.4069
   62MOL   H50031122   5.398   4.712   5.468 -0.4969 -0.3616  1.5014
   62MOL   H50131123   5.403   4.885   5.457 -0.0513 -0.9119 -0.2657
   62MOL   H50231124   6.280   4.784   5.313 -1.1568 -1.7155  1.4454
   63MOL     C131125   5.118   1.019   3.056 -0.0789  0.0961  0.0401
   63MOL     C231126   5.090   1.114   2.933 -0.7003 -0.7166 -0.0242
   63MOL     O331127   4.952   1.149   2.937  0.4955  1.1209  0.1008
   63MOL     C431128   4.936   1.260   3.023  0.7127  0.2127  0.6408
   63MOL     C531129   4.792   1.302   3.026  0.1388  1.1914 -0.2703
   63MOL     C631130   4.776   1.435   3.103  0.1354  0.1099 -0.4339
   63MOL     C731131   4.630   1.478   3.118 -0.6480 -0.0524 -0.2361
   63MOL     C831132   4.555   1.395   3.231 -0.3696  0.5142  0.3040
   63MOL     C931133   4.410   1.450   3.258 -0.7580  0.0218 -0.2987
   63MOL    H1031134   5.108   1.069   3.152 -4.1171  1.7886 -1.1212
   63MOL    H1131135   5.045   0.938   3.064 -0.0317  0.1793  1.3078
   63MOL    H1231136   5.159   1.197   2.919 -0.8129 -0.5195  0.5757
   63MOL    H1331137   4.983   1.341   2.968 -1.5133  0.8329 -0.4347
   63MOL    H1431138   4.981   1.246   3.121 -0.0845 -2.3764  0.6887
   63MOL    H1531139   4.738   1.221   3.077 -1.4848  0.9334 -2.3212
   63MOL    H1631140   4.769   1.313   2.921 -1.0953 -0.2761 -0.1777
   63MOL    H1731141   4.818   1.423   3.203  0.3589  0.0515 -0.5340
   63MOL    H1831142   4.816   1.521   3.049  1.1614 -0.6998 -0.9763
   63MOL    H1931143   4.640   1.583   3.145 -0.3159  0.0403 -0.7094
   63MOL    H2031144   4.568   1.487   3.029  0.7575  0.7930 -1.1506
   63MOL    H2131145   4.605   1.386   3.328  0.3489 -1.1193 -0.1988
   63MOL    H2231146   4.546   1.298   3.182 -0.2719  0.8022 -0.2915
   63MOL    H2331147   4.374   1.394   3.345  1.2761 -0.5150  0.2433
   63MOL    H2431148   4.414   1.558   3.267  0.3525  0.1988 -2.4954
   63MOL    H2531149   4.342   1.428   3.176 -1.3381  3.4430 -0.8022
   63MOL    H2631150   5.213   0.967   3.049  0.3571  0.4285  3.0490
   63MOL    C2731151   5.118   1.050   2.795  0.1004  0.2841 -0.6251
   63MOL    C2831152   5.094   1.148   2.680 -0.3932 -0.4024 -0.0490
   63MOL    O2931153   5.163   1.268   2.712  0.0118 -0.5550  0.2920
   63MOL    C3031154   5.093   1.381   2.674  0.2370  0.4108 -0.0395
   63MOL    C3131155   5.171   1.501   2.728 -0.2979 -0.5443 -0.0008
   63MOL    C3231156   5.307   1.520   2.657 -0.5839 -0.7462  0.1478
   63MOL    C3331157   5.403   1.621   2.710 -0.3742 -0.3671  1.4605
   63MOL    C3431158   5.355   1.768   2.677  1.5284  0.0312 -0.3855
   63MOL    C3531159   5.402   1.814   2.544 -0.3927 -0.1292 -0.1296
   63MOL    H3631160   5.224   1.026   2.787  0.0262 -0.3415  0.2424
   63MOL    H3731161   5.063   0.957   2.783  1.5431 -0.5405 -0.9452
   63MOL    H3831162   4.987   1.159   2.669 -0.6048 -0.9772  1.3042
   63MOL    H3931163   4.994   1.378   2.721 -0.2561 -1.5911 -1.1400
   63MOL    H4031164   5.079   1.372   2.566  0.7192 -0.6490 -0.0234
   63MOL    H4131165   5.165   1.501   2.837  0.7012 -0.8248  0.0515
   63MOL    H4231166   5.113   1.588   2.698  1.0071  0.6367  0.8778
   63MOL    H4331167   5.360   1.424   2.657  1.6576  0.4478  0.8007
   63MOL    H4431168   5.281   1.543   2.554 -1.7004  2.3784  1.0636
   63MOL    H4531169   5.391   1.611   2.818 -1.5442  0.5069  1.4158
   63MOL    H4631170   5.501   1.597   2.669 -1.4132 -1.3652 -0.5323
   63MOL    H4731171   5.246   1.774   2.679  1.5241  1.5563 -2.9707
   63MOL    H4831172   5.389   1.828   2.761  0.0430 -1.0068  1.0051
   63MOL    H4931173   5.508   1.789   2.544 -0.6009 -1.0372 -1.2383
   63MOL    H5031174   5.356   1.770   2.455 -1.3562 -0.1974  0.3946
   63MOL    H5131175   5.405   1.922   2.534 -0.4135 -0.2047 -0.9469
   63MOL    C5231176   5.154   1.096   2.546  0.3460 -0.4161  0.0714
   63MOL    C5331177   5.068   0.981   2.475  0.8830 -0.3904 -0.8932
   63MOL    O5431178   5.074   0.847   2.544  0.4377  0.1127 -0.5750
   63MOL    C5531179   5.199   0.781   2.543 -0.5086  0.6838 -1.0810
   63MOL    C5631180   5.165   0.647   2.602 -0.2471  0.5553 -0.0021
   63MOL    C5731181   5.107   0.650   2.744  0.6238 -0.4283  0.3135
   63MOL    C5831182   5.067   0.512   2.811 -0.4117  0.0980 -0.1640
   63MOL    C5931183   5.013   0.522   2.949  0.2149  0.6368 -0.5766
   63MOL    C6031184   4.979   0.378   3.007 -0.0413 -0.6538  0.1869
   63MOL    H6131185   5.256   1.067   2.569 -0.3872 -2.7539  0.5509
   63MOL    H6231186   5.147   1.178   2.475 -2.1111  0.4251  1.2130
   63MOL    H6331187   5.106   0.968   2.374  1.2225  0.9187 -0.9341
   63MOL    H6431188   5.276   0.816   2.612 -0.6479 -1.8511  0.4235
   63MOL    H6531189   5.233   0.777   2.440 -2.2749  1.7595 -1.7197
   63MOL    H6631190   5.248   0.576   2.605 -1.1537 -0.5922 -1.5612
   63MOL    H6731191   5.090   0.600   2.539 -0.5951  1.2164 -0.0851
   63MOL    H6831192   5.179   0.711   2.798  0.2395 -0.4445  0.8465
   63MOL    H6931193   5.027   0.723   2.749 -1.1286 -2.1899 -1.2031
   63MOL    H7031194   4.989   0.475   2.744 -0.1040 -0.4276 -0.2258
   63MOL    H7131195   5.143   0.435   2.803  0.2924  0.7657  0.0049
   63MOL    H7231196   5.092   0.576   3.000 -0.7138  1.1013  0.3851
   63MOL    H7331197   4.929   0.590   2.940 -0.4783 -0.1525 -0.2056
   63MOL    H7431198   4.921   0.391   3.098  0.2191  2.6350 -0.0625
   63MOL    H7531199   4.931   0.305   2.942  0.7494 -0.2200 -0.9017
   63MOL    H7631200   5.076   0.337   3.035  0.9507  2.2308  1.0986
   63MOL    C7731201   4.918   1.024   2.457  0.0560  0.2316 -0.3557
   63MOL    C7831202   4.855   0.967   2.332  0.1657  0.0165  0.0228
   63MOL    O7931203   4.879   0.824   2.311  0.0988  0.2809 -0.0068
   63MOL    C8031204   4.830   0.726   2.400 -0.5700 -0.0871 -0.0888
   63MOL    C8131205   4.682   0.712   2.379  0.5715  0.4074  0.0660
   63MOL    C8231206   4.643   0.663   2.239  0.3759 -0.6748  0.2430
   63MOL    C8331207   4.495   0.621   2.249  0.7394 -0.2803 -0.3815
   63MOL    C8431208   4.449   0.525   2.135  0.0323 -0.7075 -0.1328
   63MOL    C8531209   4.311   0.460   2.157 -0.0055  0.1547  0.4397
   63MOL    H8631210   4.914   1.132   2.461 -1.9945  0.1411  1.0700
   63MOL    H8731211   4.854   0.982   2.536 -1.8395  1.1364 -1.3891
   63MOL    H8831212   4.749   0.988   2.346 -0.1954  0.7645 -3.3683
   63MOL    H8931213   4.849   0.758   2.502  2.0827 -2.4477  0.2283
   63MOL    H9031214   4.890   0.635   2.393  0.0694  0.0732  2.6432
   63MOL    H9131215   4.643   0.812   2.400 -0.6591 -0.2700  1.0871
   63MOL    H9231216   4.649   0.639   2.453 -1.1498  0.7059 -0.3725
   63MOL    H9331217   4.643   0.747   2.169  0.2270 -0.6344  0.2919
   63MOL    H9431218   4.707   0.587   2.194 -2.1057 -1.6150 -1.8309
   63MOL    H9531219   4.479   0.565   2.341  1.4375  1.7741  1.0223
   63MOL    H9631220   4.430   0.709   2.253 -0.6880 -1.3220 -0.2411
   63MOL    H9731221   4.446   0.579   2.040 -0.7390 -1.1647 -0.3693
   63MOL    H9831222   4.517   0.442   2.119 -1.1465 -2.4583  3.4902
   63MOL    H9931223   4.283   0.411   2.064  0.9967  0.7731 -0.1912
   63MOL   H10031224   4.323   0.382   2.232 -0.1712 -0.6052 -0.3146
   63MOL   H10131225   4.239   0.533   2.194 -0.5380 -0.2467  0.2169
   63MOL   C10231226   4.902   1.040   2.204  0.8786  0.8935 -0.0477
   63MOL   C10331227   4.864   1.183   2.190  0.2709  0.8355  0.2904
   63MOL   O10431228   4.921   1.224   2.066 -0.3475 -0.0570 -0.0597
   63MOL   C10531229   5.041   1.297   2.086 -0.2834  1.2060 -0.0917
   63MOL   C10631230   5.099   1.345   1.949 -0.0649  0.9423  0.4715
   63MOL   C10731231   5.006   1.438   1.866  0.0713  0.3649 -0.5439
   63MOL   C10831232   5.085   1.520   1.761 -0.0513  0.5122 -0.4717
   63MOL   C10931233   5.000   1.581   1.650  0.3503 -0.3013  0.6998
   63MOL   C11031234   5.079   1.652   1.540  0.7593 -0.0439 -0.1213
   63MOL   H11131235   5.010   1.032   2.192  0.9544  0.4555  0.8721
   63MOL   H11231236   4.851   0.995   2.118 -0.9137  0.1140  1.3860
   63MOL   H11331237   4.903   1.251   2.267 -0.6557  1.4989  0.1857
   63MOL   H11431238   5.121   1.252   2.145 -0.0891  2.2450  0.4413
   63MOL   H11531239   5.027   1.387   2.145 -1.7136  0.4911  0.6760
   63MOL   H11631240   5.137   1.257   1.898 -0.7101  0.4136  0.8888
   63MOL   H11731241   5.193   1.400   1.958 -0.2518  1.9563 -3.0296
   63MOL   H11831242   4.935   1.374   1.814  2.1680 -2.0329 -0.5147
   63MOL   H11931243   4.945   1.499   1.934  1.1200  1.5421 -0.6376
   63MOL   H12031244   5.130   1.600   1.819  0.5035 -0.7308  0.8681
   63MOL   H12131245   5.168   1.459   1.725  0.8272  1.0293  0.6335
   63MOL   H12231246   4.929   1.507   1.615 -0.8343  0.8193  0.7144
   63MOL   H12331247   4.951   1.659   1.709 -1.4693 -0.4578 -0.5786
   63MOL   H12431248   5.133   1.738   1.578  1.0508 -0.2124 -0.1527
   63MOL   H12531249   5.145   1.587   1.482  1.3828  0.4889 -0.0072
   63MOL   H12631250   5.010   1.694   1.467  1.0572  0.7495  0.0467
   63MOL   C12731251   4.714   1.210   2.169 -0.4636  0.2794  0.1185
   63MOL   C12831252   4.672   1.352   2.176 -0.2092  0.8265 -0.4664
   63MOL   O12931253   4.736   1.426   2.287  0.4170 -0.8144 -0.5848
   63MOL   C13031254   4.774   1.559   2.245 -0.4842  0.1102 -1.2210
   63MOL   C13131255   4.846   1.633   2.360  0.5587  0.0572  0.5092
   63MOL   C13231256   4.883   1.777   2.324  0.0002 -0.2515 -0.1890
   63MOL   C13331257   4.948   1.847   2.440 -0.1215 -0.2983 -0.1808
   63MOL   C13431258   4.963   1.993   2.412 -0.3391 -0.1867 -0.1779
   63MOL   C13531259   4.944   2.083   2.535  0.4217 -0.1411 -0.0500
   63MOL   H13631260   4.662   1.160   2.088  0.0056  0.2794 -0.1835
   63MOL   H13731261   4.681   1.161   2.260  1.4728  3.3140  2.5863
   63MOL   H13831262   4.697   1.390   2.077 -1.8472  0.0887 -1.1864
   63MOL   H13931263   4.681   1.616   2.238 -1.0890 -0.8219 -0.9255
   63MOL   H14031264   4.838   1.554   2.157  0.7427  1.0910 -0.4018
   63MOL   H14131265   4.931   1.572   2.387  1.5122  0.4148 -1.6092
   63MOL   H14231266   4.785   1.637   2.450 -0.0560 -0.9243  0.1488
   63MOL   H14331267   4.942   1.792   2.234 -0.0882  1.1062 -0.0457
   63MOL   H14431268   4.789   1.832   2.319  0.2007  0.0107 -1.2288
   63MOL   H14531269   4.896   1.846   2.535 -0.1347  1.9005 -0.1228
   63MOL   H14631270   5.044   1.799   2.453 -1.2974 -2.5025  0.6225
   63MOL   H14731271   5.059   2.004   2.364 -0.3112  3.4467  0.5721
   63MOL   H14831272   4.886   2.032   2.345 -0.4853  2.9183  1.6646
   63MOL   H14931273   5.038   2.092   2.590  1.5867  0.5691 -2.1066
   63MOL   H15031274   4.943   2.185   2.496  0.5550  0.6817  2.0088
   63MOL   H15131275   4.856   2.065   2.596 -0.5819  1.1287 -1.1081
   63MOL   C15231276   4.518   1.366   2.199  0.0062  0.0309 -0.4698
   63MOL   C15331277   4.449   1.481   2.124 -0.5129  0.4543  0.5216
   63MOL   O15431278   4.403   1.437   1.999 -0.8571  0.0519  0.5328
   63MOL   C15531279   4.468   1.514   1.896  0.7560  0.6687  0.3847
   63MOL   C15631280   4.479   1.424   1.774 -0.6907  0.2912  0.0674
   63MOL   C15731281   4.579   1.309   1.794 -0.3146 -0.2754 -0.0542
   63MOL   C15831282   4.626   1.224   1.667  0.8302  0.0662  0.3244
   63MOL   C15931283   4.754   1.149   1.676  0.1195  0.2117  0.2311
   63MOL   C16031284   4.776   1.047   1.786 -0.3686  0.5346 -0.0042
   63MOL   H16131285   4.468   1.277   2.161 -0.1374  0.4139 -1.2055
   63MOL   H16231286   4.496   1.382   2.304 -0.0911 -1.9177 -0.1761
   63MOL   H16331287   4.522   1.562   2.124 -1.2191  1.1336 -1.1494
   63MOL   H16431288   4.567   1.551   1.922  2.0993 -0.4835 -2.8566
   63MOL   H16531289   4.400   1.597   1.877  0.0295 -0.2531 -1.1266
   63MOL   H16631290   4.494   1.490   1.689 -1.2264 -1.7771 -1.6893
   63MOL   H16731291   4.383   1.375   1.754 -1.4580  0.7673  2.3813
   63MOL   H16831292   4.660   1.355   1.850 -1.8448 -1.0856  2.8974
   63MOL   H16931293   4.532   1.250   1.872  2.6653 -0.8742  1.3574
   63MOL   H17031294   4.543   1.160   1.637  0.5168 -0.0163  1.3667
   63MOL   H17131295   4.638   1.294   1.585  0.5462  0.6238  0.7602
   63MOL   H17231296   4.769   1.103   1.579 -2.4639 -1.1276  0.4281
   63MOL   H17331297   4.839   1.217   1.683  0.3291 -0.0481  0.1805
   63MOL   H17431298   4.780   1.093   1.885  0.8323  0.8375 -0.1744
   63MOL   H17531299   4.690   0.982   1.799  0.8716 -1.3726 -1.0057
   63MOL   H17631300   4.860   0.980   1.766 -0.6480 -0.4116  1.8346
   63MOL   C17731301   4.322   1.526   2.192  0.4862 -0.2595  0.1076
   63MOL   C17831302   4.263   1.660   2.140 -0.1698 -0.5849 -0.8243
   63MOL   O17931303   4.182   1.708   2.241 -0.1444 -0.1292 -0.0834
   63MOL   C18031304   4.050   1.651   2.211 -0.1072 -0.1817 -0.0781
   63MOL   C18131305   3.953   1.713   2.310  0.0762 -0.0291  0.7012
   63MOL   C18231306   3.923   1.861   2.282  0.2711 -0.1532  0.8793
   63MOL   C18331307   3.812   1.909   2.374 -0.0695  0.4203  0.0606
   63MOL   C18431308   3.737   2.038   2.334  0.6578 -0.7664 -0.5218
   63MOL   C18531309   3.798   2.163   2.406 -0.2744 -0.0345  0.4070
   63MOL   H18631310   4.246   1.449   2.185  0.5004 -0.1824 -0.8791
   63MOL   H18731311   4.339   1.546   2.298 -1.3710  1.6393  0.0816
   63MOL   H18831312   4.215   1.654   2.043 -0.2572  0.9956 -0.9022
   63MOL   H18931313   4.037   1.543   2.213  1.1999 -0.3372 -0.1203
   63MOL   H19031314   4.018   1.683   2.111  1.9296  0.4085 -0.5736
   63MOL   H19131315   3.993   1.698   2.410 -0.6965  0.4879  1.0933
   63MOL   H19231316   3.858   1.660   2.307 -0.4525  0.9604 -1.1982
   63MOL   H19331317   4.009   1.928   2.287 -0.3615  0.7517 -0.0816
   63MOL   H19431318   3.886   1.861   2.179 -3.0999 -3.0871  1.9867
   63MOL   H19531319   3.735   1.833   2.383  0.7757 -0.4282  0.1331
   63MOL   H19631320   3.836   1.911   2.481 -0.9529 -0.3914  0.2806
   63MOL   H19731321   3.728   2.060   2.228 -4.4565  1.6757  0.2528
   63MOL   H19831322   3.637   2.021   2.374  1.1615  1.0485  1.6195
   63MOL   H19931323   3.890   2.202   2.362 -0.2842 -2.9519 -2.3581
   63MOL   H20031324   3.727   2.246   2.409 -1.2881 -0.9194  1.0741
   63MOL   H20131325   3.825   2.153   2.511 -0.7607 -0.2181  0.5150
   63MOL   C20231326   4.373   1.768   2.129  0.0715  0.1938 -0.2019
   63MOL   C20331327   4.332   1.921   2.118 -0.1976  0.4148 -0.5584
   63MOL   O20431328   4.277   1.951   1.993 -0.2298 -0.2490  0.3045
   63MOL   C20531329   4.141   1.935   1.980 -0.5881  0.0132  0.4049
   63MOL   C20631330   4.090   2.007   1.857  0.0348 -0.1391  0.5685
   63MOL   C20731331   3.939   2.016   1.862  0.3535  0.3832 -0.2796
   63MOL   C20831332   3.891   2.092   1.735 -0.5862 -0.1752 -0.7658
   63MOL   C20931333   3.735   2.091   1.723  0.1396 -0.6315  0.8967
   63MOL   C21031334   3.682   1.964   1.648 -0.1001  0.1521 -0.3584
   63MOL   H21131335   4.445   1.745   2.207 -1.1129 -3.9841 -0.2663
   63MOL   H21231336   4.427   1.751   2.036  1.8622  0.8842  0.6943
   63MOL   H21331337   4.263   1.945   2.199 -0.2834 -2.0007  0.1239
   63MOL   H21431338   4.091   1.986   2.062 -0.2798  1.3995 -0.2688
   63MOL   H21531339   4.120   1.828   1.978 -0.5702  0.0209 -0.2897
   63MOL   H21631340   4.123   1.969   1.761  0.1969  1.2802  0.0620
   63MOL   H21731341   4.138   2.105   1.862 -2.2506  0.9681  1.7050
   63MOL   H21831342   3.900   1.914   1.863 -0.3572  0.6280 -1.7552
   63MOL   H21931343   3.909   2.063   1.955 -0.5410  0.0811 -0.4126
   63MOL   H22031344   3.915   2.198   1.731 -0.4569 -0.0641  1.9828
   63MOL   H22131345   3.935   2.039   1.650 -0.2994 -3.7330  1.4982
   63MOL   H22231346   3.694   2.085   1.823 -0.3453 -0.5532  0.7054
   63MOL   H22331347   3.708   2.176   1.660  1.5049 -1.0813 -0.3453
   63MOL   H22431348   3.724   1.870   1.686  0.7283  0.5804 -0.1852
   63MOL   H22531349   3.574   1.963   1.655 -0.1606  1.1607 -1.1315
   63MOL   H22631350   3.705   1.963   1.542 -0.7149 -2.9825 -0.5026
   63MOL   C22731351   4.463   2.000   2.139  0.2072 -0.1171 -0.2876
   63MOL   C22831352   4.454   2.153   2.133  0.0099  0.0069  0.5509
   63MOL   O22931353   4.369   2.200   2.233  0.3219  0.4887 -0.0644
   63MOL   C23031354   4.243   2.237   2.182 -0.4789  0.4826  0.1504
   63MOL   C23131355   4.149   2.279   2.296 -0.6634 -0.7318  0.1030
   63MOL   C23231356   4.198   2.395   2.385  0.0930 -0.4957 -0.0961
   63MOL   C23331357   4.110   2.425   2.512 -0.1813  0.6470  0.0254
   63MOL   C23431358   4.003   2.532   2.485  0.7591 -1.0572  0.2843
   63MOL   C23531359   3.902   2.553   2.605 -0.7393  0.6901  0.4672
   63MOL   H23631360   4.509   1.964   2.231  0.7543 -1.6312 -1.1457
   63MOL   H23731361   4.540   1.981   2.064  1.8091 -0.9240  1.5024
   63MOL   H23831362   4.410   2.170   2.034  2.2015 -1.3804 -0.6890
   63MOL   H23931363   4.198   2.154   2.128 -0.2848  0.2366  0.3655
   63MOL   H24031364   4.244   2.319   2.111 -1.9387  0.6128  0.2575
   63MOL   H24131365   4.122   2.199   2.364 -3.9033 -0.4456 -0.7476
   63MOL   H24231366   4.051   2.305   2.255  0.3723  3.8714  0.2712
   63MOL   H24331367   4.292   2.366   2.432 -0.7294 -1.4111  1.0064
   63MOL   H24431368   4.218   2.488   2.332 -2.9581  0.4377  0.2817
   63MOL   H24531369   4.067   2.330   2.544  0.5352 -0.5713 -2.4771
   63MOL   H24631370   4.165   2.456   2.600  0.3021 -2.6301  0.9453
   63MOL   H24731371   4.045   2.627   2.453  0.9731 -2.1977 -3.0002
   63MOL   H24831372   3.937   2.519   2.399  2.4352  1.4391 -1.4620
   63MOL   H24931373   3.949   2.567   2.702 -2.0172 -1.3488  1.4140
   63MOL   H25031374   3.848   2.646   2.591 -2.0145 -0.1384 -0.1476
   63MOL   H25131375   3.838   2.465   2.609  0.9534 -0.5800  0.3967
   63MOL   C25231376   4.587   2.229   2.145 -0.1771 -0.9641 -0.1015
   63MOL   C25331377   4.579   2.376   2.087 -0.9233 -0.3464 -0.3768
   63MOL   O25431378   4.620   2.362   1.951 -0.2710  0.1891  0.5183
   63MOL   C25531379   4.541   2.445   1.868 -0.2958 -0.1244 -0.1337
   63MOL   C25631380   4.605   2.452   1.721 -0.0808 -0.6856 -0.3211
   63MOL   C25731381   4.747   2.508   1.711  0.1085  0.0334 -0.0782
   63MOL   C25831382   4.858   2.417   1.775  1.1008  0.4719  0.1861
   63MOL   C25931383   4.998   2.486   1.774 -0.2635  0.2092  0.7287
   63MOL   C26031384   5.054   2.512   1.636 -0.2739 -0.3845  0.2176
   63MOL   H26131385   4.624   2.226   2.247 -0.7460 -1.1352  0.0986
   63MOL   H26231386   4.664   2.178   2.088 -1.1264 -0.4629 -1.8898
   63MOL   H26331387   4.478   2.416   2.096 -0.4926  1.1382 -1.9334
   63MOL   H26431388   4.535   2.548   1.903 -0.8564 -0.9432  2.3249
   63MOL   H26531389   4.436   2.415   1.861 -0.2968 -0.7221  1.9316
   63MOL   H26631390   4.530   2.504   1.660 -1.1450  0.0167  1.5598
   63MOL   H26731391   4.609   2.353   1.675 -3.4588  0.1515 -2.6459
   63MOL   H26831392   4.763   2.525   1.605 -0.4222 -2.2627 -0.5538
   63MOL   H26931393   4.765   2.593   1.778  0.7366  0.3760 -0.6795
   63MOL   H27031394   4.822   2.408   1.877  0.6096  0.2474 -0.0074
   63MOL   H27131395   4.855   2.318   1.729 -1.5157  0.2771  0.7374
   63MOL   H27231396   4.979   2.578   1.830 -0.7803 -0.8575  2.3673
   63MOL   H27331397   5.070   2.425   1.829  0.8389  0.0642 -0.8459
   63MOL   H27431398   5.149   2.560   1.657  0.2174 -1.5668  0.7341
   63MOL   H27531399   5.066   2.425   1.571 -0.1363  1.4508 -2.2591
   63MOL   H27631400   4.990   2.584   1.585 -1.3106 -1.8156 -0.5646
   63MOL   C27731401   4.680   2.478   2.142 -0.4289  0.5534 -0.4773
   63MOL   C27831402   4.650   2.516   2.293 -0.2616  0.2765  0.0823
   63MOL   O27931403   4.758   2.591   2.327  0.2721 -0.3895  0.3635
   63MOL   C28031404   4.876   2.521   2.367 -0.4704  0.0706 -0.6154
   63MOL   C28131405   4.995   2.611   2.324  0.5633 -0.4271  0.9193
   63MOL   C28231406   5.136   2.552   2.344 -0.1982  0.8147 -0.7470
   63MOL   C28331407   5.173   2.488   2.481 -1.3356  0.4449  0.2567
   63MOL   C28431408   5.296   2.402   2.470 -0.2237 -0.5612  0.4934
   63MOL   C28531409   5.343   2.358   2.613  0.0035  0.3901 -0.0464
   63MOL   H28631410   4.779   2.440   2.120 -1.7219 -2.5539 -1.2174
   63MOL   H28731411   4.674   2.570   2.083 -0.5020 -0.2413 -1.7220
   63MOL   H28831412   4.644   2.422   2.348  0.4273  0.0927 -0.1512
   63MOL   H28931413   4.889   2.427   2.315 -0.9793 -0.6932  0.6058
   63MOL   H29031414   4.868   2.515   2.476 -2.0742 -2.7831 -0.8445
   63MOL   H29131415   4.988   2.699   2.387  0.4064  0.1099  0.1459
   63MOL   H29231416   4.983   2.651   2.224  1.5893 -0.5529  0.7451
   63MOL   H29331417   5.135   2.476   2.266 -0.9745 -0.7851  0.7836
   63MOL   H29431418   5.220   2.619   2.323 -0.2808  0.8301 -1.0158
   63MOL   H29531419   5.183   2.569   2.554 -1.2981 -0.5454  1.3606
   63MOL   H29631420   5.084   2.430   2.502 -1.5695  0.6652 -0.1085
   63MOL   H29731421   5.266   2.316   2.409 -0.6369 -1.4077  1.8707
   63MOL   H29831422   5.372   2.460   2.418 -0.6626  0.8869  1.4389
   63MOL   H29931423   5.258   2.311   2.663  0.6449 -2.2686 -1.3902
   63MOL   H30031424   5.423   2.285   2.610 -0.8398 -0.5029 -1.6390
   63MOL   H30131425   5.375   2.442   2.676  0.5533 -1.2215  1.8748
   63MOL   C30231426   4.522   2.605   2.307 -0.1793 -0.1968  1.4955
   63MOL   C30331427   4.506   2.657   2.455  0.3683 -0.2835  0.1118
   63MOL   O30431428   4.414   2.566   2.523 -0.6563  0.0136  0.1382
   63MOL   C30531429   4.470   2.510   2.642 -0.4439  0.2071 -0.9103
   63MOL   C30631430   4.597   2.418   2.628  0.0985  0.1762  0.0674
   63MOL   C30731431   4.566   2.284   2.555 -0.8598 -0.7448  1.0341
   63MOL   C30831432   4.475   2.195   2.625  0.7522  0.4669  0.1849
   63MOL   C30931433   4.426   2.070   2.546  0.4881  0.2936  0.2653
   63MOL   C31031434   4.536   1.977   2.492  0.2872 -0.0834 -0.6828
   63MOL   H31131435   4.525   2.686   2.234 -1.0771  1.0965  2.8732
   63MOL   H31231436   4.437   2.545   2.274 -0.2211 -0.4600  2.0764
   63MOL   H31331437   4.602   2.674   2.503 -0.4981  2.6036  0.9288
   63MOL   H31431438   4.384   2.465   2.692  0.6382 -0.0888  0.7336
   63MOL   H31531439   4.500   2.594   2.705 -0.5246 -0.2487 -0.2613
   63MOL   H31631440   4.622   2.379   2.727 -0.5476  1.5396  0.7829
   63MOL   H31731441   4.675   2.466   2.569 -0.7239  2.0909  0.4919
   63MOL   H31831442   4.510   2.302   2.463 -1.2351  1.3061  1.6364
   63MOL   H31931443   4.662   2.243   2.524 -0.3609  0.7854  0.4962
   63MOL   H32031444   4.519   2.180   2.723 -0.7606  0.7175  0.9175
   63MOL   H32131445   4.386   2.256   2.640  0.9239  1.1290 -1.3375
   63MOL   H32231446   4.348   2.016   2.600 -1.9072  1.9208 -1.4770
   63MOL   H32331447   4.372   2.099   2.456 -1.1291  0.2836  1.2159
   63MOL   H32431448   4.599   2.031   2.421 -0.2374  0.1741 -0.9558
   63MOL   H32531449   4.605   1.941   2.568  1.5023 -2.4505 -2.8214
   63MOL   H32631450   4.498   1.881   2.455 -2.6230  0.3234  1.0799
   63MOL   C32731451   4.437   2.793   2.461  0.0777  0.2864  0.4528
   63MOL   C32831452   4.526   2.904   2.405 -0.1988 -0.0133 -0.0296
   63MOL   O32931453   4.479   2.927   2.277 -0.0578 -0.3922 -0.2700
   63MOL   C33031454   4.559   2.991   2.182  0.2271  0.8164 -0.4888
   63MOL   C33131455   4.622   2.893   2.075 -0.2700  0.1902  0.2487
   63MOL   C33231456   4.688   2.982   1.969  0.6479  0.1830  0.4595
   63MOL   C33331457   4.765   2.890   1.861 -0.4351 -0.1883 -0.1032
   63MOL   C33431458   4.847   2.971   1.759 -0.0575  0.3207 -0.1935
   63MOL   C33531459   4.915   2.877   1.653  0.1475  0.0630  0.6421
   63MOL   H33631460   4.400   2.804   2.563 -1.5936 -0.3389 -0.0561
   63MOL   H33731461   4.346   2.790   2.401  0.0315  2.2232  0.3794
   63MOL   H33831462   4.626   2.867   2.382  0.5516  0.9993  1.5326
   63MOL   H33931463   4.638   3.055   2.221 -0.0508 -0.4729  2.2475
   63MOL   H34031464   4.507   3.070   2.128  0.5328  1.8266  0.6842
   63MOL   H34131465   4.553   2.828   2.022 -0.1011 -1.2892  1.8325
   63MOL   H34231466   4.700   2.836   2.125 -1.0728 -0.5487  0.6602
   63MOL   H34331467   4.618   3.040   1.909  0.8100  0.0028  0.0941
   63MOL   H34431468   4.764   3.048   2.011  0.5861  0.1977  0.5486
   63MOL   H34531469   4.830   2.821   1.914 -0.7466  0.0681  0.6259
   63MOL   H34631470   4.691   2.827   1.813 -0.0086  0.4120 -1.5537
   63MOL   H34731471   4.786   3.037   1.697  0.7921  0.1300 -1.2467
   63MOL   H34831472   4.930   3.022   1.808  0.0047  0.0430 -0.0097
   63MOL   H34931473   4.961   2.941   1.578 -0.5579 -0.3428 -0.1393
   63MOL   H35031474   4.987   2.807   1.698  0.0011 -0.0450  0.7110
   63MOL   H35131475   4.841   2.817   1.600 -0.8037  1.7979 -0.0279
   63MOL   C35231476   4.516   3.034   2.495  0.6190 -0.3192  0.8584
   63MOL   C35331477   4.587   3.004   2.629 -0.2411  0.3144  0.1908
   63MOL   O35431478   4.551   3.103   2.718  0.3404  0.2970 -0.1389
   63MOL   C35531479   4.421   3.072   2.778 -0.2867  0.3628 -0.8206
   63MOL   C35631480   4.386   3.155   2.898  0.6608  0.5569 -0.2383
   63MOL   C35731481   4.446   3.101   3.029  0.0070  0.0665 -0.6508
   63MOL   C35831482   4.404   3.201   3.140  0.0010 -0.0005 -0.1411
   63MOL   C35931483   4.478   3.202   3.271  0.1720  0.7150 -0.4594
   63MOL   C36031484   4.446   3.092   3.376  0.3689  0.0787  0.3255
   63MOL   H36131485   4.562   3.118   2.444 -1.4899  1.3289  1.5790
   63MOL   H36231486   4.410   3.060   2.502  0.4986 -0.2668 -0.9388
   63MOL   H36331487   4.562   2.904   2.665  0.0188  0.0877 -0.2349
   63MOL   H36431488   4.413   2.966   2.804  3.4957  1.0820  3.8815
   63MOL   H36531489   4.349   3.089   2.698 -0.8428 -1.1485 -0.6578
   63MOL   H36631490   4.278   3.156   2.913  0.4999  1.4860 -1.4036
   63MOL   H36731491   4.418   3.258   2.884  0.6991  0.4763 -0.7368
   63MOL   H36831492   4.415   3.001   3.058 -0.8966  0.3038 -0.7888
   63MOL   H36931493   4.555   3.093   3.026  0.1311  1.8434 -1.4261
   63MOL   H37031494   4.420   3.303   3.107  0.0466 -0.5057 -1.7056
   63MOL   H37131495   4.295   3.196   3.150  0.1706  0.6951  2.3399
   63MOL   H37231496   4.584   3.197   3.249  0.0787  1.5154 -1.0823
   63MOL   H37331497   4.478   3.303   3.312 -0.0446  0.5129  0.0420
   63MOL   H37431498   4.510   3.130   3.456 -0.3332  1.3197  0.3132
   63MOL   H37531499   4.345   3.093   3.419 -0.6372 -1.3013 -1.9116
   63MOL   H37631500   4.471   2.989   3.351  0.2178 -0.0208  0.5814
   63MOL   C37731501   4.747   3.002   2.604 -0.7607 -0.4394  0.1924
   63MOL   C37831502   4.832   2.954   2.726  0.0274  0.0037 -0.0230
   63MOL   O37931503   4.962   3.016   2.716 -0.0056  0.5668 -0.4802
   63MOL   C38031504   4.978   3.110   2.822  0.7945  0.1721  0.1834
   63MOL   C38131505   5.128   3.134   2.841 -0.3472 -0.2751  0.5136
   63MOL   C38231506   5.174   3.254   2.750  0.4850  0.0883  0.3137
   63MOL   C38331507   5.329   3.293   2.775 -0.3918 -0.0495  0.4947
   63MOL   C38431508   5.350   3.375   2.899  0.1896 -0.1754 -0.0083
   63MOL   C38531509   5.311   3.524   2.891 -0.7899  0.3997  0.6863
   63MOL   H38631510   4.782   2.945   2.519 -0.7738 -0.4026  0.1624
   63MOL   H38731511   4.778   3.106   2.594  0.8878 -0.9730 -0.3221
   63MOL   H38831512   4.779   2.996   2.812  0.5996  0.3413  0.1708
   63MOL   H38931513   4.947   3.065   2.917  0.1776  0.5177  0.1480
   63MOL   H39031514   4.918   3.200   2.813  2.5056  1.2840 -0.3105
   63MOL   H39131515   5.194   3.047   2.834  1.4432  1.0489  0.7744
   63MOL   H39231516   5.139   3.175   2.941  1.1867  2.9622 -0.9364
   63MOL   H39331517   5.152   3.234   2.645 -0.5415  0.8469  0.3768
   63MOL   H39431518   5.112   3.340   2.778 -2.3521 -2.4562  2.2209
   63MOL   H39531519   5.386   3.201   2.788  1.2483  0.6601 -1.3722
   63MOL   H39631520   5.353   3.347   2.684  0.4340 -3.1361 -1.1671
   63MOL   H39731521   5.306   3.335   2.990 -1.5598  0.4319 -0.5519
   63MOL   H39831522   5.458   3.376   2.913 -0.0298  0.1033  1.7051
   63MOL   H39931523   5.381   3.575   2.825  0.4828 -2.0801  0.0779
   63MOL   H40031524   5.220   3.547   2.836  1.4184  3.3198 -1.9011
   63MOL   H40131525   5.325   3.576   2.986 -0.6623 -0.5826  1.2150
   63MOL   C40231526   4.840   2.796   2.727 -0.5826  0.3113 -0.3843
   63MOL   C40331527   4.841   2.725   2.866  0.0530 -0.2361 -1.0739
   63MOL   O40431528   4.859   2.590   2.833  0.0498 -0.1601  0.0483
   63MOL   C40531529   4.991   2.542   2.840 -0.4582 -0.2789 -0.1639
   63MOL   C40631530   4.978   2.391   2.810  0.3558  0.0959 -0.3762
   63MOL   C40731531   4.899   2.315   2.918 -0.0641  0.1154 -0.1310
   63MOL   C40831532   4.874   2.171   2.891  0.7906  0.4689 -0.0368
   63MOL   C40931533   4.848   2.081   3.015  0.1020  0.2969  1.1585
   63MOL   C41031534   4.825   1.937   2.966  0.8045  0.6997  0.7955
   63MOL   H41131535   4.926   2.769   2.666 -0.5327  1.5077 -0.8595
   63MOL   H41231536   4.751   2.770   2.670  0.3530 -1.3676 -1.1238
   63MOL   H41331537   4.920   2.755   2.934 -1.0049  1.7985 -0.6945
   63MOL   H41431538   5.033   2.565   2.938 -2.6068 -0.0669  0.7279
   63MOL   H41531539   5.055   2.587   2.764 -1.5200  1.6018  0.0203
   63MOL   H41631540   5.083   2.362   2.795  0.2762 -0.0390 -0.6795
   63MOL   H41731541   4.927   2.383   2.714  1.5494 -0.9192 -0.9417
   63MOL   H41831542   4.943   2.332   3.016 -0.6532 -1.3215  0.3929
   63MOL   H41931543   4.803   2.366   2.919 -0.4073 -0.5041 -1.2099
   63MOL   H42031544   4.802   2.157   2.810 -0.1803  0.8229  0.7479
   63MOL   H42131545   4.966   2.130   2.851  0.7009  0.9377 -0.7244
   63MOL   H42231546   4.932   2.087   3.083  0.2862 -1.3730  1.0865
   63MOL   H42331547   4.767   2.115   3.080  0.9087  0.0402  2.3222
   63MOL   H42431548   4.796   1.863   3.041 -0.9845  1.2525  0.6862
   63MOL   H42531549   4.741   1.945   2.896  2.0711  2.8222 -0.5257
   63MOL   H42631550   4.912   1.905   2.908  0.1383  0.4296 -0.0736
   63MOL   C42731551   4.699   2.736   2.934  0.0661 -0.2725  0.5334
   63MOL   C42831552   4.690   2.656   3.062  0.0774 -0.5027 -0.0432
   63MOL   O42931553   4.764   2.726   3.169 -0.2509 -0.0714 -0.3884
   63MOL   C43031554   4.848   2.643   3.246  0.0970  0.6359  0.2375
   63MOL   C43131555   4.958   2.730   3.312  0.0333  0.3017 -0.1246
   63MOL   C43231556   5.041   2.804   3.204 -0.3702 -0.1871  0.2660
   63MOL   C43331557   5.169   2.870   3.258 -0.1766  0.1601 -0.4046
   63MOL   C43431558   5.262   2.935   3.144  0.5448  0.1647  0.0189
   63MOL   C43531559   5.382   2.998   3.219  0.5230  0.2713  0.2361
   63MOL   H43631560   4.681   2.841   2.960  0.8452 -0.3050  1.1905
   63MOL   H43731561   4.617   2.702   2.870 -0.9456  0.8132  1.2236
   63MOL   H43831562   4.742   2.562   3.045  0.2090 -0.6833  1.2537
   63MOL   H43931563   4.905   2.581   3.175  0.6115  1.1761  0.1750
   63MOL   H44031564   4.799   2.581   3.321 -0.3679  0.9853  0.2189
   63MOL   H44131565   5.024   2.658   3.360  0.6743  0.6631 -0.4503
   63MOL   H44231566   4.900   2.796   3.376 -0.2355  0.3264 -0.3934
   63MOL   H44331567   5.073   2.736   3.124  2.1469  0.5634  0.5810
   63MOL   H44431568   4.977   2.869   3.146  0.1953 -0.4738 -0.6939
   63MOL   H44531569   5.144   2.952   3.325  1.0345 -1.3346  1.9602
   63MOL   H44631570   5.221   2.791   3.313 -1.0382 -1.0214 -1.2554
   63MOL   H44731571   5.294   2.855   3.077  0.7587  1.2291 -1.1720
   63MOL   H44831572   5.213   3.013   3.086  1.0042  1.0790  0.8399
   63MOL   H44931573   5.448   3.045   3.145 -2.2605  1.1848 -1.7977
   63MOL   H45031574   5.349   3.075   3.289 -0.2997  0.2272 -0.0894
   63MOL   H45131575   5.433   2.924   3.280 -1.1296 -0.2227  1.0411
   63MOL   C45231576   4.545   2.633   3.112  0.4019  0.1514  0.0589
   63MOL   C45331577   4.452   2.547   3.024 -0.1118  0.3032  0.2111
   63MOL   O45431578   4.312   2.586   3.045 -0.1295  0.5311 -0.2632
   63MOL   C45531579   4.274   2.686   2.948  0.3823  0.5698 -0.1572
   63MOL   C45631580   4.127   2.713   2.971  0.3212 -0.1858  0.4015
   63MOL   C45731581   4.068   2.840   2.902  0.6026  0.7289 -1.4599
   63MOL   C45831582   4.089   2.847   2.752  0.0027  0.3528 -0.1161
   63MOL   C45931583   4.048   2.976   2.681  0.0737  0.1482  0.5780
   63MOL   C46031584   4.070   2.953   2.526  0.5334 -0.0933  0.3047
   63MOL   H46131585   4.523   2.600   3.214 -3.5071 -3.3678 -1.7403
   63MOL   H46231586   4.505   2.733   3.124 -2.5709 -0.8733 -0.8621
   63MOL   H46331587   4.485   2.554   2.921 -3.0933  1.4289 -0.7230
   63MOL   H46431588   4.297   2.660   2.845  1.9994  0.6216  0.1711
   63MOL   H46531589   4.332   2.777   2.964 -0.6021  1.3523 -1.0188
   63MOL   H46631590   4.114   2.712   3.079  1.6062  1.0534  0.5751
   63MOL   H46731591   4.070   2.625   2.942  1.2879 -0.4883 -0.5994
   63MOL   H46831592   3.962   2.847   2.928  1.8875  1.4016  4.1256
   63MOL   H46931593   4.110   2.921   2.962 -0.4884  0.0931  0.1806
   63MOL   H47031594   4.193   2.829   2.726 -0.7815 -2.4944 -1.4679
   63MOL   H47131595   4.043   2.762   2.702 -2.2776  1.1421  0.5614
   63MOL   H47231596   3.941   2.998   2.690  0.2150  0.8964  0.4613
   63MOL   H47331597   4.114   3.060   2.703  1.8946 -0.0410 -3.8422
   63MOL   H47431598   4.171   2.936   2.491  0.4858 -1.7906  0.9003
   63MOL   H47531599   4.010   2.871   2.486  1.6410 -0.3544 -0.8455
   63MOL   H47631600   4.033   3.039   2.471 -2.2640 -1.5539 -0.2441
   63MOL   C47731601   4.471   2.399   3.064  0.9890 -0.4981 -0.2322
   63MOL   C47831602   4.438   2.284   2.964  0.2108 -1.2450  0.4400
   63MOL   O47931603   4.409   2.175   3.045 -0.5208 -0.3618 -0.2102
   63MOL   C48031604   4.432   2.056   2.968  0.7825 -0.2348  0.1137
   63MOL   C48131605   4.417   1.931   3.059 -0.2149 -0.3689 -0.3909
   63MOL   C48231606   4.268   1.910   3.104 -0.2887 -0.2232  0.1532
   63MOL   C48331607   4.270   1.805   3.212  0.5449  0.1307  0.1402
   63MOL   C48431608   4.127   1.774   3.264  0.2159 -0.1008 -0.0084
   63MOL   C48531609   4.137   1.665   3.377 -0.7455 -0.1661  0.2345
   63MOL   H48631610   4.562   2.389   3.123  1.8976  3.1192 -0.8592
   63MOL   H48731611   4.385   2.390   3.131  0.1005  0.1051 -1.2793
   63MOL   H48831612   4.359   2.312   2.893  0.6606  0.6907  0.6780
   63MOL   H48931613   4.534   2.043   2.933  1.2066  2.4950  0.2607
   63MOL   H49031614   4.353   2.035   2.895 -1.1594 -2.0984  2.6769
   63MOL   H49131615   4.473   1.944   3.152  2.8221  0.0093 -2.2227
   63MOL   H49231616   4.445   1.841   3.004  2.4621  0.2336 -0.0891
   63MOL   H49331617   4.217   1.996   3.148 -2.9354 -1.8542  0.3612
   63MOL   H49431618   4.196   1.870   3.033 -2.2410  1.7367  0.9450
   63MOL   H49531619   4.323   1.723   3.164 -0.1867  0.0825 -0.6053
   63MOL   H49631620   4.325   1.848   3.295  1.7638  0.2378 -0.7133
   63MOL   H49731621   4.091   1.867   3.308  0.5399 -0.1775  0.4214
   63MOL   H49831622   4.056   1.753   3.184  1.4780  0.8504 -1.4099
   63MOL   H49931623   4.226   1.662   3.440 -0.9926 -0.9159  0.5624
   63MOL   H50031624   4.050   1.661   3.443 -0.3681  0.2855  0.7628
   63MOL   H50131625   4.129   1.564   3.335  1.0769  1.2146 -3.6674
   63MOL   H50231626   4.535   2.271   2.916  0.6150  0.5526  0.7243
   64MOL     C131627   2.358   2.389   2.590 -0.3232  0.2382 -0.7110
   64MOL     C231628   2.325   2.255   2.526 -0.3167 -0.6772  0.3401
   64MOL     O331629   2.360   2.269   2.388  0.2444  0.5021 -0.5042
   64MOL     C431630   2.495   2.227   2.350 -0.4536  0.5169  0.4845
   64MOL     C531631   2.534   2.285   2.209 -0.4025  0.1852 -0.1607
   64MOL     C631632   2.559   2.433   2.205 -0.4652 -0.0761  0.0516
   64MOL     C731633   2.640   2.483   2.086 -0.4517 -0.2627 -0.1019
   64MOL     C831634   2.648   2.633   2.057 -0.2947  0.0844  0.5226
   64MOL     C931635   2.755   2.667   1.950  0.1444 -0.2988 -0.0159
   64MOL    H1031636   2.328   2.473   2.526 -0.3205  0.3963 -0.5074
   64MOL    H1131637   2.324   2.400   2.694  0.2220  1.3192 -0.6357
   64MOL    H1231638   2.380   2.170   2.567 -0.0231 -0.6392  0.0240
   64MOL    H1331639   2.496   2.118   2.352  1.9720  0.5194  0.4948
   64MOL    H1431640   2.564   2.271   2.422 -0.5455  1.7142 -0.1558
   64MOL    H1531641   2.458   2.253   2.138 -1.0346  2.0578 -0.3697
   64MOL    H1631642   2.621   2.228   2.178 -0.7676 -1.4581  1.7227
   64MOL    H1731643   2.464   2.486   2.209 -0.9222 -0.9960  2.1288
   64MOL    H1831644   2.618   2.463   2.291 -0.7785  2.8775 -0.7080
   64MOL    H1931645   2.739   2.440   2.101 -0.5200  0.1138  1.5156
   64MOL    H2031646   2.599   2.444   1.992 -0.1285 -0.5873 -0.1079
   64MOL    H2131647   2.675   2.673   2.155  1.1294  1.0070 -0.2339
   64MOL    H2231648   2.546   2.660   2.032 -1.2911 -2.8684  1.2085
   64MOL    H2331649   2.757   2.771   1.918  0.4584 -1.2450 -3.2471
   64MOL    H2431650   2.859   2.644   1.973  1.1876  3.7882 -0.2096
   64MOL    H2531651   2.726   2.616   1.858 -1.0904 -0.8877  0.6913
   64MOL    H2631652   2.463   2.389   2.618 -0.5692 -0.1926  0.2550
   64MOL    C2731653   2.171   2.232   2.534  0.4302  0.1057  0.2138
   64MOL    C2831654   2.127   2.082   2.540 -0.1033 -0.1064 -0.6874
   64MOL    O2931655   1.982   2.080   2.549 -0.0935 -0.2276 -0.4758
   64MOL    C3031656   1.936   2.060   2.685 -0.1624  0.3667 -0.0475
   64MOL    C3131657   1.788   2.083   2.683 -0.3708 -0.6724  0.4512
   64MOL    C3231658   1.724   2.040   2.819  0.1582 -0.0797  0.5955
   64MOL    C3331659   1.568   2.055   2.826  0.1306 -0.5187  0.2164
   64MOL    C3431660   1.529   2.203   2.841  0.5300  0.4859 -0.7651
   64MOL    C3531661   1.532   2.256   2.978  0.3449  0.4964  0.1774
   64MOL    H3631662   2.124   2.284   2.617  2.8644  0.7379  1.2357
   64MOL    H3731663   2.121   2.269   2.444  0.9848 -0.0988 -0.1753
   64MOL    H3831664   2.172   2.026   2.622 -1.7703  0.2114  0.4692
   64MOL    H3931665   1.981   2.129   2.756 -0.1697 -0.6956  0.9854
   64MOL    H4031666   1.959   1.963   2.728  0.7857  0.3045 -0.6846
   64MOL    H4131667   1.742   2.028   2.600  0.8799 -0.4532 -0.4006
   64MOL    H4231668   1.774   2.191   2.675 -1.3049 -0.8526 -0.6069
   64MOL    H4331669   1.751   1.935   2.828 -2.4342 -0.8587 -0.1401
   64MOL    H4431670   1.774   2.087   2.904 -0.9970 -0.5408  1.5537
   64MOL    H4531671   1.529   2.022   2.730 -0.4270 -2.6160  1.1308
   64MOL    H4631672   1.534   1.991   2.908  0.6594 -0.7701  0.2390
   64MOL    H4731673   1.590   2.267   2.776 -1.5021  0.4832 -2.7525
   64MOL    H4831674   1.428   2.223   2.805 -0.2710  0.3696  1.3626
   64MOL    H4931675   1.630   2.260   3.026  1.3690  0.0808 -1.8344
   64MOL    H5031676   1.497   2.360   2.984  3.4870  1.6889 -0.9209
   64MOL    H5131677   1.465   2.199   3.043  0.4505  2.1188  1.7505
   64MOL    C5231678   2.169   1.999   2.416  0.1959 -0.1659 -0.9910
   64MOL    C5331679   2.099   1.858   2.426 -0.6472  0.5892  0.2185
   64MOL    O5431680   2.120   1.786   2.309  0.4901 -0.1799 -0.0261
   64MOL    C5531681   2.028   1.813   2.201 -0.7853 -0.1035 -0.1856
   64MOL    C5631682   2.100   1.774   2.069 -0.1403  0.8333 -0.0669
   64MOL    C5731683   2.011   1.735   1.946  0.1543  0.8437 -0.7446
   64MOL    C5831684   1.946   1.859   1.876  0.6749  0.1807 -0.5408
   64MOL    C5931685   1.871   1.825   1.745  0.3427  0.7848  0.1748
   64MOL    C6031686   1.829   1.951   1.678 -0.0985  0.4149  0.0042
   64MOL    H6131687   2.278   1.991   2.411  0.1029 -1.1114 -1.6361
   64MOL    H6231688   2.137   2.051   2.326  1.0070  0.8028 -0.7352
   64MOL    H6331689   1.991   1.873   2.436 -0.7449  1.0218 -1.4607
   64MOL    H6431690   2.020   1.920   2.185  1.7687 -0.0123 -1.1096
   64MOL    H6531691   1.940   1.758   2.233  0.2007 -0.9208  1.2019
   64MOL    H6631692   2.163   1.688   2.093 -1.6940 -1.2181 -3.0472
   64MOL    H6731693   2.150   1.868   2.044 -2.8160  2.1676 -0.6308
   64MOL    H6831694   2.056   1.674   1.868  0.0682 -0.9207  0.5592
   64MOL    H6931695   1.937   1.664   1.982  0.3097  1.2564  0.4319
   64MOL    H7031696   1.874   1.904   1.945  1.5503 -0.3266  0.7388
   64MOL    H7131697   2.020   1.937   1.858  1.6944  0.0421  2.7026
   64MOL    H7231698   1.941   1.769   1.683  0.6743 -0.0926  1.3300
   64MOL    H7331699   1.780   1.769   1.768  1.0252 -0.2924  0.3073
   64MOL    H7431700   1.769   1.937   1.588 -0.9146  0.4275  0.5394
   64MOL    H7531701   1.777   2.018   1.747  0.7331  1.4906 -0.4047
   64MOL    H7631702   1.922   2.001   1.653  1.6081 -3.4351 -1.6714
   64MOL    C7731703   2.152   1.757   2.528 -0.0811 -0.0316  0.6346
   64MOL    C7831704   2.076   1.619   2.538  0.9526 -0.3418 -0.1425
   64MOL    O7931705   1.961   1.652   2.614  0.3617  0.7011  0.9811
   64MOL    C8031706   1.854   1.559   2.601 -0.7929 -0.2087 -0.7480
   64MOL    C8131707   1.757   1.589   2.715  0.1099  0.9849  0.2808
   64MOL    C8231708   1.627   1.505   2.712 -0.4799  0.1718  0.3228
   64MOL    C8331709   1.526   1.545   2.609 -0.0685 -0.4208  0.0902
   64MOL    C8431710   1.391   1.459   2.610 -0.9472 -0.0252  0.2444
   64MOL    C8531711   1.292   1.512   2.504 -0.0233 -0.7050 -0.3523
   64MOL    H8631712   2.149   1.799   2.628  2.2799 -1.7254  1.4711
   64MOL    H8731713   2.256   1.746   2.497 -0.1297 -1.6819  1.0137
   64MOL    H8831714   2.030   1.608   2.439 -1.2144  3.3704  0.3691
   64MOL    H8931715   1.890   1.457   2.612  0.9636  0.3634 -0.9840
   64MOL    H9031716   1.811   1.576   2.502 -1.3525  1.7295 -0.1842
   64MOL    H9131717   1.728   1.694   2.710 -1.3099  0.5935 -0.1237
   64MOL    H9231718   1.815   1.573   2.806  2.7239  2.8354 -1.0132
   64MOL    H9331719   1.655   1.400   2.705 -0.3126  0.2116  0.3800
   64MOL    H9431720   1.573   1.505   2.807  0.2564 -0.3098  0.7569
   64MOL    H9531721   1.518   1.654   2.610  0.1113 -0.3568 -2.4865
   64MOL    H9631722   1.575   1.526   2.514  1.5651 -1.4972  1.1193
   64MOL    H9731723   1.412   1.355   2.585  0.5247  1.4410 -5.3600
   64MOL    H9831724   1.345   1.465   2.708 -1.3865  0.2456  0.0219
   64MOL    H9931725   1.241   1.598   2.547 -0.6638 -0.8331 -0.8413
   64MOL   H10031726   1.355   1.533   2.417 -0.9934 -4.6122 -2.1190
   64MOL   H10131727   1.225   1.434   2.467  0.8782 -0.8444 -1.7502
   64MOL   C10231728   2.159   1.492   2.579 -0.3370 -0.0036  0.8233
   64MOL   C10331729   2.285   1.465   2.498 -0.3759  0.0196 -0.6251
   64MOL   O10431730   2.336   1.337   2.543 -0.4207  0.0007 -0.3779
   64MOL   C10531731   2.436   1.346   2.650  0.0281 -0.4774 -0.1578
   64MOL   C10631732   2.492   1.213   2.685 -0.4438  0.1542 -1.0081
   64MOL   C10731733   2.589   1.220   2.794 -0.5969 -0.1819  0.3528
   64MOL   C10831734   2.630   1.077   2.825 -0.4697 -0.5198 -0.1092
   64MOL   C10931735   2.748   1.078   2.928 -0.5965 -1.3173 -0.2850
   64MOL   C11031736   2.780   0.954   3.017  0.3644  0.1638 -0.1951
   64MOL   H11131737   2.187   1.499   2.685  0.5885 -0.0030  0.5804
   64MOL   H11231738   2.095   1.406   2.565  0.4957 -0.7739  1.6808
   64MOL   H11331739   2.359   1.544   2.503  0.3141 -0.7306  1.5647
   64MOL   H11431740   2.386   1.394   2.734  2.9026  2.1691  0.1057
   64MOL   H11531741   2.512   1.413   2.611 -0.0991 -0.2233  0.0345
   64MOL   H11631742   2.528   1.165   2.594  1.2142  1.4556 -1.0491
   64MOL   H11731743   2.407   1.152   2.717  0.4263 -0.8132 -0.5118
   64MOL   H11831744   2.672   1.277   2.750 -0.5540  0.9837  1.9040
   64MOL   H11931745   2.542   1.274   2.876 -0.7174 -1.5328  1.1756
   64MOL   H12031746   2.548   1.020   2.870 -1.9040  1.3477 -0.2543
   64MOL   H12131747   2.652   1.013   2.740  0.6501 -0.7543  0.3527
   64MOL   H12231748   2.840   1.094   2.872 -0.7028  0.6390  0.0618
   64MOL   H12331749   2.751   1.166   2.991 -0.6044 -0.2233 -1.7984
   64MOL   H12431750   2.816   0.869   2.960 -1.3445  0.0249 -1.1002
   64MOL   H12531751   2.847   0.992   3.094 -0.3863  0.5618  0.2710
   64MOL   H12631752   2.681   0.927   3.052 -0.2548  0.6249 -1.5167
   64MOL   C12731753   2.253   1.444   2.344  0.4481  0.3402  0.7058
   64MOL   C12831754   2.372   1.398   2.263  0.5498 -0.3438  0.2309
   64MOL   O12931755   2.444   1.512   2.248  0.3844  0.1875  0.1082
   64MOL   C13031756   2.581   1.481   2.220  0.1290  0.3091  0.4040
   64MOL   C13131757   2.655   1.610   2.171 -0.1703  0.5887 -0.1315
   64MOL   C13231758   2.641   1.728   2.265 -0.3555 -0.3027 -0.0413
   64MOL   C13331759   2.729   1.845   2.232  0.2878 -0.1217  0.7900
   64MOL   C13431760   2.764   1.927   2.352  0.1545 -0.0883  0.4457
   64MOL   C13531761   2.850   2.053   2.337  0.0593  0.4006 -0.4157
   64MOL   H13631762   2.175   1.369   2.332  0.8981  0.3052 -2.4805
   64MOL   H13731763   2.201   1.531   2.303  0.8957  0.3779  0.2141
   64MOL   H13831764   2.423   1.319   2.317  1.5175  0.2290  0.1724
   64MOL   H13931765   2.601   1.403   2.146  1.2216  0.1762  0.8359
   64MOL   H14031766   2.614   1.443   2.316  0.9629 -1.6644 -0.6257
   64MOL   H14131767   2.619   1.642   2.073  1.0441 -0.4035 -0.9160
   64MOL   H14231768   2.759   1.587   2.149 -1.1068 -2.2298 -1.8701
   64MOL   H14331769   2.536   1.757   2.271  0.2801  2.3737 -0.7982
   64MOL   H14431770   2.673   1.707   2.366  0.2345  0.4813 -0.0575
   64MOL   H14531771   2.819   1.811   2.183 -1.5584 -1.7608 -1.5462
   64MOL   H14631772   2.681   1.907   2.156  3.1666 -0.0540 -1.0333
   64MOL   H14731773   2.671   1.958   2.400  0.3156  0.8377  0.1736
   64MOL   H14831774   2.817   1.867   2.427  1.0736  1.4862  1.0781
   64MOL   H14931775   2.812   2.122   2.262  0.5652  0.6435 -0.4508
   64MOL   H15031776   2.860   2.111   2.428  2.2177  1.0070 -0.9932
   64MOL   H15131777   2.954   2.028   2.313  0.4650 -0.1658  1.8055
   64MOL   C15231778   2.334   1.347   2.129 -0.0898  0.0423  0.3879
   64MOL   C15331779   2.281   1.205   2.137  0.2088  0.0464  0.3663
   64MOL   O15431780   2.211   1.172   2.019 -0.7797 -0.2625 -0.4004
   64MOL   C15531781   2.069   1.169   2.032  0.3933  0.4229 -0.1781
   64MOL   C15631782   2.019   1.183   1.886 -0.3816  0.1288  0.1830
   64MOL   C15731783   2.048   1.320   1.813  0.0941 -0.3494 -0.1820
   64MOL   C15831784   1.991   1.319   1.672  0.1423 -0.1408 -0.3195
   64MOL   C15931785   1.996   1.461   1.612  0.1044  0.1927  1.4888
   64MOL   C16031786   1.955   1.465   1.466  0.3619  0.8001  0.1677
   64MOL   H16131787   2.257   1.409   2.083  1.1783  0.5463 -1.0726
   64MOL   H16231788   2.407   1.347   2.049 -0.1189 -3.0131  0.3034
   64MOL   H16331789   2.220   1.193   2.227  0.4896  0.6488  0.6467
   64MOL   H16431790   2.020   1.257   2.075 -0.4397 -1.0999  2.0975
   64MOL   H16531791   2.026   1.083   2.084  1.7520  0.9397  1.8573
   64MOL   H16631792   1.910   1.172   1.890 -0.0921 -4.0116 -0.5850
   64MOL   H16731793   2.053   1.095   1.830 -0.0961  0.3357  0.0331
   64MOL   H16831794   1.998   1.400   1.869  3.1394  0.3779  1.5961
   64MOL   H16931795   2.156   1.334   1.814  0.3816 -2.4982  0.8368
   64MOL   H17031796   2.039   1.244   1.609  0.6738 -0.0310 -0.0543
   64MOL   H17131797   1.885   1.298   1.681 -0.0339 -0.1098 -2.1391
   64MOL   H17231798   1.928   1.520   1.672  0.5218 -0.1985  2.3483
   64MOL   H17331799   2.093   1.510   1.619  0.0865  0.3485  0.7633
   64MOL   H17431800   2.027   1.407   1.409  0.5282  1.1240  0.0476
   64MOL   H17531801   1.855   1.424   1.457  0.3609  0.9582 -0.5619
   64MOL   H17631802   1.956   1.569   1.431  2.2431  0.4515 -0.8625
   64MOL   C17731803   2.399   1.099   2.154  0.2828 -0.3732  0.0465
   64MOL   C17831804   2.355   0.956   2.182  0.2281 -0.3492 -0.7249
   64MOL   O17931805   2.465   0.865   2.164  0.3420 -0.0104  0.2522
   64MOL   C18031806   2.495   0.831   2.028  0.4314 -0.4547  0.6469
   64MOL   C18131807   2.601   0.723   2.031  0.3670  0.0599  0.4709
   64MOL   C18231808   2.536   0.585   2.051  0.0329 -0.1444  0.3354
   64MOL   C18331809   2.632   0.468   2.073 -0.8791 -0.4989  0.4501
   64MOL   C18431810   2.565   0.339   2.059  0.0904 -0.7755 -0.4661
   64MOL   C18531811   2.539   0.279   1.922 -0.4437 -0.3029  0.2471
   64MOL   H18631812   2.448   1.100   2.057  0.0570 -0.0360 -0.0691
   64MOL   H18731813   2.470   1.144   2.224 -0.0958  0.8276 -0.3186
   64MOL   H18831814   2.270   0.931   2.119 -1.1449  1.0406  0.5034
   64MOL   H18931815   2.537   0.917   1.976 -0.9962 -1.0172 -1.5090
   64MOL   H19031816   2.406   0.814   1.967  1.2661  0.5130 -0.8703
   64MOL   H19131817   2.674   0.728   2.113  1.7716  0.7676 -0.8066
   64MOL   H19231818   2.670   0.736   1.948 -0.7690 -0.5613 -0.5875
   64MOL   H19331819   2.471   0.603   2.136 -1.3251  1.4137 -0.9953
   64MOL   H19431820   2.477   0.567   1.961 -0.2043  0.2628  0.4097
   64MOL   H19531821   2.717   0.469   2.004 -0.0375 -1.2080  1.4622
   64MOL   H19631822   2.675   0.473   2.173 -2.0402 -1.4498  1.0029
   64MOL   H19731823   2.628   0.263   2.106 -0.3451 -0.0859  1.3030
   64MOL   H19831824   2.480   0.341   2.128  0.2992  0.4737 -0.2403
   64MOL   H19931825   2.630   0.261   1.865 -1.0833  0.1086 -0.9076
   64MOL   H20031826   2.480   0.188   1.934 -2.3511  0.9445  0.5499
   64MOL   H20131827   2.479   0.342   1.856 -3.6134 -2.0744  1.3139
   64MOL   C20231828   2.319   0.949   2.335  0.8504  0.6884  0.8893
   64MOL   C20331829   2.240   0.823   2.387 -0.0659 -0.0974 -0.0239
   64MOL   O20431830   2.136   0.851   2.478 -0.1445 -0.3763 -0.8195
   64MOL   C20531831   2.017   0.899   2.412 -0.1193  0.2668  0.4735
   64MOL   C20631832   1.932   0.972   2.514 -0.5071  0.2633  0.3250
   64MOL   C20731833   1.799   1.039   2.473 -0.1910 -0.2347 -0.0699
   64MOL   C20831834   1.689   0.952   2.403  0.0375  0.4041  0.2503
   64MOL   C20931835   1.638   0.832   2.483  0.0108 -0.1731  0.1685
   64MOL   C21031836   1.595   0.723   2.382  0.0269 -0.0660 -0.1221
   64MOL   H21131837   2.414   0.963   2.386  0.2244 -0.3759  2.4057
   64MOL   H21231838   2.263   1.033   2.376 -0.2402  0.5126 -0.2293
   64MOL   H21331839   2.209   0.768   2.297 -1.8273  0.9286 -0.0592
   64MOL   H21431840   1.964   0.815   2.368 -0.3703  1.1360 -0.8844
   64MOL   H21531841   2.051   0.951   2.323 -2.2933 -1.9440 -1.6978
   64MOL   H21631842   1.991   1.054   2.555 -0.7414  0.5868  0.0218
   64MOL   H21731843   1.912   0.902   2.594  0.3706 -0.9469 -0.4911
   64MOL   H21831844   1.765   1.094   2.561 -0.3301 -1.8008  0.8731
   64MOL   H21931845   1.825   1.125   2.412  0.7737  0.1241  0.8277
   64MOL   H22031846   1.610   1.014   2.360 -1.4175 -1.5806  0.0167
   64MOL   H22131847   1.731   0.909   2.313  0.9114  2.8239 -0.5525
   64MOL   H22231848   1.698   0.795   2.567 -1.5346  1.4854  2.0611
   64MOL   H22331849   1.543   0.843   2.535 -1.2103 -0.3644 -1.9814
   64MOL   H22431850   1.677   0.677   2.326 -1.4693 -0.7356 -1.8053
   64MOL   H22531851   1.532   0.654   2.438  0.8816  0.4106  1.4737
   64MOL   H22631852   1.536   0.766   2.301  1.9195 -1.2203 -2.1961
   64MOL   C22731853   2.328   0.716   2.458 -0.6329 -0.2348  0.0618
   64MOL   C22831854   2.260   0.579   2.469  0.2238  0.0672  0.1989
   64MOL   O22931855   2.257   0.532   2.331  0.6680 -0.4123  0.7250
   64MOL   C23031856   2.130   0.474   2.296 -0.4413 -0.4451  0.8365
   64MOL   C23131857   2.134   0.439   2.148 -0.6618 -0.3839 -0.0864
   64MOL   C23231858   2.128   0.568   2.053  0.1895 -0.1351  0.2763
   64MOL   C23331859   2.110   0.533   1.906  0.3641  0.0052 -0.8627
   64MOL   C23431860   2.111   0.661   1.812 -0.1657 -0.7427 -0.2915
   64MOL   C23531861   2.112   0.633   1.656 -0.2107  0.1650 -0.4012
   64MOL   H23631862   2.419   0.710   2.399 -0.8853 -2.4708 -0.1417
   64MOL   H23731863   2.364   0.754   2.554 -0.0648 -0.6491  0.0107
   64MOL   H23831864   2.162   0.587   2.515 -0.0756 -1.6491 -0.0961
   64MOL   H23931865   2.053   0.547   2.320  1.2977  1.1779  1.6482
   64MOL   H24031866   2.103   0.392   2.363 -2.4421  1.0262  1.8873
   64MOL   H24131867   2.059   0.362   2.132  0.1967 -0.9560 -1.4125
   64MOL   H24231868   2.231   0.396   2.125  0.0779  1.8473 -1.3195
   64MOL   H24331869   2.045   0.633   2.080 -0.3454 -1.1825  1.1957
   64MOL   H24431870   2.220   0.619   2.083 -0.1569  0.1152  0.9206
   64MOL   H24531871   2.189   0.464   1.875  1.4369  0.8505 -0.0413
   64MOL   H24631872   2.019   0.475   1.890  0.0304  0.4785 -0.6938
   64MOL   H24731873   2.024   0.718   1.844 -0.7362 -0.8015 -1.6687
   64MOL   H24831874   2.203   0.717   1.828 -0.9911  0.3449  0.6518
   64MOL   H24931875   2.023   0.582   1.618  0.1017 -0.5103 -0.2484
   64MOL   H25031876   2.113   0.727   1.601  2.7130  1.1206  1.2185
   64MOL   H25131877   2.207   0.588   1.630 -1.4846 -1.7457 -1.9059
   64MOL   C25231878   2.324   0.479   2.565 -0.0028 -0.4972  0.6946
   64MOL   C25331879   2.308   0.507   2.715 -0.8630  0.1471 -0.4951
   64MOL   O25431880   2.419   0.450   2.792 -0.4984 -0.7570 -0.0595
   64MOL   C25531881   2.492   0.541   2.869 -0.1547 -0.3602 -0.3424
   64MOL   C25631882   2.605   0.463   2.928 -0.4379  0.4010  0.4808
   64MOL   C25731883   2.553   0.365   3.034 -0.5969  0.2365  0.2799
   64MOL   C25831884   2.660   0.258   3.073 -0.2252  0.3374 -0.2923
   64MOL   C25931885   2.600   0.164   3.189 -0.7401  0.7629 -0.1873
   64MOL   C26031886   2.661   0.022   3.191 -0.1337  0.0327  0.2638
   64MOL   H26131887   2.300   0.374   2.554  0.8407 -0.5015 -1.2664
   64MOL   H26231888   2.432   0.480   2.549 -0.2953 -0.5432 -1.3381
   64MOL   H26331889   2.299   0.615   2.724 -2.3490  0.0910 -1.2098
   64MOL   H26431890   2.425   0.583   2.943 -1.9694 -1.2221 -1.4691
   64MOL   H26531891   2.526   0.625   2.809 -1.7082  0.9300  0.5632
   64MOL   H26631892   2.667   0.538   2.976  1.3474 -1.2099  0.7803
   64MOL   H26731893   2.665   0.411   2.853  2.0760  2.4554  1.0048
   64MOL   H26831894   2.502   0.411   3.119 -1.0848 -0.4038  0.3393
   64MOL   H26931895   2.470   0.309   2.990  2.0121 -1.3495 -2.8824
   64MOL   H27031896   2.683   0.204   2.980  2.2630  1.7769 -0.5595
   64MOL   H27131897   2.758   0.298   3.098 -1.3674  1.8681  1.8845
   64MOL   H27231898   2.610   0.214   3.285 -1.0938 -2.3307  1.5523
   64MOL   H27331899   2.493   0.158   3.167 -0.0866 -0.4723 -3.4247
   64MOL   H27431900   2.610   7.736   3.119 -1.6738  1.1917  0.2863
   64MOL   H27531901   2.769   0.018   3.179 -0.1537 -0.0501  0.1146
   64MOL   H27631902   2.645   7.756   3.289  0.4318 -2.1711 -0.6116
   64MOL   C27731903   2.171   0.459   2.763  0.5765  0.0857  0.1062
   64MOL   C27831904   2.113   0.513   2.893  0.3398 -0.0560  0.0885
   64MOL   O27931905   1.975   0.485   2.894 -0.2224 -0.4612  0.3905
   64MOL   C28031906   1.892   0.589   2.832  0.0394  0.3893 -0.0531
   64MOL   C28131907   1.750   0.579   2.905  0.0506  0.3506 -0.4698
   64MOL   C28231908   1.645   0.682   2.867  0.2474  0.7444 -0.3386
   64MOL   C28331909   1.514   0.681   2.955  0.5501 -0.1948  0.2616
   64MOL   C28431910   1.422   0.569   2.907 -0.1404  0.3843  0.4555
   64MOL   C28531911   1.370   0.576   2.762  1.1600  0.6026  0.2467
   64MOL   H28631912   2.108   0.480   2.677  0.0995 -1.1712  0.1338
   64MOL   H28731913   2.181   0.351   2.776 -1.5405 -0.2130 -0.6262
   64MOL   H28831914   2.132   0.620   2.897  1.6026 -0.1631 -2.0711
   64MOL   H28931915   1.885   0.573   2.724  0.9135  1.3097 -0.2623
   64MOL   H29031916   1.937   0.687   2.848  1.0430 -0.1729  0.6227
   64MOL   H29131917   1.764   0.580   3.013 -1.2367 -0.9452 -0.2736
   64MOL   H29231918   1.694   0.485   2.902  1.1241 -0.3040 -0.1414
   64MOL   H29331919   1.683   0.781   2.893 -0.3715  0.5100  1.5530
   64MOL   H29431920   1.627   0.697   2.760 -1.3100 -0.7068 -0.2999
   64MOL   H29531921   1.532   0.664   3.061  0.6941 -1.9132 -0.0363
   64MOL   H29631922   1.459   0.775   2.944  2.2468  0.7860 -0.0752
   64MOL   H29731923   1.471   0.472   2.916 -1.6742 -0.3011  1.8991
   64MOL   H29831924   1.338   0.553   2.976  0.5635 -1.7277  0.8702
   64MOL   H29931925   1.454   0.579   2.693 -0.0024 -0.5049 -1.2530
   64MOL   H30031926   1.309   0.487   2.743  2.0021  0.4323 -1.7130
   64MOL   H30131927   1.302   0.661   2.753  0.1431 -0.1772  0.3350
   64MOL   C30231928   2.171   0.437   3.018 -0.4636 -0.2471  0.2400
   64MOL   C30331929   2.151   0.523   3.146  0.3646 -0.0372 -0.2088
   64MOL   O30431930   2.232   0.637   3.111 -0.3441 -0.3259 -0.2203
   64MOL   C30531931   2.208   0.762   3.169  0.0813  1.0645 -0.4629
   64MOL   C30631932   2.284   0.873   3.097 -0.0736  0.2108  0.0531
   64MOL   C30731933   2.282   0.996   3.184 -0.4431 -0.6015 -0.5057
   64MOL   C30831934   2.379   1.104   3.136 -0.4256  1.0871 -0.2995
   64MOL   C30931935   2.370   1.228   3.224  0.3551  0.5355 -0.0696
   64MOL   C31031936   2.454   1.338   3.168 -0.0777 -0.6198 -0.0545
   64MOL   H31131937   2.129   0.337   3.016 -0.0461 -0.4066 -1.2771
   64MOL   H31231938   2.277   0.422   3.001 -0.4409 -1.0111  1.0454
   64MOL   H31331939   2.044   0.543   3.159  0.7273  0.9075  1.5387
   64MOL   H31431940   2.243   0.757   3.272  0.4155 -0.9999 -0.6706
   64MOL   H31531941   2.101   0.781   3.162 -0.4856 -2.0840 -0.8472
   64MOL   H31631942   2.243   0.902   3.000 -3.7702  1.6954  1.9649
   64MOL   H31731943   2.386   0.835   3.088 -0.0651  0.2371  0.0382
   64MOL   H31831944   2.188   1.050   3.185 -0.8547 -1.3190 -0.7551
   64MOL   H31931945   2.317   0.966   3.283  2.3763  0.4750 -1.1105
   64MOL   H32031946   2.484   1.078   3.147 -0.6173  0.2247 -0.4226
   64MOL   H32131947   2.365   1.129   3.031  1.4040  1.5395 -0.4548
   64MOL   H32231948   2.264   1.245   3.243  0.3394  0.6633 -0.2765
   64MOL   H32331949   2.399   1.191   3.322 -1.1328  0.1863  0.2525
   64MOL   H32431950   2.475   1.409   3.248 -1.3960 -0.1195 -0.1303
   64MOL   H32531951   2.543   1.288   3.131 -0.1735  0.2780 -1.5313
   64MOL   H32631952   2.403   1.390   3.087 -2.1745 -1.8494  0.4145
   64MOL   C32731953   2.216   0.450   3.265  0.4501 -0.6581 -0.0983
   64MOL   C32831954   2.150   0.321   3.320 -0.1496 -0.3326  1.0896
   64MOL   O32931955   2.244   0.284   3.423  0.1812 -0.7957  0.0655
   64MOL   C33031956   2.246   0.144   3.443  0.8463  0.1588  0.2471
   64MOL   C33131957   2.361   0.118   3.534  0.0999 -0.3415  0.0953
   64MOL   C33231958   2.392   7.750   3.568  0.4294  1.0572  0.1191
   64MOL   C33331959   2.521   7.743   3.658  0.1031  0.1258 -0.1123
   64MOL   C33431960   2.575   7.595   3.678 -0.0261  0.1668  0.3575
   64MOL   C33531961   2.490   7.525   3.775  0.1935 -0.6228 -0.6168
   64MOL   H33631962   2.218   0.524   3.345 -2.4791 -3.3059  2.5477
   64MOL   H33731963   2.322   0.447   3.242  0.1200  1.4471 -2.1033
   64MOL   H33831964   2.150   0.245   3.243 -0.4501  1.1904 -0.4458
   64MOL   H33931965   2.256   0.091   3.348  1.5225 -0.4129  0.6339
   64MOL   H34031966   2.151   0.111   3.484  0.9177  2.2672  2.1999
   64MOL   H34131967   2.337   0.166   3.629  2.3057 -0.1116  0.5665
   64MOL   H34231968   2.448   0.166   3.490 -0.7616  0.6318 -0.5573
   64MOL   H34331969   2.298   7.702   3.597 -0.1471  0.5534 -2.4067
   64MOL   H34431970   2.417   7.697   3.475 -2.8229  0.3428 -0.3977
   64MOL   H34531971   2.599   0.014   3.601  0.9919  1.4165  2.1802
   64MOL   H34631972   2.500   0.009   3.755  1.2954  0.8827 -0.1899
   64MOL   H34731973   2.590   7.552   3.579  0.2150  1.5023 -0.1862
   64MOL   H34831974   2.679   7.599   3.712 -0.2864 -1.3945  1.4113
   64MOL   H34931975   2.514   7.419   3.767 -1.6773 -1.1533  0.7091
   64MOL   H35031976   2.536   7.541   3.873 -0.3858 -0.0730 -0.4339
   64MOL   H35131977   2.383   7.542   3.766  0.7658  2.3255 -2.6175
   64MOL   C35231978   2.007   0.348   3.380  0.4913  0.3353  0.8714
   64MOL   C35331979   1.891   0.300   3.287 -0.0348 -0.6340 -0.5529
   64MOL   O35431980   1.759   0.341   3.337  0.3547  0.0080 -0.1063
   64MOL   C35531981   1.720   0.466   3.283 -0.3624  0.5026  0.4209
   64MOL   C35631982   1.579   0.491   3.336  0.0549  0.0090 -0.6809
   64MOL   C35731983   1.587   0.535   3.480 -0.3531  0.4671  0.1025
   64MOL   C35831984   1.461   0.609   3.530  0.6121 -0.0056 -0.3699
   64MOL   C35931985   1.331   0.531   3.560  0.3547  0.2108 -0.4874
   64MOL   C36031986   1.264   0.468   3.438  0.4519  0.1540  0.0291
   64MOL   H36131987   2.008   0.289   3.472 -1.1578  0.2718  0.8659
   64MOL   H36231988   1.999   0.451   3.414 -0.5793 -0.1464  2.1269
   64MOL   H36331989   1.920   0.340   3.190 -0.5092 -2.9918 -1.6821
   64MOL   H36431990   1.726   0.463   3.174  2.1236  2.0612  0.4667
   64MOL   H36531991   1.783   0.550   3.315 -0.9857  0.7684  0.9589
   64MOL   H36631992   1.508   0.412   3.309  1.0171 -1.6313  1.5037
   64MOL   H36731993   1.553   0.587   3.293  3.3887  1.9206  1.4210
   64MOL   H36831994   1.595   0.441   3.535 -1.1027  1.9098  2.7731
   64MOL   H36931995   1.682   0.589   3.487 -0.0461  0.0178 -0.6267
   64MOL   H37031996   1.502   0.652   3.621  1.8261 -2.6857  0.4021
   64MOL   H37131997   1.425   0.687   3.462  0.1028  2.0253  2.1869
   64MOL   H37231998   1.351   0.441   3.617  0.1666  1.0454  0.9299
   64MOL   H37331999   1.263   0.594   3.617 -0.5401 -1.9037  0.8245
   64MOL   H37432000   1.273   0.535   3.352  1.3768 -2.4897 -1.9961
   64MOL   H37532001   1.320   0.384   3.399  1.3175 -0.1314  1.8250
   64MOL   H37632002   1.161   0.437   3.456  0.0346  1.3471 -0.2250
   64MOL   C37732003   1.884   0.149   3.284 -0.3819  1.3108 -0.2124
   64MOL   C37832004   1.773   0.081   3.195  0.5536  0.5219 -0.2548
   64MOL   O37932005   1.779   0.135   3.062  0.2942  1.0544  0.6188
   64MOL   C38032006   1.866   0.049   2.984 -0.6786 -0.3385  0.0346
   64MOL   C38132007   1.850   0.093   2.845 -0.2026  0.4873  0.2437
   64MOL   C38232008   1.929   0.017   2.745 -0.2816 -0.0769 -0.3330
   64MOL   C38332009   1.947   0.085   2.613 -0.3382 -0.3082 -0.1633
   64MOL   C38432010   1.981   7.762   2.497 -0.3290 -0.0742 -0.0503
   64MOL   C38532011   2.010   0.057   2.370 -0.1343 -0.2573  0.1722
   64MOL   H38632012   1.982   0.105   3.271 -0.9278 -0.8206  2.4405
   64MOL   H38732013   1.869   0.117   3.387 -2.1237 -0.9874 -1.1408
   64MOL   H38832014   1.789   7.751   3.202 -0.6861  0.3312 -0.3071
   64MOL   H38932015   1.853   7.720   2.988 -1.0184 -0.2970  0.0638
   64MOL   H39032016   1.969   0.057   3.017 -0.2596 -0.6274 -1.1799
   64MOL   H39132017   1.857   0.202   2.839  0.0250  0.4406 -0.3572
   64MOL   H39232018   1.746   0.072   2.821 -0.3915  0.8426  0.7391
   64MOL   H39332019   2.032   7.778   2.778  0.6094  2.1680 -1.8125
   64MOL   H39432020   1.877   7.703   2.718  1.0784 -0.9389 -0.0850
   64MOL   H39532021   1.860   0.145   2.585  0.3975  0.7596 -0.1409
   64MOL   H39632022   2.022   0.163   2.618 -2.4973  2.0442 -2.6605
   64MOL   H39732023   2.066   7.700   2.524  0.0583  0.3368 -0.3350
   64MOL   H39832024   1.910   7.681   2.478 -0.8358  0.4695 -0.4920
   64MOL   H39932025   1.923   0.117   2.343 -0.7274 -0.7665  0.9520
   64MOL   H40032026   2.085   0.136   2.373 -0.7599  0.3646 -0.4442
   64MOL   H40132027   2.038   7.772   2.286  1.0220 -1.1055  1.1773
   64MOL   C40232028   1.632   0.108   3.251  0.4556  0.3820  0.0018
   64MOL   C40332029   1.530   0.001   3.218  0.6750  0.0548 -0.9559
   64MOL   O40432030   1.404   0.054   3.245 -0.0024  0.1408 -0.6343
   64MOL   C40532031   1.295   7.774   3.172  0.3261  0.3781 -0.0578
   64MOL   C40632032   1.184   0.096   3.183  0.3500 -0.3935  0.6446
   64MOL   C40732033   1.223   0.230   3.116  0.3460 -0.1215 -0.5263
   64MOL   C40832034   1.106   0.326   3.084 -0.0068 -0.0362  0.4424
   64MOL   C40932035   1.033   0.297   2.952  0.3183 -0.1600 -0.6010
   64MOL   C41032036   0.944   0.420   2.936  0.2100 -0.4513  0.1696
   64MOL   H41132037   1.608   0.207   3.211 -1.4996  0.0676  0.3641
   64MOL   H41232038   1.627   0.119   3.360  1.5900 -0.1660  0.1108
   64MOL   H41332039   1.532   7.754   3.112  1.2445 -1.1307 -0.6663
   64MOL   H41432040   1.271   7.677   3.216 -1.3863  0.6311 -0.3848
   64MOL   H41532041   1.319   7.768   3.066 -0.8503  0.0179 -0.3088
   64MOL   H41632042   1.160   0.121   3.286  0.0009  1.1987  0.1987
   64MOL   H41732043   1.086   0.064   3.146  0.5169 -0.6173  0.3918
   64MOL   H41832044   1.290   0.273   3.190  0.2037  0.1144 -0.5325
   64MOL   H41932045   1.287   0.216   3.029  1.7644  0.7739  0.3538
   64MOL   H42032046   1.039   0.324   3.169 -0.9687  0.0018 -0.3078
   64MOL   H42132047   1.158   0.422   3.073  2.7428 -1.3383  1.5935
   64MOL   H42232048   1.104   0.291   2.868 -0.0711  3.8989 -1.3414
   64MOL   H42332049   0.971   0.209   2.969 -0.5971  0.8297  1.2354
   64MOL   H42432050   0.897   0.457   3.027  1.1018 -0.2901  0.5629
   64MOL   H42532051   0.997   0.509   2.902 -1.8558  0.9437  0.4491
   64MOL   H42632052   0.864   0.399   2.864  0.2449 -0.0041 -0.0006
   64MOL   C42732053   1.549   7.655   3.310 -0.1597 -0.0071  0.0430
   64MOL   C42832054   1.517   7.520   3.247  0.6889 -0.0742 -0.3034
   64MOL   O42932055   1.582   7.512   3.124  0.0826  0.0062 -0.6229
   64MOL   C43032056   1.503   7.436   3.032  0.5001  0.3455  0.1020
   64MOL   C43132057   1.578   7.436   2.902 -0.6754 -0.4839 -0.4276
   64MOL   C43232058   1.587   7.576   2.829  0.1345 -0.0372  0.0660
   64MOL   C43332059   1.632   7.553   2.681 -0.1465 -0.4379 -0.6570
   64MOL   C43432060   1.613   7.675   2.583 -0.5736  0.1905  0.3020
   64MOL   C43532061   1.543   7.649   2.452  0.4208 -0.1831  1.0970
   64MOL   H43632062   1.656   7.651   3.332  0.1258  0.5095 -1.2345
   64MOL   H43732063   1.495   7.670   3.403  0.6225  1.2921  0.2892
   64MOL   H43832064   1.408   7.520   3.242  0.7387  1.0898 -1.6063
   64MOL   H43932065   1.404   7.478   3.010 -0.9586 -2.2634  1.5218
   64MOL   H44032066   1.491   7.334   3.067 -1.2364  1.0035  1.5478
   64MOL   H44132067   1.531   7.368   2.831 -0.3205 -0.0003 -1.1396
   64MOL   H44232068   1.683   7.412   2.916 -0.4123  0.6320 -0.3926
   64MOL   H44332069   1.488   7.621   2.822  0.1364 -0.4713 -3.8743
   64MOL   H44432070   1.652   7.641   2.887  0.6116 -1.3612  1.0484
   64MOL   H44532071   1.729   7.506   2.663  1.3748  2.6483 -0.9919
   64MOL   H44632072   1.565   7.476   2.644 -0.4585 -0.3809 -0.2171
   64MOL   H44732073   1.567   7.764   2.625  1.0250  0.0689  2.3684
   64MOL   H44832074   1.713   7.707   2.553 -0.4789 -0.7019 -0.3635
   64MOL   H44932075   1.445   7.602   2.463  0.9314 -1.4784  0.2973
   64MOL   H45032076   1.531   7.735   2.387 -1.3124 -0.5437  0.9347
   64MOL   H45132077   1.596   7.569   2.399 -1.5202 -0.7275 -0.0610
   64MOL   C45232078   1.565   7.401   3.331 -0.1211 -0.0624  0.7023
   64MOL   C45332079   1.478   7.372   3.460  0.8897 -0.6535 -0.4818
   64MOL   O45432080   1.568   7.336   3.559  0.2722 -0.1232 -0.2628
   64MOL   C45532081   1.562   7.424   3.673  0.3403  0.1184  0.5019
   64MOL   C45632082   1.619   7.348   3.794  0.0510  0.2405 -0.2446
   64MOL   C45732083   1.736   7.248   3.759 -0.2364 -0.2275 -0.0976
   64MOL   C45832084   1.779   7.152   3.868 -0.0821 -0.1496  0.0280
   64MOL   C45932085   1.785   7.203   4.013  0.0306  0.2649 -0.8412
   64MOL   C46032086   1.855   7.101   4.098 -0.2039  0.7842  0.0058
   64MOL   H46132087   1.574   7.313   3.267  2.5434 -0.0929  1.0506
   64MOL   H46232088   1.665   7.431   3.363 -0.4518  1.8864 -0.0546
   64MOL   H46332089   1.439   7.471   3.486  2.1601 -0.6396  1.4619
   64MOL   H46432090   1.465   7.450   3.717  0.5953  0.3514  0.9240
   64MOL   H46532091   1.618   7.516   3.658  0.8461  0.0395  1.8056
   64MOL   H46632092   1.542   7.298   3.852 -0.2032  0.2182 -0.5971
   64MOL   H46732093   1.653   7.425   3.863 -2.1638  0.3500  0.7704
   64MOL   H46832094   1.718   7.194   3.666  0.2443 -0.6466  0.0545
   64MOL   H46932095   1.829   7.297   3.732  1.5410 -2.2180  2.1124
   64MOL   H47032096   1.722   7.059   3.858 -1.5254  0.7826 -0.5568
   64MOL   H47132097   1.882   7.123   3.847  0.0220 -0.7417  1.3409
   64MOL   H47232098   1.848   7.292   4.019  0.9703 -0.2393 -2.8998
   64MOL   H47332099   1.686   7.234   4.047 -0.0117 -1.4679  0.6629
   64MOL   H47432100   1.786   7.018   4.097 -0.8363  1.2643 -3.2064
   64MOL   H47532101   1.950   7.068   4.056  0.4864 -0.1377  2.2112
   64MOL   H47632102   1.875   7.127   4.202  1.8969  2.7957 -0.8170
   64MOL   C47732103   1.364   7.270   3.445  0.0097 -0.5163  0.0281
   64MOL   C47832104   1.276   7.257   3.570 -0.9671 -0.6127 -0.0623
   64MOL   O47932105   1.187   7.153   3.570  0.0238  0.3968  0.2635
   64MOL   C48032106   1.064   7.180   3.495  0.7760 -1.2123  0.9836
   64MOL   C48132107   0.989   7.050   3.457 -0.2653 -0.4101 -0.2964
   64MOL   C48232108   0.947   6.962   3.584 -0.1245  0.6148  0.4084
   64MOL   C48332109   0.914   6.819   3.544  0.5601 -0.2374 -0.4765
   64MOL   C48432110   0.848   6.729   3.662 -0.3015  0.1061  0.3679
   64MOL   C48532111   0.725   6.791   3.721  0.3720 -0.1138 -0.2324
   64MOL   H48632112   1.310   7.307   3.358 -0.2632  0.0276  0.4275
   64MOL   H48732113   1.401   7.173   3.411 -1.6496 -1.0170 -0.4061
   64MOL   H48832114   1.340   7.236   3.655  0.1883  0.8318 -0.5559
   64MOL   H48932115   1.092   7.240   3.409  0.6230 -0.5264  1.4079
   64MOL   H49032116   1.002   7.252   3.549 -0.3686  0.7756 -2.7716
   64MOL   H49132117   1.057   6.988   3.398 -3.7572 -3.1841 -1.5351
   64MOL   H49232118   0.905   7.070   3.391 -1.2361 -3.0788  0.0760
   64MOL   H49332119   1.031   6.961   3.654 -0.3922  0.2587  0.7262
   64MOL   H49432120   0.861   7.021   3.615 -1.6168 -2.4531  2.4407
   64MOL   H49532121   0.836   6.813   3.469 -0.3811  1.3935  0.3716
   64MOL   H49632122   1.001   6.779   3.490  0.1032  0.5930 -1.8520
   64MOL   H49732123   0.835   6.623   3.638 -0.8390  0.2813 -0.1238
   64MOL   H49832124   0.930   6.726   3.734  1.5750 -0.1689 -1.7072
   64MOL   H49932125   0.705   6.754   3.821  1.6138  2.2053  0.8958
   64MOL   H50032126   0.742   6.894   3.753 -0.8084  0.0243 -0.0188
   64MOL   H50132127   0.635   6.783   3.659 -0.0161  0.6465  0.2221
   64MOL   H50232128   1.241   7.360   3.577  0.8357 -0.0309  0.6210
   65MOL     C132129   0.155   3.001   7.445 -0.4390 -0.2145 -0.3329
   65MOL     C232130   0.191   2.900   7.552 -0.1025  0.1279 -0.2349
   65MOL     O332131   0.109   2.783   7.531 -0.6985  0.0577  0.3568
   65MOL     C432132   0.168   2.669   7.586 -0.6861 -0.5616  0.6267
   65MOL     C532133   0.085   2.542   7.554 -0.0197 -0.3267  0.0521
   65MOL     C632134   0.168   2.412   7.576  0.3043 -0.1305 -0.3022
   65MOL     C732135   0.086   2.297   7.517  0.7333 -0.2007  0.0467
   65MOL     C832136   0.160   2.170   7.510  0.2447 -0.4134  0.7402
   65MOL     C932137   0.068   2.060   7.458  0.1412  0.1447  0.7696
   65MOL    H1032138   0.165   2.961   7.344  1.1883 -1.7055  0.3992
   65MOL    H1132139   0.054   3.031   7.473 -1.5291 -2.9945 -1.1780
   65MOL    H1232140   0.292   2.870   7.524  0.2786 -0.7060  1.9667
   65MOL    H1332141   0.177   2.671   7.694  0.9638 -0.8653  0.4953
   65MOL    H1432142   0.260   2.668   7.527 -0.2182  0.9327  1.3179
   65MOL    H1532143   0.048   2.553   7.452 -2.0024 -1.3890  0.6153
   65MOL    H1632144   7.778   2.543   7.622  0.1482  1.8774  0.2796
   65MOL    H1732145   0.255   2.416   7.510 -0.5551  1.8305 -1.3648
   65MOL    H1832146   0.197   2.383   7.677  1.1616 -0.1090 -0.5321
   65MOL    H1932147   7.774   2.275   7.573  1.0877 -1.6374  0.0656
   65MOL    H2032148   0.045   2.329   7.422 -0.6166  2.4392  1.4450
   65MOL    H2132149   0.202   2.145   7.607  1.5223  2.3414  0.9326
   65MOL    H2232150   0.246   2.184   7.444  1.2371 -0.1786  2.0754
   65MOL    H2332151   0.114   1.961   7.457 -0.2203 -0.0331  1.6001
   65MOL    H2432152   7.765   2.036   7.527  1.1455 -2.2177  1.1871
   65MOL    H2532153   0.032   2.078   7.357  2.3057 -0.4991 -0.1479
   65MOL    H2632154   0.234   3.076   7.433 -1.2458  0.6791 -0.1690
   65MOL    C2732155   0.174   2.955   7.694  0.0723  0.3887  0.8816
   65MOL    C2832156   0.280   3.060   7.737 -0.5054  1.2019 -0.5720
   65MOL    O2932157   0.255   3.181   7.656  0.2662 -0.7003  0.0884
   65MOL    C3032158   0.364   3.269   7.638  1.0157  0.4697  0.2673
   65MOL    C3132159   0.329   3.400   7.573  0.3828 -0.2634  0.2716
   65MOL    C3232160   0.397   3.512   7.634 -0.2505  0.7961  0.1793
   65MOL    C3332161   0.328   3.562   7.758 -0.2490 -0.1172 -0.2287
   65MOL    C3432162   0.369   3.705   0.009  0.3516  0.2986 -0.6349
   65MOL    C3532163   0.278   3.770   0.111 -0.2939  0.3032 -0.6396
   65MOL    H3632164   0.069   2.979   7.704  0.1519  0.8886  0.5150
   65MOL    H3732165   0.194   2.872   7.763 -0.4002  1.0919  1.8741
   65MOL    H3832166   0.378   3.014   7.721 -0.3173  0.7682  1.6687
   65MOL    H3932167   0.445   3.254   7.566  0.2869 -0.4742 -0.3668
   65MOL    H4032168   0.407   3.289   7.736  0.8978 -1.2076  0.6744
   65MOL    H4132169   0.222   3.420   7.577  0.4383 -0.1125  1.2031
   65MOL    H4232170   0.358   3.398   7.468  2.3404  0.7567  0.7802
   65MOL    H4332171   0.498   3.481   7.661 -0.4768  0.2074  0.3471
   65MOL    H4432172   0.394   3.599   7.567 -1.9156 -0.3415 -1.2487
   65MOL    H4532173   0.221   3.561   7.739 -0.2106  0.6896 -0.4911
   65MOL    H4632174   0.352   3.505   0.069  2.7378  0.0574 -0.8424
   65MOL    H4732175   0.472   3.711   0.045 -0.0216  1.9533  0.2093
   65MOL    H4832176   0.364   3.767   7.697 -0.2244  2.2333  0.6796
   65MOL    H4932177   0.174   3.745   0.089 -0.3214  0.1608 -0.3555
   65MOL    H5032178   0.301   3.735   0.211  1.5318  1.2099 -0.7297
   65MOL    H5132179   0.285   3.878   0.099  1.8132  0.1913 -0.6099
   65MOL    C5232180   0.261   3.099   0.106  0.2661 -0.2522  0.0926
   65MOL    C5332181   0.223   2.996   0.207 -0.3173  0.5890 -0.6085
   65MOL    O5432182   0.322   2.896   0.212 -0.3486 -0.0983 -0.0902
   65MOL    C5532183   0.287   2.774   0.285 -0.7652 -0.0669 -0.6450
   65MOL    C5632184   0.412   2.685   0.263  0.2195 -0.1473 -0.3526
   65MOL    C5732185   0.412   2.620   0.120 -0.6593 -0.5905  0.0486
   65MOL    C5832186   0.550   2.550   0.095  0.2490  0.2612  0.4980
   65MOL    C5932187   0.583   2.503   7.732  0.3275 -0.5032  0.3219
   65MOL    C6032188   0.733   2.472   7.723  0.0772 -0.5053  0.2466
   65MOL    H6132189   0.201   3.189   0.120  1.1404  0.1739  1.2241
   65MOL    H6232190   0.362   3.128   0.136  0.7849 -0.0695 -1.7731
   65MOL    H6332191   0.129   2.942   0.195 -0.5058  0.7585  0.0723
   65MOL    H6432192   0.202   2.725   0.237 -0.9488 -0.5088  0.1301
   65MOL    H6532193   0.263   2.779   0.391 -1.5020  4.1009 -0.9546
   65MOL    H6632194   0.414   2.604   0.336 -0.0390 -0.2892 -0.5006
   65MOL    H6732195   0.507   2.731   0.287 -1.0684  2.2186  0.4012
   65MOL    H6832196   0.333   2.547   0.102 -0.1314 -0.6396 -2.3145
   65MOL    H6932197   0.407   2.706   0.053  1.5014  0.9947  1.8333
   65MOL    H7032198   0.627   2.623   0.120 -0.7442  1.1644  0.9755
   65MOL    H7132199   0.568   2.461   0.155  0.8732  0.0333 -0.0289
   65MOL    H7232200   0.521   2.419   7.701 -0.6359 -0.0288  0.9387
   65MOL    H7332201   0.562   2.584   7.662 -0.6434 -0.1837  0.9734
   65MOL    H7432202   0.760   2.429   7.626 -0.1971 -1.2884  0.5142
   65MOL    H7532203   0.796   2.561   7.719 -3.0473  1.7367 -0.8518
   65MOL    H7632204   0.767   2.407   0.025  1.3107  0.4281  0.5079
   65MOL    C7732205   0.218   3.062   0.345 -0.0183  0.2030  0.3439
   65MOL    C7832206   0.094   3.152   0.379 -0.2365  0.3075  0.2353
   65MOL    O7932207   0.132   3.263   0.458 -0.0031  0.1457  0.6206
   65MOL    C8032208   0.075   3.391   0.423 -0.9229 -0.8300  0.4258
   65MOL    C8132209   0.131   3.507   0.511 -0.5791  0.6586  0.3097
   65MOL    C8232210   0.078   3.646   0.474 -0.1294 -0.2279  0.3089
   65MOL    C8332211   0.127   3.753   0.565  0.6498 -0.5198  0.6652
   65MOL    C8432212   0.090   3.892   0.501 -0.1340  0.4470  0.6130
   65MOL    C8532213   0.183   4.011   0.536 -0.8524  0.3094 -0.8324
   65MOL    H8632214   0.301   3.132   0.359 -1.0414  1.3900  0.5054
   65MOL    H8732215   0.234   2.989   0.424 -1.4262 -1.5872 -0.9717
   65MOL    H8832216   0.057   3.201   0.290  2.0842  0.2871 -0.7784
   65MOL    H8932217   7.745   3.383   0.430 -1.0094 -0.2932 -0.2486
   65MOL    H9032218   0.105   3.420   0.322 -1.7151  1.9002  0.9279
   65MOL    H9132219   0.239   3.508   0.495 -0.0886  0.8145  3.3763
   65MOL    H9232220   0.108   3.480   0.614 -0.1802  1.9455  0.7451
   65MOL    H9332221   0.099   3.660   0.368 -1.0231  1.9622  0.4009
   65MOL    H9432222   7.749   3.636   0.491  0.0803  1.8176  3.2002
   65MOL    H9532223   0.087   3.745   0.667 -0.9483  0.2277  0.1258
   65MOL    H9632224   0.235   3.745   0.563  0.5737 -1.4676  0.0407
   65MOL    H9732225   0.097   3.890   0.392  1.2681  1.4023  0.6800
   65MOL    H9832226   7.762   3.916   0.513 -0.2551  1.4160 -2.0346
   65MOL    H9932227   0.287   4.010   0.503 -0.5886  2.3035 -0.1107
   65MOL   H10032228   0.150   4.114   0.521 -4.8089 -0.4870  1.6134
   65MOL   H10132229   0.201   4.008   0.644 -0.3345 -0.6959 -0.9355
   65MOL   C10232230   7.757   3.080   0.460  0.4442  0.4881 -0.1601
   65MOL   C10332231   7.677   2.975   0.383  0.5271  0.3690  1.3893
   65MOL   O10432232   7.598   2.893   0.469 -0.0427 -0.9173  0.1951
   65MOL   C10532233   7.667   2.774   0.513 -0.2527 -0.6573 -0.7037
   65MOL   C10632234   7.576   2.700   0.604 -0.8654 -0.8581  0.2899
   65MOL   C10732235   7.622   2.560   0.634  0.2646 -0.0632 -0.1188
   65MOL   C10832236   7.514   2.477   0.721 -0.0676 -0.6130 -0.0255
   65MOL   C10932237   7.543   2.327   0.745 -0.1994 -0.5642 -0.1839
   65MOL   C11032238   7.658   2.310   0.854 -0.2716  0.1126 -0.3273
   65MOL   H11132239   0.012   3.032   0.552  1.9885  1.9814  0.0765
   65MOL   H11232240   7.691   3.161   0.492 -1.0454 -0.8336  0.1386
   65MOL   H11332241   7.752   2.915   0.331 -0.1942 -1.2268  2.1576
   65MOL   H11432242   7.751   2.804   0.574 -1.7514 -1.0654  1.6190
   65MOL   H11532243   7.707   2.706   0.438  4.3662 -0.3723  1.3295
   65MOL   H11632244   7.483   2.686   0.549  0.4882 -2.3452 -1.6817
   65MOL   H11732245   7.564   2.754   0.698  0.7775  0.9008 -0.4773
   65MOL   H11832246   7.649   2.509   0.542 -0.3053 -0.3437 -0.1310
   65MOL   H11932247   7.717   2.567   0.688 -0.7887  1.0719  1.6394
   65MOL   H12032248   7.524   2.514   0.823  0.4036 -1.0111  0.0769
   65MOL   H12132249   7.410   2.475   0.691  0.0290 -0.1351 -0.3852
   65MOL   H12232250   7.454   2.275   0.780  0.4972 -3.3163 -2.2682
   65MOL   H12332251   7.572   2.272   0.655  2.7387 -0.0271  0.3778
   65MOL   H12432252   7.629   2.323   0.958 -1.5261 -1.6704 -0.4191
   65MOL   H12532253   7.686   2.206   0.838 -0.9383 -0.0624 -0.3554
   65MOL   H12632254   7.744   2.376   0.841 -0.7845  0.6415 -1.0480
   65MOL   C12732255   7.591   3.043   0.286  0.6478 -0.4197 -0.8863
   65MOL   C12832256   7.503   2.946   0.195 -0.9975 -0.0042 -0.1613
   65MOL   O12932257   7.591   2.853   0.117  0.0033  0.6092 -0.4465
   65MOL   C13032258   7.581   2.715   0.161  0.2517  0.8044  0.0632
   65MOL   C13132259   7.684   2.633   0.076  0.4829 -0.8343  0.5115
   65MOL   C13232260   7.676   2.476   0.103 -0.0133 -0.5218  0.1238
   65MOL   C13332261   7.750   2.426   0.225  0.9239  0.5823  0.1998
   65MOL   C13432262   7.733   2.279   0.263  0.3168 -0.2750  0.0840
   65MOL   C13532263   0.048   2.197   0.177 -0.5050 -0.3017  0.3497
   65MOL   H13632264   7.527   3.120   0.329  0.0392 -0.3725 -1.8623
   65MOL   H13732265   7.637   3.107   0.212 -0.9770  0.0466 -1.5148
   65MOL   H13832266   7.419   2.904   0.251  1.2922 -2.0891  1.8117
   65MOL   H13932267   7.480   2.683   0.133  0.1908  1.4063 -0.4063
   65MOL   H14032268   7.589   2.705   0.270 -2.7206 -1.4176  0.1460
   65MOL   H14132269   0.007   2.669   0.092  0.0789  0.1694  0.8512
   65MOL   H14232270   7.651   2.663   7.754 -0.8297  1.0094  1.4727
   65MOL   H14332271   7.574   2.440   0.094 -0.2501  0.6566 -2.0445
   65MOL   H14432272   7.719   2.430   0.014 -1.1797 -1.6744  0.1312
   65MOL   H14532273   0.076   2.459   0.221  0.5820  1.4734 -1.5273
   65MOL   H14632274   7.718   2.487   0.309 -0.2649  1.6746 -1.0242
   65MOL   H14732275   7.752   2.265   0.369 -1.0550 -5.1254 -0.2110
   65MOL   H14832276   7.629   2.249   0.247  0.2512  1.0791 -2.2785
   65MOL   H14932277   0.050   2.094   0.213 -1.2726 -0.4398  0.0165
   65MOL   H15032278   0.027   2.208   0.070  0.6764 -0.8979  0.0461
   65MOL   H15132279   0.152   2.228   0.183  0.3047 -2.7612 -0.4275
   65MOL   C15232280   7.442   3.027   0.073 -0.4075  0.3550  0.6549
   65MOL   C15332281   7.382   2.930   7.744 -0.4759  0.8109 -0.5558
   65MOL   O15432282   7.254   2.887   0.002  0.1771 -0.3945 -0.6872
   65MOL   C15532283   7.211   2.772   7.713  0.5162  1.0535 -0.0347
   65MOL   C15632284   7.133   2.676   0.023 -0.6469 -0.2880  0.4311
   65MOL   C15732285   7.063   2.560   7.731 -0.1605  0.1597 -0.5724
   65MOL   C15832286   6.933   2.598   7.646 -0.5793  0.0721  0.4988
   65MOL   C15932287   6.854   2.470   7.600  0.3731  0.1281 -0.3386
   65MOL   C16032288   6.805   2.404   7.731 -0.0218  0.1150 -0.1156
   65MOL   H16132289   7.378   3.110   0.105  0.9847  1.9876 -0.7400
   65MOL   H16232290   7.526   3.073   0.023  0.4771 -0.5688  1.2698
   65MOL   H16332291   7.449   2.848   7.719  1.0393  1.8113  0.1513
   65MOL   H16432292   7.292   2.725   7.658  0.8149  1.6153 -0.0839
   65MOL   H16532293   7.150   2.807   7.630  2.3677 -0.4071 -2.0601
   65MOL   H16632294   7.060   2.732   0.083 -0.8075  2.8867 -2.5686
   65MOL   H16732295   7.209   2.647   0.095 -2.1813 -0.3247  2.0846
   65MOL   H16832296   7.136   2.510   7.667 -0.2561 -0.7752  0.0394
   65MOL   H16932297   7.041   2.485   0.029 -0.6446  2.0683  1.1852
   65MOL   H17032298   6.867   2.660   7.706  0.1154  0.3025  1.0327
   65MOL   H17132299   6.965   2.655   7.559 -0.7967  1.6122  1.4079
   65MOL   H17232300   6.767   2.502   7.543  0.2686  0.0279 -0.2366
   65MOL   H17332301   6.926   2.418   7.537  0.3844 -1.1457  0.6917
   65MOL   H17432302   6.865   2.353   0.027 -0.5272 -1.1629 -0.5479
   65MOL   H17532303   6.754   2.481   0.010  1.4322  0.0709  1.2568
   65MOL   H17632304   6.723   2.335   7.705 -0.3626  0.8224 -0.9408
   65MOL   C17732305   7.370   3.015   7.618  0.4218 -0.2608 -0.3597
   65MOL   C17832306   7.490   3.031   7.525  0.1992 -0.4293  0.5285
   65MOL   O17932307   7.500   2.937   7.411  0.1304 -0.1913 -0.2527
   65MOL   C18032308   7.558   2.812   7.426 -0.4244 -0.2476 -0.5474
   65MOL   C18132309   7.575   2.741   7.290 -0.3636 -0.2775 -0.7691
   65MOL   C18232310   7.690   2.794   7.216  0.6194 -0.3551 -0.2242
   65MOL   C18332311   7.690   2.757   7.067 -0.2275 -1.1806  1.2110
   65MOL   C18432312   0.043   2.809   7.004  0.0729  0.3982 -0.1089
   65MOL   C18532313   0.061   2.769   6.860  0.3474 -0.1038 -0.2888
   65MOL   H18632314   7.287   2.981   7.556 -0.0279  0.8723 -0.3936
   65MOL   H18732315   7.331   3.109   7.658 -1.6622 -1.4125  0.3551
   65MOL   H18832316   7.579   3.021   7.587  0.9095 -1.1931 -0.5934
   65MOL   H18932317   7.481   2.753   7.475  0.5740 -2.5775 -1.7312
   65MOL   H19032318   7.643   2.812   7.493 -0.4141 -1.7313 -0.5565
   65MOL   H19132319   7.482   2.743   7.232 -0.8433  1.9425  0.0436
   65MOL   H19232320   7.600   2.636   7.306 -0.0205  0.1262  1.5544
   65MOL   H19332321   7.669   2.901   7.216 -1.2326 -0.7101  1.0612
   65MOL   H19432322   0.009   2.777   7.263  0.5941 -0.7531 -0.3147
   65MOL   H19532323   7.687   2.651   7.040  2.5657 -1.0567  0.2394
   65MOL   H19632324   7.608   2.806   7.014 -0.7897 -0.8356  2.3741
   65MOL   H19732325   0.053   2.917   7.014  3.0818  0.2187 -0.7856
   65MOL   H19832326   0.123   2.771   7.067 -2.5794 -0.9996  2.5700
   65MOL   H19932327   0.005   2.835   6.794  0.4603 -0.2029 -0.4845
   65MOL   H20032328   0.158   2.771   6.811  1.0078 -0.3072  0.9992
   65MOL   H20132329   0.037   2.663   6.846  0.6890 -0.0401 -1.3460
   65MOL   C20232330   7.494   3.168   7.455 -0.1683 -0.1881 -0.2321
   65MOL   C20332331   7.613   3.258   7.500 -0.0336 -0.7149 -0.9222
   65MOL   O20432332   7.592   3.281   7.640 -0.3442 -0.6631 -0.4260
   65MOL   C20532333   7.709   3.290   7.722  0.1495 -0.3723 -0.0015
   65MOL   C20632334   7.692   3.382   0.068  0.2314  0.4596 -0.0888
   65MOL   C20732335   7.682   3.532   0.015  0.2846 -0.2014 -0.2593
   65MOL   C20832336   7.637   3.652   0.109 -0.2216  0.4624 -0.1505
   65MOL   C20932337   7.580   3.769   0.033 -0.2798  0.0864 -0.9561
   65MOL   C21032338   7.553   3.888   0.122  0.0609 -0.4192  0.2100
   65MOL   H21132339   7.509   3.159   7.347  0.2922  0.1448 -0.1940
   65MOL   H21232340   7.399   3.220   7.464 -0.6383 -1.0020 -0.3833
   65MOL   H21332341   7.699   3.194   7.482  1.2053  0.2796  1.1955
   65MOL   H21432342   0.020   3.320   7.668  0.5100 -2.1395 -0.4190
   65MOL   H21532343   7.723   3.186   7.753  1.4052 -0.2415 -0.1133
   65MOL   H21632344   0.001   3.377   0.132  1.7580 -2.9526 -2.3128
   65MOL   H21732345   7.605   3.342   0.121  1.5404 -2.2303  0.0586
   65MOL   H21832346   7.765   3.565   7.731  0.4265 -0.0374  0.0121
   65MOL   H21932347   7.612   3.526   7.711  1.1193 -0.1688 -0.9821
   65MOL   H22032348   7.570   3.620   0.189 -2.6173  1.9375 -1.5296
   65MOL   H22132349   7.724   3.694   0.161  0.2562  1.7144 -1.9177
   65MOL   H22232350   7.655   3.799   7.738  0.2760  0.4963 -0.2281
   65MOL   H22332351   7.493   3.728   7.760 -0.9795  2.4082 -1.6993
   65MOL   H22432352   7.524   3.970   0.056 -1.2337 -0.9758  0.0760
   65MOL   H22532353   7.477   3.867   0.197 -0.5268 -0.1064 -0.2916
   65MOL   H22632354   7.638   3.932   0.175 -1.1693  1.3154  0.7969
   65MOL   C22732355   7.625   3.398   7.428 -0.0056 -0.1541 -0.1328
   65MOL   C22832356   7.614   3.399   7.275 -0.4032 -0.3374  0.4186
   65MOL   O22932357   7.478   3.408   7.249 -0.0118 -0.1656 -0.0109
   65MOL   C23032358   7.432   3.349   7.130 -0.2629 -0.2354  0.0845
   65MOL   C23132359   7.285   3.374   7.129 -0.6936 -0.0970  1.0268
   65MOL   C23232360   7.205   3.290   7.226  0.6875  0.2449 -0.4776
   65MOL   C23332361   7.050   3.288   7.225  0.8349 -0.3802 -0.5669
   65MOL   C23432362   6.999   3.412   7.292  0.4679  0.5163 -0.0216
   65MOL   C23532363   6.847   3.440   7.268 -0.1088  0.0749  0.2159
   65MOL   H23632364   7.548   3.459   7.475 -1.3121 -1.9547  0.1231
   65MOL   H23732365   7.721   3.439   7.461 -0.4933  2.5337 -1.8769
   65MOL   H23832366   7.650   3.303   7.239  0.0483 -0.1632  0.4000
   65MOL   H23932367   7.454   3.242   7.134 -0.7409 -0.2927  1.5260
   65MOL   H24032368   7.487   3.390   7.046  2.0615  1.7843  2.5124
   65MOL   H24132369   7.237   3.371   7.031  1.1602  1.0253  0.0652
   65MOL   H24232370   7.273   3.477   7.162 -0.5750  0.2730 -0.0663
   65MOL   H24332371   7.242   3.188   7.227 -2.4467 -0.9225 -1.1168
   65MOL   H24432372   7.232   3.318   7.328 -0.8245 -1.7585  0.4999
   65MOL   H24532373   7.005   3.287   7.125 -0.6814 -1.8130  0.0995
   65MOL   H24632374   7.009   3.205   7.282  1.5414 -1.4785 -1.6371
   65MOL   H24732375   7.009   3.406   7.401  1.8996  0.4608 -0.1558
   65MOL   H24832376   7.060   3.498   7.267  0.7429  0.7510  1.4061
   65MOL   H24932377   6.825   3.459   7.163  1.6642  2.3978  0.2167
   65MOL   H25032378   6.780   3.375   7.324  3.3141 -1.8367  2.2588
   65MOL   H25132379   6.827   3.535   7.319  0.4283 -0.0394  0.6529
   65MOL   C25232380   7.703   3.517   7.216 -0.1333 -0.1629 -0.2294
   65MOL   C25332381   0.075   3.507   7.233 -0.2353  0.6606 -0.1521
   65MOL   O25432382   0.121   3.639   7.227 -0.2730  0.1963  0.4181
   65MOL   C25532383   0.156   3.710   7.343  0.6161  0.7051 -0.1898
   65MOL   C25632384   0.213   3.848   7.304  0.8564 -0.7075 -0.2105
   65MOL   C25732385   0.245   3.941   7.420 -1.2888 -0.7760  0.5872
   65MOL   C25832386   0.286   4.079   7.374 -0.7005 -0.3214  0.2191
   65MOL   C25932387   0.425   4.093   7.315  0.6106 -0.3072 -0.3100
   65MOL   C26032388   0.424   4.212   7.220 -0.1656 -0.3790 -0.0514
   65MOL   H26132389   7.666   3.533   7.115  1.3829  0.0859 -0.7690
   65MOL   H26232390   7.669   3.606   7.270  0.9739  0.7352 -0.9627
   65MOL   H26332391   0.102   3.472   7.333 -0.9472  2.1572  0.5873
   65MOL   H26432392   0.222   3.632   7.381  0.2868 -0.5879 -2.2000
   65MOL   H26532393   0.073   3.729   7.412  1.0571  4.1625 -0.5357
   65MOL   H26632394   0.138   3.887   7.236 -0.4898 -1.2876  0.9072
   65MOL   H26732395   0.304   3.826   7.248  1.8158 -1.4587  1.6049
   65MOL   H26832396   0.153   3.961   7.475 -0.3201 -0.1200  2.0112
   65MOL   H26932397   0.312   3.901   7.496  0.7954  1.3071 -0.1186
   65MOL   H27032398   0.201   4.106   7.312  0.1445  0.2225 -0.7097
   65MOL   H27132399   0.282   4.141   7.464 -2.6539 -0.2215  0.0866
   65MOL   H27232400   0.503   4.114   7.388 -0.5595 -0.2016  0.9208
   65MOL   H27332401   0.445   3.997   7.267 -2.3923 -1.5299  0.7643
   65MOL   H27432402   0.519   4.259   7.195 -0.0064 -0.7356 -0.1180
   65MOL   H27532403   0.369   4.176   7.133 -0.7928 -0.7476  0.4926
   65MOL   H27632404   0.371   4.301   7.255 -0.4673  1.0749 -3.9847
   65MOL   C27732405   0.137   3.417   7.136  0.3616 -0.2484  0.3615
   65MOL   C27832406   0.291   3.411   7.142 -0.4223  0.3585  0.1821
   65MOL   O27932407   0.321   3.295   7.065  0.5156 -0.1139 -0.6200
   65MOL   C28032408   0.354   3.181   7.143  0.7809  0.5645  0.1439
   65MOL   C28132409   0.423   3.071   7.053 -0.0609 -0.7165 -0.5468
   65MOL   C28232410   0.489   2.970   7.154 -0.1735  0.2814 -0.4448
   65MOL   C28332411   0.569   2.853   7.087  0.8065  1.0691 -0.4653
   65MOL   C28432412   0.652   2.769   7.175 -0.1095  0.4326  0.0921
   65MOL   C28532413   0.700   2.634   7.111  0.4822  0.0333 -0.1534
   65MOL   H28632414   0.110   3.313   7.155  0.6685 -0.7855 -2.0486
   65MOL   H28732415   0.102   3.451   7.038 -0.6029  1.7761  1.3530
   65MOL   H28832416   0.318   3.409   7.247 -0.4294  0.3462  0.1840
   65MOL   H28932417   0.271   3.136   7.197 -0.0372  0.2860 -1.2978
   65MOL   H29032418   0.424   3.217   7.218 -0.2341  1.9861  0.4408
   65MOL   H29132419   0.491   3.101   6.974  1.7069 -2.6234  0.2069
   65MOL   H29232420   0.344   3.023   6.995 -0.0056 -1.8103  0.2704
   65MOL   H29332421   0.552   3.021   7.227  0.0226 -0.3407 -0.1725
   65MOL   H29432422   0.409   2.934   7.219  0.6521  0.0561  0.4757
   65MOL   H29532423   0.504   2.795   7.023  0.6046 -1.0148  1.5677
   65MOL   H29632424   0.645   2.907   7.030  0.1962  1.2803 -1.0864
   65MOL   H29732425   0.738   2.820   7.220  1.1603 -2.1655  0.7224
   65MOL   H29832426   0.595   2.732   7.261 -1.6574 -0.4030 -1.2753
   65MOL   H29932427   0.726   2.558   7.185 -0.2064 -2.2563 -2.2397
   65MOL   H30032428   0.629   2.580   7.049  0.4835  0.6877 -0.7219
   65MOL   H30132429   0.785   2.652   7.046  0.6774 -0.3218  0.0006
   65MOL   C30232430   0.358   3.519   7.066 -0.3048 -0.4332  0.2451
   65MOL   C30332431   0.514   3.509   7.085  0.3655  0.7436  0.1494
   65MOL   O30432432   0.564   3.617   7.158 -0.0047 -0.1061  0.3097
   65MOL   C30532433   0.542   3.606   7.301  0.0181 -0.0099  0.5934
   65MOL   C30632434   0.601   3.726   7.376 -0.3524 -0.2652  0.0130
   65MOL   C30732435   0.757   3.718   7.384 -0.1707  0.0499 -0.2345
   65MOL   C30832436   0.819   3.801   7.498  0.4340  0.1923 -0.3441
   65MOL   C30932437   0.757   3.944   7.518  0.8952  0.0691 -0.1623
   65MOL   C31032438   0.785   4.032   7.402  0.5089 -0.1218 -0.3347
   65MOL   H31132439   0.342   3.508   6.958  0.5746 -2.2650  0.2848
   65MOL   H31232440   0.316   3.614   7.097  0.0060 -0.8603  2.0229
   65MOL   H31332441   0.538   3.415   7.136  1.1865  0.6327 -0.4334
   65MOL   H31432442   0.589   3.516   7.340  0.9390  0.9736  1.8283
   65MOL   H31532443   0.437   3.589   7.325 -0.2583  0.7024 -0.0536
   65MOL   H31632444   0.566   3.727   7.479 -3.7178  0.0404 -1.0618
   65MOL   H31732445   0.578   3.816   7.319  0.9203 -0.8145 -1.3956
   65MOL   H31832446   0.794   3.616   7.392 -1.2729 -0.4852 -1.7889
   65MOL   H31932447   0.801   3.757   7.292 -1.5575  2.9206  0.2654
   65MOL   H32032448   0.802   3.746   7.591 -2.3188 -1.0869 -1.5696
   65MOL   H32132449   0.926   3.810   7.478  0.3840  1.4937 -0.0738
   65MOL   H32232450   0.650   3.939   7.538  0.7619 -0.2992 -0.9706
   65MOL   H32332451   0.802   3.977   7.612 -1.0096 -1.0241  1.1788
   65MOL   H32432452   0.887   4.051   7.369  0.5947  0.3026  0.1578
   65MOL   H32532453   0.748   3.978   7.315  1.3183  0.8091 -1.2546
   65MOL   H32632454   0.741   4.130   7.418 -0.1060 -0.7124  1.8061
   65MOL   C32732455   0.594   3.501   6.946 -0.1140  0.6893 -0.2915
   65MOL   C32832456   0.727   3.412   6.949  0.1411 -1.1798  0.1951
   65MOL   O32932457   0.780   3.428   6.822  0.4521  0.4001  0.1239
   65MOL   C33032458   0.755   3.318   6.734 -0.5663 -1.1136 -0.2621
   65MOL   C33132459   0.826   3.360   6.608 -0.5342 -0.1311  0.2751
   65MOL   C33232460   0.983   3.370   6.616  0.1064  0.1237  0.6038
   65MOL   C33332461   1.048   3.400   6.486 -1.5243  0.0297  0.0573
   65MOL   C33432462   1.202   3.376   6.493  0.7865  0.0548 -0.3952
   65MOL   C33532463   1.264   3.395   6.348 -0.1604  0.0846  0.1028
   65MOL   H33632464   0.629   3.603   6.930  1.9375 -0.1833 -1.5339
   65MOL   H33732465   0.541   3.458   6.861  2.8207 -0.9719 -1.3381
   65MOL   H33832466   0.714   3.306   6.972  1.3830 -1.0053  1.8463
   65MOL   H33932467   0.648   3.317   6.713 -0.5816  0.3586 -0.2999
   65MOL   H34032468   0.795   3.221   6.763  3.0501  0.6007  0.8492
   65MOL   H34132469   0.783   3.452   6.568 -0.4673  0.3814  1.3675
   65MOL   H34232470   0.800   3.290   6.528  1.0147 -1.6676  1.0587
   65MOL   H34332471   1.014   3.439   6.694  1.5771 -2.8522  2.7347
   65MOL   H34432472   1.018   3.271   6.644 -0.3940 -0.6690 -1.4319
   65MOL   H34532473   0.997   3.349   6.405 -1.2840 -2.3944  1.3963
   65MOL   H34632474   1.035   3.506   6.464 -1.5860 -0.3889 -2.0270
   65MOL   H34732475   1.244   3.450   6.561 -2.4184 -0.0664  1.8019
   65MOL   H34832476   1.236   3.283   6.539 -0.9526 -0.2585  0.3049
   65MOL   H34932477   1.372   3.397   6.360 -0.3852  0.8897  2.0786
   65MOL   H35032478   1.228   3.318   6.279 -0.0955 -0.3901  0.5987
   65MOL   H35132479   1.232   3.492   6.309  1.5677  0.9048  0.6792
   65MOL   C35232480   0.825   3.453   7.059 -0.0432 -0.0388  0.2326
   65MOL   C35332481   0.941   3.355   7.076  0.0308  0.9167  0.1017
   65MOL   O35432482   0.968   3.321   7.207 -0.3507  0.5602 -0.2027
   65MOL   C35532483   0.886   3.219   7.267  0.1364  0.2904  0.1983
   65MOL   C35632484   0.893   3.241   7.419  0.0635  0.6958 -0.3330
   65MOL   C35732485   0.810   3.135   7.490  0.2350 -0.3376 -0.2883
   65MOL   C35832486   0.792   3.165   7.635 -0.3986 -0.2077  0.3083
   65MOL   C35932487   0.748   3.042   7.712  0.4561 -0.0157 -0.9225
   65MOL   C36032488   0.719   3.062   0.083  0.2002  0.5747  0.4626
   65MOL   H36132489   0.839   3.561   7.063  0.4447  0.0229 -2.1864
   65MOL   H36232490   0.763   3.453   7.149  2.4234 -0.5575  1.9814
   65MOL   H36332491   0.916   3.262   7.023 -0.1990  1.3436 -0.5501
   65MOL   H36432492   0.922   3.122   7.235  4.3563  2.1179 -0.8919
   65MOL   H36532493   0.781   3.229   7.239  0.6098  3.3628 -0.7295
   65MOL   H36632494   0.839   3.334   7.438  2.4835  2.0266  0.2085
   65MOL   H36732495   0.994   3.242   7.459 -0.2629  1.5272  0.5019
   65MOL   H36832496   0.712   3.126   7.444 -0.4399  0.3399  0.9984
   65MOL   H36932497   0.855   3.037   7.473 -2.0802 -1.3256 -0.9407
   65MOL   H37032498   0.886   3.204   7.675  0.0703 -1.5327  0.5364
   65MOL   H37132499   0.727   3.250   7.656  0.0465  0.2688 -0.2199
   65MOL   H37232500   0.649   3.020   7.673  0.2935  1.7393 -1.5607
   65MOL   H37332501   0.819   2.961   7.702 -1.2459 -1.6783  0.2327
   65MOL   H37432502   0.661   2.976   0.116  0.2062  1.0190  1.6435
   65MOL   H37532503   0.817   3.062   0.130  0.6293 -1.4538 -0.3733
   65MOL   H37632504   0.664   3.154   0.102 -0.6929 -0.2116  1.7464
   65MOL   C37732505   1.063   3.422   7.008  0.5476  0.2441 -0.2567
   65MOL   C37832506   1.194   3.336   7.014  1.2983 -0.2998 -0.3502
   65MOL   O37932507   1.304   3.413   6.973  0.5495 -0.1147  0.1968
   65MOL   C38032508   1.367   3.485   7.077 -0.1958  0.3613  0.2100
   65MOL   C38132509   1.489   3.558   7.027 -0.3866 -0.2700  0.6662
   65MOL   C38232510   1.571   3.629   7.131 -0.5418 -0.4290 -0.0993
   65MOL   C38332511   1.694   3.707   7.072 -0.4798 -0.9754 -0.1543
   65MOL   C38432512   1.798   3.744   7.184  0.4493 -0.7924 -0.0511
   65MOL   C38532513   1.945   3.769   7.133  0.1584 -0.5770  0.8816
   65MOL   H38632514   1.032   3.466   6.913 -2.6878 -1.6645 -0.1639
   65MOL   H38732515   1.084   3.511   7.068  0.8847 -0.2957  0.4253
   65MOL   H38832516   1.205   3.287   7.111 -0.6002  0.6007  0.3553
   65MOL   H38932517   1.404   3.418   7.155  0.9845  0.4474 -0.2583
   65MOL   H39032518   1.296   3.558   7.116 -1.9855 -1.4866  0.4844
   65MOL   H39132519   1.465   3.631   6.950  0.5712 -1.2755 -0.5928
   65MOL   H39232520   1.545   3.480   6.976  0.2010 -0.1266  1.0820
   65MOL   H39332521   1.512   3.700   7.189 -1.4255 -0.0994 -1.3948
   65MOL   H39432522   1.612   3.550   7.194  1.9299  0.1169 -0.9538
   65MOL   H39532523   1.751   3.655   6.995  0.8079  0.5270 -0.2158
   65MOL   H39632524   1.656   3.794   7.019  0.3382 -1.3272 -1.3380
   65MOL   H39732525   1.760   3.831   7.238  0.0863 -1.7011  1.1870
   65MOL   H39832526   1.808   3.668   7.262  2.3680 -1.0962 -0.5793
   65MOL   H39932527   1.932   3.821   7.038  0.5451 -1.7984  0.1415
   65MOL   H40032528   1.994   3.838   7.203 -1.4064  2.0976 -0.6000
   65MOL   H40132529   2.000   3.677   7.113  1.3406  0.0865  1.0285
   65MOL   C40232530   1.189   3.217   6.914 -0.3069 -0.1217  0.5938
   65MOL   C40332531   1.304   3.111   6.917  0.3782  0.2236 -0.0443
   65MOL   O40432532   1.285   3.013   6.811 -0.0333  0.3909 -0.4400
   65MOL   C40532533   1.362   3.032   6.695  0.0438 -0.1986  0.6282
   65MOL   C40632534   1.331   2.928   6.595 -0.1224 -0.3498  0.2000
   65MOL   C40732535   1.245   2.978   6.482  0.6097  0.2906 -1.0855
   65MOL   C40832536   1.179   2.872   6.386 -0.3053 -0.7113 -0.6826
   65MOL   C40932537   1.282   2.803   6.303 -0.2851  0.2822  0.4907
   65MOL   C41032538   1.233   2.686   6.225  0.1472  0.5430  0.4320
   65MOL   H41132539   1.178   3.253   6.812  2.2268  1.0635  0.6915
   65MOL   H41232540   1.095   3.167   6.934 -0.8357  0.6480  0.0804
   65MOL   H41332541   1.396   3.165   6.894 -0.0524 -0.4080 -3.4665
   65MOL   H41432542   1.469   3.025   6.714  0.4134 -1.1274 -1.6279
   65MOL   H41532543   1.353   3.136   6.665  0.2946 -0.9214 -2.0141
   65MOL   H41632544   1.293   2.844   6.654  0.3223 -1.1540 -0.6448
   65MOL   H41732545   1.425   2.884   6.564 -1.8192 -3.5015 -0.7336
   65MOL   H41832546   1.165   3.023   6.541  0.4604 -0.6673 -0.5566
   65MOL   H41932547   1.280   3.058   6.417  0.6914  0.1036 -1.2696
   65MOL   H42032548   1.139   2.803   6.461  3.4230  1.1891  3.2928
   65MOL   H42132549   1.099   2.916   6.326  1.5379 -0.3704 -2.9246
   65MOL   H42232550   1.322   2.861   6.220 -0.1211  0.1854  0.5027
   65MOL   H42332551   1.357   2.753   6.364 -1.5547 -2.5763 -0.1967
   65MOL   H42432552   1.220   2.600   6.290 -1.2627  0.1908 -0.2977
   65MOL   H42532553   1.147   2.712   6.164 -0.2609  0.5959  1.0316
   65MOL   H42632554   1.314   2.657   6.158 -1.1293 -1.6715 -0.1826
   65MOL   C42732555   1.312   3.035   7.049 -0.2960  0.3603 -0.1565
   65MOL   C42832556   1.448   2.963   7.066  0.5226 -0.2616 -0.0522
   65MOL   O42932557   1.471   2.961   7.205 -0.4723 -0.2435  0.1897
   65MOL   C43032558   1.547   3.077   7.249  0.0758  0.2863 -0.4518
   65MOL   C43132559   1.545   3.080   7.401 -0.2908  0.7657 -0.0800
   65MOL   C43232560   1.415   3.135   7.456 -0.2865 -0.4661  0.2389
   65MOL   C43332561   1.413   3.151   7.606 -0.1783  0.5224  0.4375
   65MOL   C43432562   1.286   3.202   7.670  0.0910  0.2179  0.0721
   65MOL   C43532563   1.279   3.188   0.045 -0.9807  0.1275  0.1876
   65MOL   H43632564   1.290   3.109   7.126 -0.6989  0.0134  0.0576
   65MOL   H43732565   1.240   2.954   7.051 -1.0850  1.0702  0.4123
   65MOL   H43832566   1.526   3.017   7.012 -0.7105 -0.0096 -1.5984
   65MOL   H43932567   1.509   3.168   7.203 -3.5082 -0.7439  0.2906
   65MOL   H44032568   1.639   3.063   7.193  0.0640 -0.3576 -0.3170
   65MOL   H44132569   1.628   3.148   7.421 -1.2865  2.3031 -1.1163
   65MOL   H44232570   1.565   2.977   7.432  2.8725  1.6169  0.9088
   65MOL   H44332571   1.395   3.239   7.427  1.4853  0.3767  1.8856
   65MOL   H44432572   1.329   3.084   7.414 -0.3298  0.2566 -0.5758
   65MOL   H44532573   1.433   3.051   7.644 -0.2257 -0.7602 -2.7711
   65MOL   H44632574   1.501   3.208   7.638 -0.5925  1.6956 -0.4843
   65MOL   H44732575   1.273   3.306   7.641 -1.0474  0.6846  2.1903
   65MOL   H44832576   1.207   3.136   7.635  0.5573 -2.2651  3.4688
   65MOL   H44932577   1.363   3.242   0.089 -0.4957 -0.1035 -0.4518
   65MOL   H45032578   1.186   3.223   0.091 -1.2403 -0.4119  0.0786
   65MOL   H45132579   1.287   3.082   0.069 -2.9245 -0.1939 -0.4508
   65MOL   C45232580   1.447   2.819   7.012 -0.0647  0.4292  0.2280
   65MOL   C45332581   1.596   2.780   6.987 -0.5017 -0.4455  0.3723
   65MOL   O45432582   1.645   2.855   6.875 -0.1280  0.5305 -0.1015
   65MOL   C45532583   1.784   2.899   6.889  0.4275  0.3092  0.6542
   65MOL   C45632584   1.812   2.980   6.761  0.4172  0.3812 -0.0295
   65MOL   C45732585   1.748   3.116   6.776 -0.2449  0.0150  0.1950
   65MOL   C45832586   1.725   3.185   6.639  0.5494  0.6635 -0.3105
   65MOL   C45932587   1.707   3.338   6.629 -0.7418  0.1851 -0.6240
   65MOL   C46032588   1.562   3.380   6.643  0.4487  0.3447 -0.4369
   65MOL   H46132589   1.389   2.745   7.067 -0.8442  0.7592 -0.1308
   65MOL   H46232590   1.389   2.819   6.919  2.6246  2.0827 -1.5417
   65MOL   H46332591   1.656   2.802   7.075 -0.8459  0.6084  0.3465
   65MOL   H46432592   1.853   2.815   6.891 -1.5516 -1.4054 -0.5144
   65MOL   H46532593   1.802   2.955   6.980 -1.4218  0.0431  1.2157
   65MOL   H46632594   1.779   2.924   6.673  2.0197 -0.3799 -0.1707
   65MOL   H46732595   1.918   3.000   6.745  0.1678  1.8966  0.1907
   65MOL   H46832596   1.657   3.100   6.833  0.0149 -1.5196  0.2057
   65MOL   H46932597   1.814   3.175   6.840 -1.6352  0.8273  0.8946
   65MOL   H47032598   1.816   3.165   6.583 -0.4431 -1.4909 -1.2219
   65MOL   H47132599   1.637   3.139   6.593  0.4095  1.0825 -0.4600
   65MOL   H47232600   1.780   3.383   6.696 -0.2691 -2.2964  0.5829
   65MOL   H47332601   1.748   3.378   6.535 -1.4590  2.3920 -0.0331
   65MOL   H47432602   1.540   3.486   6.643 -1.8682 -0.1058 -1.0533
   65MOL   H47532603   1.492   3.332   6.573 -0.8832  1.1602  0.3245
   65MOL   H47632604   1.520   3.347   6.738  1.9092  0.9013  0.4211
   65MOL   C47732605   1.615   2.629   6.944  0.2992  0.3634  0.5611
   65MOL   C47832606   1.602   2.521   7.052  0.0610  0.3401 -0.0290
   65MOL   O47932607   1.606   2.402   6.983 -0.4725  0.0271 -0.0200
   65MOL   C48032608   1.628   2.286   7.058  0.0568  0.1753  0.3470
   65MOL   C48132609   1.583   2.177   6.966 -0.4072  0.2768 -0.6025
   65MOL   C48232610   1.428   2.188   6.949  0.1242  0.5195 -0.2526
   65MOL   C48332611   1.361   2.081   6.866 -0.1102  0.3972 -0.2874
   65MOL   C48432612   1.209   2.111   6.846 -0.6750 -0.7445  0.2953
   65MOL   C48532613   1.142   2.014   6.747  0.1719  0.1385  0.2368
   65MOL   H48632614   1.564   2.601   6.852  2.9066  0.4384 -0.9293
   65MOL   H48732615   1.718   2.607   6.917 -0.0077  0.6489 -0.8636
   65MOL   H48832616   1.684   2.531   7.123 -0.2020  0.0818  0.3117
   65MOL   H48932617   1.569   2.282   7.150  1.8403  2.3970  1.6413
   65MOL   H49032618   1.727   2.267   7.098  1.7099  0.8988 -3.2338
   65MOL   H49132619   1.614   2.079   7.003  0.4639 -0.2517 -2.6709
   65MOL   H49232620   1.631   2.192   6.869  0.9598 -1.5115 -0.2361
   65MOL   H49332621   1.379   2.194   7.046 -1.0720  2.4934 -0.9667
   65MOL   H49432622   1.410   2.287   6.909 -2.2203  0.5772  0.8795
   65MOL   H49532623   1.404   2.084   6.766  1.0431 -1.2159  0.1501
   65MOL   H49632624   1.378   1.981   6.905  1.7526  0.8230  0.0121
   65MOL   H49732625   1.154   2.108   6.940 -0.1697 -0.6525  0.5945
   65MOL   H49832626   1.197   2.212   6.808  2.5832 -0.5320 -0.2972
   65MOL   H49932627   1.049   2.059   6.714  0.7480  0.0450 -1.5865
   65MOL   H50032628   1.214   2.010   6.665  0.3330  0.9703  0.3302
   65MOL   H50132629   1.124   1.914   6.786 -1.7254  0.8578  1.2395
   65MOL   H50232630   1.503   2.528   7.096  1.6728  2.9618  3.4482
   66MOL     C132631   6.605   0.602   6.767 -0.2723  0.2520  0.0946
   66MOL     C232632   6.583   0.606   6.624 -0.3083 -0.5461 -0.2983
   66MOL     O332633   6.650   0.724   6.595 -0.2972  0.0457 -0.7423
   66MOL     C432634   6.678   0.746   6.456  0.1919 -0.0658 -0.2444
   66MOL     C532635   6.767   0.869   6.451 -0.1803  0.4108 -0.4459
   66MOL     C632636   6.680   1.001   6.460 -0.1603  0.2098 -0.3208
   66MOL     C732637   6.754   1.141   6.479  0.7012  0.5584 -0.0063
   66MOL     C832638   6.660   1.260   6.462  0.1177  0.3968 -0.5004
   66MOL     C932639   6.739   1.392   6.438 -0.2754  0.0913 -0.0672
   66MOL    H1032640   6.542   0.521   6.806 -1.7302  0.3152 -2.0475
   66MOL    H1132641   6.707   0.582   6.799 -0.2404 -0.3775 -0.4004
   66MOL    H1232642   6.618   0.509   6.589 -0.9033 -0.6953 -0.4876
   66MOL    H1332643   6.599   0.746   6.382 -1.0079 -1.9222  1.0095
   66MOL    H1432644   6.739   0.659   6.432 -0.3901 -0.4487 -0.3333
   66MOL    H1532645   6.830   0.872   6.362  1.1980 -0.2658  0.4888
   66MOL    H1632646   6.839   0.882   6.532  0.3229 -0.7700 -0.6945
   66MOL    H1732647   6.628   1.016   6.366  0.4818 -1.0623 -0.8948
   66MOL    H1832648   6.606   0.988   6.539  0.5401 -0.5608  0.2123
   66MOL    H1932649   6.803   1.138   6.576 -3.5697 -0.9203  2.2531
   66MOL    H2032650   6.843   1.137   6.416  0.2000 -0.5354 -0.6689
   66MOL    H2132651   6.602   1.272   6.554  0.6601  0.1279 -0.1179
   66MOL    H2232652   6.588   1.246   6.382 -1.2271 -1.2719  0.9660
   66MOL    H2332653   6.684   1.486   6.430  0.6449  0.6791  0.4285
   66MOL    H2432654   6.813   1.413   6.515 -0.5938  1.9800 -0.2563
   66MOL    H2532655   6.793   1.383   6.344 -1.9286  1.4971 -1.2015
   66MOL    H2632656   6.580   0.690   6.826  1.3360  0.9308 -0.2302
   66MOL    C2732657   6.436   0.609   6.578 -0.1640 -0.1289  1.2689
   66MOL    C2832658   6.414   0.536   6.443 -0.1018 -0.0430  0.2561
   66MOL    O2932659   6.435   0.396   6.464  0.4976 -0.2286 -0.3270
   66MOL    C3032660   6.445   0.302   6.358 -0.6010  0.4429 -0.5252
   66MOL    C3132661   6.561   0.214   6.402 -1.0205  0.5089 -0.5397
   66MOL    C3232662   6.609   0.112   6.294  0.3953  0.6811 -0.6181
   66MOL    C3332663   6.684   7.775   6.347  0.0313  0.2666 -0.7191
   66MOL    C3432664   6.707   7.668   6.243 -0.5624  0.3003 -0.2532
   66MOL    C3532665   6.797   7.540   6.266  0.5815 -0.5639 -0.2649
   66MOL    H3632666   6.365   0.551   6.637 -1.2438 -0.1138  0.0097
   66MOL    H3732667   6.404   0.713   6.589  0.1646  0.2203 -0.8510
   66MOL    H3832668   6.474   0.571   6.359  0.8984  3.1124  2.1926
   66MOL    H3932669   6.468   0.363   6.271 -0.9501  0.1975 -0.7916
   66MOL    H4032670   6.355   0.243   6.346  1.4721 -2.8465 -0.4281
   66MOL    H4132671   6.525   0.159   6.489  0.7579 -0.8636 -0.6330
   66MOL    H4232672   6.648   0.275   6.424  0.3926 -1.9423  0.8931
   66MOL    H4332673   6.524   0.070   6.238 -0.0029  1.4501 -0.5916
   66MOL    H4432674   6.678   0.166   6.230  1.6958  0.8085  0.8796
   66MOL    H4532675   6.775   0.024   6.401 -1.1157  2.4336  0.1513
   66MOL    H4632676   6.624   7.729   6.426 -1.5957  0.4242 -1.8305
   66MOL    H4732677   6.605   7.640   6.215  0.1705 -0.8803 -1.8079
   66MOL    H4832678   6.752   7.719   6.158 -0.6622 -2.0108 -1.7228
   66MOL    H4932679   6.790   7.469   6.183 -0.5486 -2.2914  1.2850
   66MOL    H5032680   6.901   7.571   6.279  0.1865 -0.0008  1.6151
   66MOL    H5132681   6.770   7.485   6.356  1.6442  2.4412  1.9489
   66MOL    C5232682   6.270   0.560   6.386 -0.6303 -0.3463 -0.0529
   66MOL    C5332683   6.241   0.694   6.316 -0.6340 -0.0728 -0.1522
   66MOL    O5432684   6.313   0.704   6.198  0.0398 -0.4635  0.4033
   66MOL    C5532685   6.372   0.836   6.186 -0.0675 -0.0072  0.4005
   66MOL    C5632686   6.468   0.838   6.064  0.0706  0.6536  0.4566
   66MOL    C5732687   6.466   0.971   5.992 -0.3259  0.2840  0.5346
   66MOL    C5832688   6.558   0.979   5.864  0.5062 -0.1242 -0.5743
   66MOL    C5932689   6.568   1.122   5.806  0.4456  0.0317 -0.1679
   66MOL    C6032690   6.451   1.179   5.736  0.5645 -0.5230 -0.0921
   66MOL    H6132691   6.196   0.513   6.449 -0.0261 -0.2482  0.7351
   66MOL    H6232692   6.272   0.496   6.298  0.0396 -0.9725  0.4140
   66MOL    H6332693   6.258   0.778   6.384  0.6491 -1.2886  1.0587
   66MOL    H6432694   6.442   0.856   6.267  1.0044  2.9779 -1.1744
   66MOL    H6532695   6.300   0.917   6.178 -0.0742  0.1608  2.0310
   66MOL    H6632696   6.417   0.772   5.993 -0.2774  1.0659  0.3211
   66MOL    H6732697   6.565   0.800   6.096  1.2319  1.5706 -1.8760
   66MOL    H6832698   6.363   0.995   5.969  0.2954  0.8117 -1.8016
   66MOL    H6932699   6.494   1.043   6.069 -0.6043  2.2638 -1.1669
   66MOL    H7032700   6.653   0.943   5.903 -0.8290  0.1622  3.1272
   66MOL    H7132701   6.531   0.916   5.778  0.3655  0.8229 -1.2325
   66MOL    H7232702   6.601   1.192   5.883  0.4500  0.4166 -0.5145
   66MOL    H7332703   6.652   1.125   5.737  2.1692 -0.5914  1.8793
   66MOL    H7432704   6.367   1.180   5.806  1.7605 -0.4122  1.3862
   66MOL    H7532705   6.468   1.282   5.705  0.1455 -0.5946 -0.5534
   66MOL    H7632706   6.415   1.121   5.652 -1.7891  0.4904  0.1819
   66MOL    C7732707   6.090   0.698   6.282  0.3040  0.6152  0.4765
   66MOL    C7832708   6.041   0.827   6.206 -0.2816 -0.0668 -0.6249
   66MOL    O7932709   5.897   0.831   6.225 -0.0953  0.2920  0.2536
   66MOL    C8032710   5.862   0.886   6.348 -0.2813  1.1498 -0.0394
   66MOL    C8132711   5.709   0.910   6.345  0.5755 -0.5674  0.3557
   66MOL    C8232712   5.656   0.947   6.489 -0.2203 -1.0974 -0.1907
   66MOL    C8332713   5.507   0.950   6.486 -0.2209 -0.0455 -0.3341
   66MOL    C8432714   5.452   1.021   6.614 -0.3710 -0.4800  0.2896
   66MOL    C8532715   5.498   0.965   6.745  0.0489  0.7165  0.8332
   66MOL    H8632716   6.037   0.690   6.376  1.3154  1.8291  1.1691
   66MOL    H8732717   6.064   0.608   6.226 -1.3836  0.9474  0.7104
   66MOL    H8832718   6.086   0.919   6.243 -0.8739 -0.5377  1.2943
   66MOL    H8932719   5.917   0.974   6.380  2.0107 -0.1084 -0.3881
   66MOL    H9032720   5.872   0.814   6.430  1.9754  0.1081 -1.1926
   66MOL    H9132721   5.667   0.816   6.310 -0.2884  0.3704 -1.1858
   66MOL    H9232722   5.679   0.988   6.274 -1.4810  1.2902  3.1293
   66MOL    H9332723   5.700   0.886   6.568  0.1563  0.6433  0.9759
   66MOL    H9432724   5.699   1.043   6.517 -0.7165 -0.5349 -1.3402
   66MOL    H9532725   5.463   1.007   6.405  2.4986 -0.4478 -2.1394
   66MOL    H9632726   5.460   0.852   6.475 -2.9000  0.7840  2.7239
   66MOL    H9732727   5.487   1.124   6.607  1.2951 -1.0657 -0.2560
   66MOL    H9832728   5.344   1.009   6.607 -0.6159  0.4436  2.1337
   66MOL    H9932729   5.431   0.991   6.827 -0.9766  0.0609  0.2185
   66MOL   H10032730   5.509   0.857   6.750 -2.8847  0.3820  1.0046
   66MOL   H10132731   5.591   1.010   6.780 -0.6375  0.9633  2.3567
   66MOL   C10232732   6.075   0.847   6.054 -0.2647 -0.1838 -0.0792
   66MOL   C10332733   6.038   0.983   6.004 -0.3138  0.9026 -0.3779
   66MOL   O10432734   6.126   1.066   6.069  0.4463 -0.1537  0.7115
   66MOL   C10532735   6.061   1.169   6.140 -0.2744  0.4489  0.0478
   66MOL   C10632736   6.164   1.247   6.225  0.6628 -0.3388  0.2150
   66MOL   C10732737   6.267   1.321   6.135  0.5582 -0.0422 -1.0709
   66MOL   C10832738   6.383   1.405   6.202 -0.0180 -0.0213  0.2860
   66MOL   C10932739   6.497   1.434   6.107 -0.2428 -0.7036 -0.5177
   66MOL   C11032740   6.460   1.520   5.986  0.5900 -0.1573  0.2519
   66MOL   H11132741   6.178   0.828   6.026 -0.1181 -0.0219  0.3470
   66MOL   H11232742   6.008   0.771   6.013 -0.4446  0.5181 -1.0961
   66MOL   H11332743   5.935   1.008   6.030 -0.3911 -1.7303  2.1364
   66MOL   H11432744   5.984   1.130   6.206  0.1359 -1.6513 -0.6930
   66MOL   H11532745   6.010   1.237   6.071 -0.7425  0.4117  0.3576
   66MOL   H11632746   6.213   1.167   6.281  1.7913 -0.2145 -0.5709
   66MOL   H11732747   6.120   1.316   6.297  0.5129 -0.8319  0.6019
   66MOL   H11832748   6.316   1.244   6.075  0.0513 -2.9396  2.0868
   66MOL   H11932749   6.212   1.386   6.067 -2.4153 -0.7816  0.5161
   66MOL   H12032750   6.341   1.494   6.248 -0.1893  1.3491 -2.4091
   66MOL   H12132751   6.418   1.341   6.283  1.9900 -0.6715 -1.0474
   66MOL   H12232752   6.582   1.472   6.164  1.9885 -4.0867 -1.4482
   66MOL   H12332753   6.536   1.340   6.070 -0.8697  0.2448 -3.7710
   66MOL   H12432754   6.399   1.607   6.013  1.2413  0.3003  0.2612
   66MOL   H12532755   6.544   1.556   5.927 -1.5847  2.3546 -1.4368
   66MOL   H12632756   6.400   1.451   5.928  1.2871 -0.7907  0.2774
   66MOL   C12732757   6.055   0.995   5.853 -0.3961  0.5484  0.7224
   66MOL   C12832758   5.968   1.105   5.788  1.2696 -0.6633  0.6566
   66MOL   O12932759   5.879   1.034   5.699  0.1527  0.2969 -0.1884
   66MOL   C13032760   5.749   1.000   5.747  0.1207  0.1624 -0.5571
   66MOL   C13132761   5.668   0.942   5.623 -0.3308 -1.2327 -0.3806
   66MOL   C13232762   5.531   0.868   5.659 -0.3852  0.4419 -0.3611
   66MOL   C13332763   5.461   0.813   5.538 -0.1630 -0.3281  0.0062
   66MOL   C13432764   5.335   0.732   5.563 -0.0348 -0.0929 -0.0196
   66MOL   C13532765   5.361   0.599   5.635 -0.1627  0.2723 -1.0861
   66MOL   H13632766   6.162   1.007   5.836 -0.5093  0.5477 -0.0194
   66MOL   H13732767   6.034   0.896   5.813  0.2564  0.4800  0.5395
   66MOL   H13832768   5.907   1.154   5.863 -0.4712  0.3778 -1.3571
   66MOL   H13932769   5.691   1.083   5.789  3.3391  1.5557  1.3092
   66MOL   H14032770   5.768   0.923   5.822  2.1479 -0.5307 -1.7629
   66MOL   H14132771   5.728   0.877   5.560  2.4416  1.7059 -0.8962
   66MOL   H14232772   5.638   1.026   5.561  0.7336 -0.8197 -0.3410
   66MOL   H14332773   5.554   0.795   5.737 -0.4678  1.8294  0.9772
   66MOL   H14432774   5.470   0.948   5.699  2.4479  0.6043  3.8792
   66MOL   H14532775   5.444   0.889   5.462  1.7198  0.9481  0.8052
   66MOL   H14632776   5.523   0.735   5.493 -0.8644 -0.2381 -1.1288
   66MOL   H14732777   5.266   0.793   5.621  1.2024  0.4994  0.8644
   66MOL   H14832778   5.301   0.707   5.462  0.2163  0.8096 -0.3304
   66MOL   H14932779   5.360   0.603   5.744 -0.6016 -0.6394 -1.0535
   66MOL   H15032780   5.283   0.529   5.606 -1.8691  1.5446  0.3419
   66MOL   H15132781   5.451   0.543   5.607 -1.0935  0.0123 -3.7468
   66MOL   C15232782   6.057   1.203   5.697  0.2351 -0.8617  0.3837
   66MOL   C15332783   5.996   1.349   5.688  0.6824 -0.7660  0.2667
   66MOL   O15432784   6.089   1.435   5.617  0.1289  0.1675 -0.0870
   66MOL   C15532785   6.178   1.502   5.710 -0.6747 -0.0969 -0.2269
   66MOL   C15632786   6.274   1.577   5.623  0.2011  0.9523 -0.5094
   66MOL   C15732787   6.200   1.692   5.555  0.7054  0.2809  0.4312
   66MOL   C15832788   6.300   1.815   5.542  0.3486 -0.1868 -0.3379
   66MOL   C15932789   6.233   1.953   5.500 -0.1908  1.1652  0.2381
   66MOL   C16032790   6.333   2.043   5.429 -0.6237  0.1254  0.8878
   66MOL   H16132791   6.148   1.226   5.753 -0.2069  0.8026  0.4464
   66MOL   H16232792   6.073   1.163   5.597  0.7915 -0.4464  0.3060
   66MOL   H16332793   5.978   1.381   5.790 -0.2137 -0.4207  0.0085
   66MOL   H16432794   6.235   1.432   5.771 -0.0445  1.0091  0.4759
   66MOL   H16532795   6.123   1.571   5.775 -0.7283  0.6777 -1.0734
   66MOL   H16632796   6.321   1.511   5.550 -1.5844 -1.9244  0.8252
   66MOL   H16732797   6.359   1.617   5.679  2.0688 -0.7312 -2.0558
   66MOL   H16832798   6.166   1.663   5.455 -1.5536  0.9134  0.9891
   66MOL   H16932799   6.107   1.716   5.605  0.2053  1.2184 -0.9283
   66MOL   H17032800   6.346   1.843   5.637 -0.4619  2.9243 -0.7726
   66MOL   H17132801   6.386   1.796   5.478 -0.5485 -0.3181 -1.5203
   66MOL   H17232802   6.145   1.929   5.441  0.1090 -0.4536  0.4378
   66MOL   H17332803   6.195   2.003   5.589  0.8424  0.5480  1.0373
   66MOL   H17432804   6.304   2.146   5.411  2.3726  0.8576 -0.0497
   66MOL   H17532805   6.430   2.027   5.474  0.3953 -0.0406 -1.2857
   66MOL   H17632806   6.350   2.021   5.323 -1.9176 -0.0877  0.7064
   66MOL   C17732807   5.875   1.365   5.596  0.4460  0.5150 -0.2181
   66MOL   C17832808   5.781   1.487   5.602 -0.0491 -0.1569 -0.3338
   66MOL   O17932809   5.712   1.493   5.729  0.0164 -0.1658 -0.0570
   66MOL   C18032810   5.576   1.464   5.726 -0.4519  0.5759  0.2248
   66MOL   C18132811   5.544   1.481   5.875  0.1107 -0.6593 -0.8087
   66MOL   C18232812   5.614   1.374   5.964 -0.2520  0.8457  0.8272
   66MOL   C18332813   5.580   1.382   6.109 -0.1409 -0.4992  1.2706
   66MOL   C18432814   5.631   1.272   6.202  0.0411 -0.3731 -0.3746
   66MOL   C18532815   5.567   1.294   6.339  0.1419 -0.0243 -0.2926
   66MOL   H18632816   5.909   1.356   5.493  3.1789  0.1979  0.6697
   66MOL   H18732817   5.816   1.274   5.600 -0.5274  1.1243 -0.5602
   66MOL   H18832818   5.704   1.461   5.530  1.0851 -2.1003 -0.8750
   66MOL   H18932819   5.576   1.361   5.690  0.2666  0.8335 -0.5215
   66MOL   H19032820   5.518   1.520   5.653 -0.7292 -1.0576 -0.8505
   66MOL   H19132821   5.437   1.466   5.890  0.0265  0.0943 -0.6559
   66MOL   H19232822   5.561   1.581   5.914  0.3652  1.0101 -4.9042
   66MOL   H19332823   5.581   1.280   5.920  2.3541 -0.0076  0.5992
   66MOL   H19432824   5.722   1.375   5.953 -0.0348 -0.8050  2.5016
   66MOL   H19532825   5.612   1.478   6.151 -1.5319  1.1415 -1.2541
   66MOL   H19632826   5.472   1.390   6.121 -0.5309 -2.9941 -0.3885
   66MOL   H19732827   5.612   1.171   6.164 -1.2731 -0.4084  0.3556
   66MOL   H19832828   5.740   1.278   6.200  0.0369 -0.5592 -2.4023
   66MOL   H19932829   5.613   1.210   6.392 -0.0424 -0.3434 -0.6439
   66MOL   H20032830   5.599   1.389   6.383 -0.4209  0.8465 -1.7252
   66MOL   H20132831   5.458   1.297   6.333  0.2271  2.7924 -0.9705
   66MOL   C20232832   5.861   1.619   5.579 -0.6642 -0.2966  1.0429
   66MOL   C20332833   5.775   1.738   5.529  0.2212 -0.1449  0.3786
   66MOL   O20432834   5.763   1.708   5.390 -0.8081 -0.0984  0.1561
   66MOL   C20532835   5.647   1.753   5.326  0.3174  0.0967  0.4363
   66MOL   C20632836   5.541   1.643   5.338  0.3030  0.1657 -0.3547
   66MOL   C20732837   5.406   1.670   5.251  0.7339 -0.3308  0.1534
   66MOL   C20832838   5.316   1.550   5.225  0.3283  0.4438  1.3455
   66MOL   C20932839   5.196   1.577   5.120 -1.0178  0.1661  0.2616
   66MOL   C21032840   5.128   1.440   5.072  0.2993 -0.1099  0.2142
   66MOL   H21132841   5.923   1.632   5.667 -0.0159  0.0691  0.5367
   66MOL   H21232842   5.942   1.597   5.509  0.4175  0.7500  1.9520
   66MOL   H21332843   5.679   1.755   5.576  1.0780 -0.9551  2.5015
   66MOL   H21432844   5.669   1.772   5.221  0.2355 -0.1961  0.3658
   66MOL   H21532845   5.605   1.850   5.351 -2.5058 -0.5896 -1.4455
   66MOL   H21632846   5.507   1.630   5.440 -1.2982 -0.7015 -0.9826
   66MOL   H21732847   5.576   1.545   5.306 -2.1542 -0.9488  0.2855
   66MOL   H21832848   5.359   1.753   5.303  1.6728 -0.1300  0.6920
   66MOL   H21932849   5.429   1.715   5.155 -0.7651 -0.2625 -0.1903
   66MOL   H22032850   5.384   1.475   5.185 -0.9049  0.5778 -1.1602
   66MOL   H22132851   5.266   1.517   5.315 -2.6019  3.1889  0.8370
   66MOL   H22232852   5.116   1.636   5.163  0.0238  0.2410  2.1912
   66MOL   H22332853   5.234   1.631   5.034 -0.3862  2.3768  1.8820
   66MOL   H22432854   5.039   1.451   5.011  0.3902 -0.2822  0.0513
   66MOL   H22532855   5.201   1.376   5.022  0.9690  2.0848 -1.7145
   66MOL   H22632856   5.090   1.379   5.154 -1.3766  0.6328  0.0017
   66MOL   C22732857   5.853   1.872   5.538  0.6510  0.1378 -0.2753
   66MOL   C22832858   5.831   1.938   5.676 -0.1032 -0.1196  0.6431
   66MOL   O22932859   5.894   1.863   5.775  0.4330 -0.7472 -0.0585
   66MOL   C23032860   5.797   1.815   5.866 -0.5053 -0.8784 -0.4866
   66MOL   C23132861   5.863   1.711   5.956  0.4363 -0.5353  0.0551
   66MOL   C23232862   5.953   1.764   6.067 -0.1639 -0.0706  0.3196
   66MOL   C23332863   5.990   1.661   6.167 -0.2738 -0.4710 -0.3144
   66MOL   C23432864   6.044   1.713   6.303 -0.0852  1.3763 -0.8700
   66MOL   C23532865   6.049   1.607   6.415  0.0294  0.7286  0.4139
   66MOL   H23632866   5.957   1.858   5.513  0.6421  1.1866 -0.9102
   66MOL   H23732867   5.812   1.934   5.459  0.1469 -1.2860 -1.1675
   66MOL   H23832868   5.722   1.943   5.682 -0.0861  2.1756 -0.3586
   66MOL   H23932869   5.715   1.765   5.814  1.0000 -2.7087 -1.1738
   66MOL   H24032870   5.746   1.890   5.926 -0.4093 -0.7350 -0.5832
   66MOL   H24132871   5.908   1.628   5.902  2.6872 -0.5200  1.7998
   66MOL   H24232872   5.775   1.675   6.010 -0.9480  1.1256 -1.0663
   66MOL   H24332873   6.043   1.808   6.024 -0.7046  2.3706  1.5503
   66MOL   H24432874   5.904   1.846   6.121  1.8158  2.2339 -1.2538
   66MOL   H24532875   5.906   1.594   6.179 -2.1535  1.4654 -2.1983
   66MOL   H24632876   6.067   1.596   6.126 -0.3804 -0.1247 -1.0670
   66MOL   H24732877   6.150   1.739   6.291  0.7663 -1.0528  1.1039
   66MOL   H24832878   5.990   1.804   6.329 -0.6812  0.9446 -0.6162
   66MOL   H24932879   5.954   1.553   6.413 -0.6562  1.9127  0.4047
   66MOL   H25032880   6.129   1.534   6.402 -1.8365 -1.3312  0.1842
   66MOL   H25132881   6.066   1.665   6.506 -0.4909 -1.7998  2.1694
   66MOL   C25232882   5.889   2.080   5.678 -0.6275 -0.4109 -0.3543
   66MOL   C25332883   5.799   2.179   5.749  0.5219  0.3576 -1.1386
   66MOL   O25432884   5.676   2.175   5.679 -0.2272  0.2482  0.8625
   66MOL   C25532885   5.550   2.201   5.735 -0.3026 -0.2230 -0.4828
   66MOL   C25632886   5.434   2.184   5.631 -0.1907  0.1428 -0.6181
   66MOL   C25732887   5.458   2.294   5.524 -0.5353 -0.3396  0.0458
   66MOL   C25832888   5.372   2.303   5.401 -0.9953  0.4406  0.2774
   66MOL   C25932889   5.405   2.422   5.304 -0.3141 -0.3693  0.6618
   66MOL   C26032890   5.370   2.555   5.373  0.3207 -0.6257  0.3603
   66MOL   H26132891   5.993   2.082   5.710 -0.3612 -1.2036 -1.1355
   66MOL   H26232892   5.913   2.111   5.576 -1.2738 -0.6279 -0.5723
   66MOL   H26332893   5.788   2.142   5.851 -0.6452 -0.3838 -1.5169
   66MOL   H26432894   5.550   2.303   5.772  0.7840 -0.4619  0.1825
   66MOL   H26532895   5.528   2.133   5.817  1.2921 -0.8461 -0.5668
   66MOL   H26632896   5.339   2.199   5.682  0.5768 -0.8296  1.1532
   66MOL   H26732897   5.429   2.087   5.581 -2.6430  1.4655 -3.0710
   66MOL   H26832898   5.464   2.388   5.578 -2.2938  0.8556 -1.8056
   66MOL   H26932899   5.560   2.292   5.485 -1.1485  0.4440 -1.6148
   66MOL   H27032900   5.387   2.209   5.349  0.3627  0.8748 -0.1338
   66MOL   H27132901   5.267   2.299   5.431 -0.7625 -1.4736  0.9224
   66MOL   H27232902   5.510   2.417   5.274 -0.5930 -0.4276 -0.3139
   66MOL   H27332903   5.341   2.406   5.217 -0.3059  1.0916  0.3759
   66MOL   H27432904   5.434   2.563   5.461  0.8883  0.8556 -0.1738
   66MOL   H27532905   5.394   2.644   5.315 -0.6090 -0.6392 -0.0395
   66MOL   H27632906   5.271   2.561   5.416 -0.1975 -1.0494 -0.7646
   66MOL   C27732907   5.850   2.322   5.753 -0.5428 -0.3437 -0.0472
   66MOL   C27832908   5.956   2.352   5.863  0.1359  0.5454  0.8138
   66MOL   O27932909   6.047   2.438   5.803  0.4295 -0.0072  0.1894
   66MOL   C28032910   6.172   2.448   5.862 -0.4280 -0.1260 -0.4327
   66MOL   C28132911   6.245   2.564   5.780  0.4647  0.4773 -0.1724
   66MOL   C28232912   6.397   2.541   5.764  0.2152 -0.8150  0.5380
   66MOL   C28332913   6.464   2.647   5.677  0.2305 -0.5438  0.1823
   66MOL   C28432914   6.607   2.610   5.638 -0.1465 -0.1958 -0.1369
   66MOL   C28532915   6.693   2.730   5.600  0.2133 -0.0040  0.5305
   66MOL   H28632916   5.885   2.349   5.654 -0.8882 -0.2789 -0.1540
   66MOL   H28732917   5.757   2.378   5.746 -0.1542  0.1540 -1.2679
   66MOL   H28832918   6.013   2.261   5.881 -2.2443 -1.6852 -2.2619
   66MOL   H28932919   6.223   2.352   5.859 -0.7889 -0.3800  0.9916
   66MOL   H29032920   6.159   2.481   5.965  3.5394  0.6113 -0.0844
   66MOL   H29132921   6.236   2.657   5.837  0.0044  0.7358 -0.6688
   66MOL   H29232922   6.194   2.600   5.691 -0.5854  1.5107  0.8369
   66MOL   H29332923   6.444   2.556   5.861  1.0838 -1.3351  0.2083
   66MOL   H29432924   6.428   2.444   5.725  0.6050 -0.2393 -0.6381
   66MOL   H29532925   6.411   2.674   5.586  0.0135 -2.9662 -0.4433
   66MOL   H29632926   6.457   2.744   5.727 -0.1964  1.2458 -3.1874
   66MOL   H29732927   6.655   2.563   5.724 -0.4616  0.0477  0.1707
   66MOL   H29832928   6.589   2.539   5.558 -0.9401 -0.5660  0.3633
   66MOL   H29932929   6.680   2.775   5.502  1.2820 -0.7802  0.0239
   66MOL   H30032930   6.686   2.807   5.677  2.7208  1.3454 -0.5030
   66MOL   H30132931   6.793   2.687   5.594 -0.6298 -2.0767  1.1613
   66MOL   C30232932   5.881   2.409   5.993  0.7495 -0.6038 -0.3412
   66MOL   C30332933   5.861   2.314   6.104 -0.3076  0.7824  0.5572
   66MOL   O30432934   5.786   2.382   6.212 -0.0984  0.2969  0.3955
   66MOL   C30532935   5.642   2.369   6.199  1.0566  0.3814 -0.1978
   66MOL   C30632936   5.558   2.461   6.282  0.5589 -0.1321 -0.4410
   66MOL   C30732937   5.561   2.409   6.427  0.2159  0.2903 -0.1787
   66MOL   C30832938   5.517   2.515   6.524 -0.0049  0.4770 -0.2300
   66MOL   C30932939   5.509   2.457   6.670  0.1098  0.1536 -0.1959
   66MOL   C31032940   5.386   2.364   6.696  0.0162  0.9425  0.3114
   66MOL   H31132941   5.935   2.500   6.016  1.0465 -0.5998 -1.0211
   66MOL   H31232942   5.783   2.447   5.965  1.2505  0.7954 -0.2111
   66MOL   H31332943   5.815   2.220   6.072  0.0782  1.0030 -0.6672
   66MOL   H31432944   5.608   2.269   6.223  0.0497  0.0261 -2.9376
   66MOL   H31532945   5.626   2.394   6.094  1.6301  2.3592  0.1655
   66MOL   H31632946   5.455   2.466   6.246  0.7087 -0.9181 -0.9716
   66MOL   H31732947   5.589   2.565   6.271 -0.5090  0.2602  0.1562
   66MOL   H31832948   5.510   2.314   6.443  1.2751 -0.1336  0.7096
   66MOL   H31932949   5.666   2.386   6.445  0.3448 -0.0746 -1.3556
   66MOL   H32032950   5.607   2.576   6.526 -0.2492  1.0310 -3.6351
   66MOL   H32132951   5.423   2.567   6.510 -0.9879 -1.6136 -1.7104
   66MOL   H32232952   5.597   2.393   6.679  0.2084 -0.0219 -2.2009
   66MOL   H32332953   5.524   2.520   6.757  1.7885 -1.4547  0.7193
   66MOL   H32432954   5.297   2.425   6.702  0.8447  2.1878  0.1559
   66MOL   H32532955   5.370   2.292   6.616  1.3114  3.0032 -1.8813
   66MOL   H32632956   5.386   2.310   6.791 -0.5972  2.2027  1.0305
   66MOL   C32732957   5.994   2.265   6.174 -0.6083 -0.5749  0.4852
   66MOL   C32832958   5.958   2.177   6.299  0.3644 -0.0175  0.5050
   66MOL   O32932959   5.868   2.074   6.260 -0.1482 -0.2394  0.1340
   66MOL   C33032960   5.760   2.050   6.349 -0.7781 -0.5577  0.7327
   66MOL   C33132961   5.678   1.940   6.293 -0.2889 -0.6251 -0.3066
   66MOL   C33232962   5.618   1.970   6.158 -0.2569 -0.2702 -0.3058
   66MOL   C33332963   5.519   1.864   6.119  0.1427 -0.9977 -0.6071
   66MOL   C33432964   5.467   1.875   5.979 -0.5517 -0.2826  0.5410
   66MOL   C33532965   5.345   1.793   5.951 -0.1649 -0.7842  0.0753
   66MOL   H33632966   6.062   2.346   6.200 -2.5370  0.9080  1.0625
   66MOL   H33732967   6.061   2.209   6.110  0.3286  1.8556 -0.7354
   66MOL   H33832968   5.904   2.242   6.368  0.9650 -0.5734  1.5099
   66MOL   H33932969   5.702   2.141   6.362 -2.6750 -1.4894 -1.0367
   66MOL   H34032970   5.801   2.013   6.443 -2.3016 -0.7319  1.3423
   66MOL   H34132971   5.597   1.910   6.360  1.2448 -0.3838  1.6855
   66MOL   H34232972   5.750   1.862   6.268 -1.3933 -1.5879 -0.5633
   66MOL   H34332973   5.559   2.061   6.156  0.8592  0.4655  0.1480
   66MOL   H34432974   5.694   1.997   6.085  1.6415 -0.3776  1.5776
   66MOL   H34532975   5.567   1.767   6.134  1.0250 -0.2677  1.5291
   66MOL   H34632976   5.432   1.862   6.184  2.0622 -0.9310  2.0733
   66MOL   H34732977   5.442   1.980   5.965 -0.3005 -0.2502  0.3320
   66MOL   H34832978   5.535   1.843   5.901 -2.8050 -1.0134 -1.1796
   66MOL   H34932979   5.254   1.826   6.001  0.5725  3.2273 -1.0283
   66MOL   H35032980   5.325   1.797   5.844 -1.7550 -1.1780  0.3509
   66MOL   H35132981   5.359   1.687   5.972  2.1131 -1.3536 -3.9004
   66MOL   C35232982   6.078   2.134   6.385 -0.0912 -0.2308 -0.3010
   66MOL   C35332983   6.163   2.251   6.449  0.4125  0.3485  0.5459
   66MOL   O35432984   6.296   2.214   6.484  0.2264 -0.6815  0.0561
   66MOL   C35532985   6.390   2.317   6.459 -0.0908 -0.2141 -0.0349
   66MOL   C35632986   6.435   2.316   6.310  0.1678 -0.5681  0.1692
   66MOL   C35732987   6.563   2.398   6.284  0.1520  0.4458  0.4595
   66MOL   C35832988   6.645   2.364   6.154  0.1881  0.3777 -0.0208
   66MOL   C35932989   6.639   2.479   6.056  0.4638 -0.0851  0.2503
   66MOL   C36032990   6.755   2.571   6.053 -0.1302  0.4720  0.1361
   66MOL   H36132991   6.052   2.060   6.461 -2.7907  2.2378  1.2908
   66MOL   H36232992   6.147   2.073   6.327  0.7714  0.0548  0.4092
   66MOL   H36332993   6.156   2.323   6.366 -0.7127  1.1546  1.3139
   66MOL   H36432994   6.471   2.299   6.530  0.0975  4.3630  1.0544
   66MOL   H36532995   6.352   2.414   6.489  1.0121  0.4580 -0.7664
   66MOL   H36632996   6.362   2.343   6.235  1.4466  0.1868 -0.8232
   66MOL   H36732997   6.463   2.214   6.281 -0.3519 -1.5758  3.0146
   66MOL   H36832998   6.550   2.506   6.278  1.0128  0.6313  1.8231
   66MOL   H36932999   6.626   2.381   6.371  1.2075  1.4705 -0.0800
   66MOL   H37033000   6.750   2.336   6.165  0.0962  0.3636  0.8379
   66MOL   H37133001   6.603   2.275   6.106  1.1081 -0.0922  0.0198
   66MOL   H37233002   6.609   2.429   5.964 -0.2402  0.2350  0.3011
   66MOL   H37333003   6.548   2.539   6.063  1.0977  0.8223  0.8100
   66MOL   H37433004   6.845   2.541   6.000 -0.2146 -0.3522  0.4519
   66MOL   H37533005   6.723   2.668   6.013  0.4876 -0.1119 -1.7899
   66MOL   H37633006   6.797   2.584   6.153  2.0236  0.8093 -0.7906
   66MOL   C37733007   6.096   2.325   6.571  0.9616 -0.3205 -0.0137
   66MOL   C37833008   6.066   2.241   6.694 -0.0998 -0.2398 -0.9233
   66MOL   O37933009   5.988   2.326   6.771  0.0240 -0.3946  0.2702
   66MOL   C38033010   5.884   2.250   6.842  0.1023  0.2517 -0.3206
   66MOL   C38133011   5.846   2.354   6.949  0.1259 -0.6797  0.0431
   66MOL   C38233012   5.703   2.347   6.985 -0.1616 -1.1360  0.1296
   66MOL   C38333013   5.663   2.448   7.100  0.3618  0.4996  0.6231
   66MOL   C38433014   5.721   2.587   7.092 -0.0100  0.3588  0.1999
   66MOL   C38533015   5.655   2.688   7.181  0.1055 -0.0841 -0.9078
   66MOL   H38633016   6.159   2.409   6.600  1.3047 -0.3820 -0.5635
   66MOL   H38733017   6.007   2.374   6.533 -0.8018 -3.0067  0.5176
   66MOL   H38833018   6.001   2.162   6.656 -3.0178  2.5005 -1.9643
   66MOL   H38933019   5.920   2.164   6.898  0.2076 -0.3890 -1.3595
   66MOL   H39033020   5.807   2.237   6.766 -1.4817 -0.2932  1.3483
   66MOL   H39133021   5.869   2.451   6.906  0.1942  0.3334  2.2954
   66MOL   H39233022   5.898   2.345   7.045  0.3303 -0.8206 -0.0775
   66MOL   H39333023   5.644   2.358   6.894  0.3975 -2.0309 -0.3448
   66MOL   H39433024   5.673   2.246   7.014  1.1848 -1.8237 -0.8855
   66MOL   H39533025   5.555   2.449   7.092  0.3596 -2.1123 -0.3017
   66MOL   H39633026   5.689   2.401   7.195  0.0603  1.5284  1.2280
   66MOL   H39733027   5.825   2.587   7.122 -0.2007  0.2503  0.8820
   66MOL   H39833028   5.716   2.623   6.989  1.8562 -0.8446 -0.3324
   66MOL   H39933029   5.646   2.641   7.279  0.0248  0.1959 -0.7819
   66MOL   H40033030   5.716   2.778   7.182  0.3959 -0.2886  0.1695
   66MOL   H40133031   5.555   2.713   7.145  1.0328  1.3104 -2.5685
   66MOL   C40233032   6.183   2.173   6.766 -0.3922 -0.4279 -0.2603
   66MOL   C40333033   6.198   2.020   6.748 -0.3977  0.1844 -0.0593
   66MOL   O40433034   6.094   1.952   6.812  0.9281  0.5688 -0.0682
   66MOL   C40533035   6.008   1.876   6.731  0.4805  0.3030  0.0756
   66MOL   C40633036   5.952   1.767   6.821  0.4806  0.4060 -0.2067
   66MOL   C40733037   5.854   1.672   6.755 -0.0387  0.2491  0.4921
   66MOL   C40833038   5.843   1.539   6.840 -0.4581 -0.4340 -0.8270
   66MOL   C40933039   5.780   1.435   6.749 -0.4477 -0.3377 -0.6043
   66MOL   C41033040   5.746   1.301   6.816 -0.4239  0.1625  0.7422
   66MOL   H41133041   6.185   2.190   6.873  0.4270 -1.8760 -0.0275
   66MOL   H41233042   6.272   2.228   6.734 -0.7112 -0.5927 -1.4822
   66MOL   H41333043   6.194   2.012   6.640 -0.5254 -0.5865  0.0009
   66MOL   H41433044   6.070   1.832   6.653  0.4571 -0.7760  0.6548
   66MOL   H41533045   5.938   1.939   6.676  0.3148  0.4051  0.4077
   66MOL   H41633046   5.902   1.804   6.910  1.9786 -3.0976  2.1938
   66MOL   H41733047   6.040   1.715   6.859  1.7402  0.9025 -2.3160
   66MOL   H41833048   5.758   1.721   6.736  0.5096  0.7741 -0.9703
   66MOL   H41933049   5.899   1.665   6.656 -0.4963  1.9563  0.1509
   66MOL   H42033050   5.940   1.505   6.875 -0.3076 -1.7714 -2.4516
   66MOL   H42133051   5.790   1.558   6.934  1.5517  0.8954  0.0756
   66MOL   H42233052   5.686   1.467   6.702 -0.5036  1.2285  0.5448
   66MOL   H42333053   5.856   1.419   6.673  0.1488  2.0989 -0.5706
   66MOL   H42433054   5.838   1.251   6.849 -0.4873 -0.4191  0.0502
   66MOL   H42533055   5.686   1.321   6.904 -1.7487 -2.4323  0.4726
   66MOL   H42633056   5.691   1.235   6.749 -0.4154  1.8682 -0.9801
   66MOL   C42733057   6.335   1.963   6.793  0.0956 -0.2174 -0.7321
   66MOL   C42833058   6.375   1.838   6.708 -0.5832 -0.8458  1.1417
   66MOL   O42933059   6.436   1.891   6.589 -0.0181 -0.1901  0.0019
   66MOL   C43033060   6.365   1.847   6.474 -0.0847 -0.0092 -0.6321
   66MOL   C43133061   6.456   1.868   6.350  0.6604  0.2846 -0.5030
   66MOL   C43233062   6.604   1.811   6.352  0.3761  0.5419  0.0334
   66MOL   C43333063   6.689   1.828   6.223 -0.4213 -0.2801  0.7393
   66MOL   C43433064   6.830   1.770   6.218  0.2033  0.4292 -0.0266
   66MOL   C43533065   6.931   1.804   6.338  0.0467 -0.2403  0.3654
   66MOL   H43633066   6.411   2.040   6.786 -0.0494  0.1891  1.6827
   66MOL   H43733067   6.318   1.936   6.897  1.2569  0.2637 -0.4116
   66MOL   H43833068   6.290   1.776   6.681 -2.5022  1.8473  0.8245
   66MOL   H43933069   6.276   1.902   6.446  0.1739  0.9178  0.3156
   66MOL   H44033070   6.342   1.741   6.470 -1.3043  0.1673  1.1615
   66MOL   H44133071   6.461   1.975   6.329 -3.7555  0.9053  1.0060
   66MOL   H44233072   6.410   1.812   6.269  0.7417 -2.4605  1.2894
   66MOL   H44333073   6.660   1.863   6.430 -0.0042  0.5167  0.3245
   66MOL   H44433074   6.603   1.713   6.400 -1.6884  1.1099  1.2325
   66MOL   H44533075   6.642   1.784   6.135 -0.8026  2.0943 -0.2840
   66MOL   H44633076   6.689   1.934   6.198 -2.2478 -0.4267 -0.0046
   66MOL   H44733077   6.827   1.662   6.206 -0.5570  0.4859 -0.3606
   66MOL   H44833078   6.873   1.810   6.126 -1.0307  1.8214 -0.0107
   66MOL   H44933079   6.930   1.912   6.352  0.7590  0.2506 -2.9766
   66MOL   H45033080   6.907   1.760   6.435  0.2864  0.5160  0.7722
   66MOL   H45133081   7.033   1.786   6.304  1.2063  1.4488  2.8219
   66MOL   C45233082   6.482   1.746   6.777 -0.0839 -0.7988 -0.2777
   66MOL   C45333083   6.508   1.619   6.700 -0.7635 -0.1147 -0.1356
   66MOL   O45433084   6.388   1.540   6.722  0.0900  0.3044 -0.3085
   66MOL   C45533085   6.362   1.444   6.618 -0.2920 -0.7847  0.2148
   66MOL   C45633086   6.228   1.381   6.656  0.3698 -0.1663 -0.5654
   66MOL   C45733087   6.217   1.239   6.593 -0.3462  0.1169 -0.4838
   66MOL   C45833088   6.232   1.133   6.706 -0.2723  0.6503 -0.4550
   66MOL   C45933089   6.261   0.986   6.655  0.2550 -0.0678  0.3088
   66MOL   C46033090   6.138   0.941   6.579  0.3110  0.4310 -0.3898
   66MOL   H46133091   6.561   1.819   6.795 -1.3521  0.6548 -0.5018
   66MOL   H46233092   6.455   1.716   6.878  0.7187  0.6143  0.3658
   66MOL   H46333093   6.530   1.649   6.598  1.7962  0.0945  0.4500
   66MOL   H46433094   6.441   1.369   6.609  0.6910  0.4074 -1.4762
   66MOL   H46533095   6.348   1.486   6.518 -1.5315  0.5499  0.9352
   66MOL   H46633096   6.148   1.444   6.617  1.5189  1.9670  0.4059
   66MOL   H46733097   6.199   1.383   6.761  2.7459  0.1896  0.1114
   66MOL   H46833098   6.113   1.228   6.560 -0.0136 -0.9551 -1.1889
   66MOL   H46933099   6.280   1.229   6.505  1.1458  0.5019  0.5139
   66MOL   H47033100   6.312   1.176   6.767 -1.1796 -0.4130  1.5208
   66MOL   H47133101   6.145   1.131   6.772 -0.1148 -1.1516 -0.2708
   66MOL   H47233102   6.357   0.966   6.606 -0.0472 -2.0717  0.4818
   66MOL   H47333103   6.264   0.924   6.744  0.4496 -2.2610 -1.1806
   66MOL   H47433104   6.042   0.955   6.630  0.6717  3.5795 -0.4436
   66MOL   H47533105   6.134   0.991   6.483 -0.5818  1.2338  0.0463
   66MOL   H47633106   6.142   0.834   6.558 -0.0206  0.3676 -0.1428
   66MOL   C47733107   6.631   1.548   6.759  1.0455  0.6206 -0.0535
   66MOL   C47833108   6.769   1.625   6.726  0.2177  0.5116  0.9905
   66MOL   O47933109   6.870   1.535   6.760 -0.5390 -0.3670 -0.7048
   66MOL   C48033110   6.994   1.548   6.688 -0.5061 -0.4746  0.1890
   66MOL   C48133111   7.076   1.673   6.722 -0.3708 -0.1446  0.0785
   66MOL   C48233112   7.209   1.685   6.647  0.1796  0.3032  0.4442
   66MOL   C48333113   7.298   1.794   6.702 -0.0198 -0.5854  0.0958
   66MOL   C48433114   7.416   1.821   6.613  0.5540 -0.1027  0.0841
   66MOL   C48533115   7.509   1.907   6.695  0.3564  0.1638 -0.2949
   66MOL   H48633116   6.621   1.547   6.868 -1.0158  1.9861 -0.2081
   66MOL   H48733117   6.632   1.447   6.719 -3.7261  1.0746 -1.6640
   66MOL   H48833118   6.773   1.639   6.618  0.2484  1.2389  1.0839
   66MOL   H48933119   6.977   1.539   6.581 -1.6751 -0.0010  0.3335
   66MOL   H49033120   7.048   1.460   6.724  1.2253  0.6314  0.3459
   66MOL   H49133121   7.111   1.672   6.826  1.5748 -2.4652 -0.5748
   66MOL   H49233122   7.014   1.763   6.713 -1.0188 -0.6899 -0.9605
   66MOL   H49333123   7.265   1.593   6.636  1.0396  0.7108  1.3184
   66MOL   H49433124   7.186   1.713   6.544 -2.4758 -0.2904  0.8432
   66MOL   H49533125   7.237   1.885   6.710 -0.1056 -0.6898  0.6887
   66MOL   H49633126   7.328   1.764   6.803  3.0425 -1.2755 -0.9842
   66MOL   H49733127   7.463   1.728   6.582  0.8445  0.1249 -0.1554
   66MOL   H49833128   7.367   1.874   6.531 -0.6562  2.1258  2.1521
   66MOL   H49933129   7.464   2.002   6.722 -0.4184 -1.1620  3.3600
   66MOL   H50033130   7.534   1.855   6.787 -3.2206 -0.0718  0.5971
   66MOL   H50133131   7.601   1.926   6.638  0.7949  0.6244  0.5625
   66MOL   H50233132   6.775   1.719   6.781  1.1376  0.4791  0.9623
   67MOL     C133133   6.369   5.382   3.584  0.2513  0.2281 -0.4338
   67MOL     C233134   6.470   5.378   3.698 -1.5734  0.2822 -0.6974
   67MOL     O333135   6.535   5.248   3.718  0.8965  0.2263 -0.6768
   67MOL     C433136   6.651   5.222   3.634  0.5488  0.1427  0.5035
   67MOL     C533137   6.721   5.083   3.669  0.4191 -0.5596 -0.2602
   67MOL     C633138   6.840   5.051   3.582 -0.4300  0.8732  0.0898
   67MOL     C733139   6.874   4.902   3.559 -0.1237  0.1438  0.1718
   67MOL     C833140   6.887   4.826   3.692  0.2746 -0.3544  0.7521
   67MOL     C933141   6.927   4.684   3.674  0.0911 -0.1148 -0.2857
   67MOL    H1033142   6.284   5.316   3.605  1.5237 -1.1338  0.5765
   67MOL    H1133143   6.328   5.481   3.570  0.8282  0.3497 -1.2853
   67MOL    H1233144   6.545   5.452   3.669  0.0668 -1.4679 -0.9961
   67MOL    H1333145   6.720   5.302   3.662 -0.1598  0.2981  1.8819
   67MOL    H1433146   6.629   5.243   3.530 -1.1752 -1.3172  0.5467
   67MOL    H1533147   6.652   4.998   3.672  0.0473 -0.2471  0.2069
   67MOL    H1633148   6.752   5.076   3.773 -0.0455  0.3279 -0.0576
   67MOL    H1733149   6.812   5.091   3.485  1.0956 -0.0461 -0.7469
   67MOL    H1833150   6.929   5.106   3.614  1.5800 -1.9285 -0.4891
   67MOL    H1933151   6.810   4.848   3.489 -0.6665  0.6349  0.2854
   67MOL    H2033152   6.967   4.902   3.503 -1.0375  1.8961 -1.4163
   67MOL    H2133153   6.789   4.825   3.738 -0.1543 -1.0676 -0.1645
   67MOL    H2233154   6.949   4.877   3.766 -2.5240 -0.4611  3.2567
   67MOL    H2333155   6.849   4.630   3.622  0.9760 -0.5973 -1.1248
   67MOL    H2433156   7.016   4.677   3.611 -1.5280  1.3275 -2.8129
   67MOL    H2533157   6.946   4.641   3.772  1.8175 -0.6146 -0.8178
   67MOL    H2633158   6.413   5.347   3.491 -0.0562 -0.8105 -0.2021
   67MOL    C2733159   6.420   5.424   3.831  0.0958 -0.2228 -0.0308
   67MOL    C2833160   6.526   5.418   3.950 -0.0532 -0.3667  0.8196
   67MOL    O2933161   6.628   5.507   3.924  0.0959  0.1083 -0.5195
   67MOL    C3033162   6.766   5.461   3.941 -0.1290  0.5114 -0.7576
   67MOL    C3133163   6.828   5.547   4.047 -0.7368 -0.6890 -0.2310
   67MOL    C3233164   6.826   5.701   4.005  0.9136  0.8974  0.0049
   67MOL    C3333165   6.949   5.731   3.915  0.7874  0.0830 -0.4095
   67MOL    C3433166   6.945   5.872   3.867 -0.3173 -1.2635 -0.3498
   67MOL    C3533167   7.051   5.894   3.762 -0.3377  0.3619  0.4138
   67MOL    H3633168   6.374   5.523   3.834 -0.3264 -0.4089 -0.3286
   67MOL    H3733169   6.339   5.357   3.860  0.3483 -0.5373 -0.0405
   67MOL    H3833170   6.570   5.318   3.946 -0.0148 -0.3240  0.0434
   67MOL    H3933171   6.812   5.470   3.843  1.5074  0.8763  0.0166
   67MOL    H4033172   6.770   5.356   3.969 -0.4436  0.6372 -0.2200
   67MOL    H4133173   6.931   5.513   4.061 -0.1833  1.0299  0.0646
   67MOL    H4233174   6.787   5.533   4.147  0.0920 -3.7098 -0.2699
   67MOL    H4333175   6.731   5.736   3.963 -0.8116 -0.4323  2.7079
   67MOL    H4433176   6.828   5.759   4.097 -1.4067  1.4167 -0.2270
   67MOL    H4533177   7.043   5.719   3.969  2.5889  1.2173 -3.1796
   67MOL    H4633178   6.952   5.660   3.833 -0.1743  2.2860 -2.4120
   67MOL    H4733179   6.853   5.904   3.819  2.0032  3.7755 -1.7376
   67MOL    H4833180   6.962   5.928   3.959 -3.3277 -1.6091  0.4702
   67MOL    H4933181   7.157   5.884   3.785 -0.2009 -0.1887 -0.4234
   67MOL    H5033182   7.029   5.848   3.665  0.8823  0.1591  0.2279
   67MOL    H5133183   7.056   6.001   3.741  0.5461  0.2251 -0.1104
   67MOL    C5233184   6.483   5.443   4.088 -0.5511  0.1608 -0.5582
   67MOL    C5333185   6.416   5.577   4.115  0.2710 -0.4231  0.2881
   67MOL    O5433186   6.381   5.591   4.250  0.4603  0.3891  0.3379
   67MOL    C5533187   6.252   5.538   4.283 -0.1429  0.5335 -0.2464
   67MOL    C5633188   6.208   5.586   4.422  0.1671  0.2601 -0.5964
   67MOL    C5733189   6.055   5.579   4.443  0.2533  0.0067 -0.4167
   67MOL    C5833190   5.977   5.441   4.423 -0.1958 -0.8204  0.6627
   67MOL    C5933191   6.034   5.329   4.503  0.0270 -0.5995  0.0170
   67MOL    C6033192   5.993   5.324   4.652  0.2967  0.2630 -0.1226
   67MOL    H6133193   6.569   5.443   4.155 -2.2400 -1.3338  1.7140
   67MOL    H6233194   6.423   5.362   4.130  0.1926  0.7547  1.7085
   67MOL    H6333195   6.319   5.573   4.064 -0.3248  0.8777  1.2783
   67MOL    H6433196   6.248   5.429   4.273  0.0588  0.3705  1.3490
   67MOL    H6533197   6.180   5.587   4.218 -1.6934 -1.2044  0.1104
   67MOL    H6633198   6.237   5.691   4.420 -0.7713  0.6690  2.8518
   67MOL    H6733199   6.250   5.534   4.508 -1.4214 -0.9380 -0.5267
   67MOL    H6833200   6.026   5.611   4.543  1.3957 -0.5459  0.1060
   67MOL    H6933201   6.002   5.650   4.379  0.2778  1.9206  1.6192
   67MOL    H7033202   5.870   5.445   4.445 -0.6656  0.4009 -1.6835
   67MOL    H7133203   5.992   5.405   4.322 -0.9619 -1.5462  0.7945
   67MOL    H7233204   6.009   5.232   4.457 -1.6610  0.3350 -1.1063
   67MOL    H7333205   6.142   5.335   4.496  0.2238 -1.8144  1.7639
   67MOL    H7433206   6.030   5.232   4.697  1.4607  0.6405 -0.2957
   67MOL    H7533207   6.042   5.405   4.705 -2.8684  1.5984  0.9179
   67MOL    H7633208   5.888   5.352   4.666 -0.0271  0.5512 -2.8671
   67MOL    C7733209   6.482   5.712   4.073  0.1114 -0.2233  0.0842
   67MOL    C7833210   6.392   5.835   4.092  0.0595 -0.4613  0.5129
   67MOL    O7933211   6.294   5.834   3.987  0.0032  0.2819 -0.2185
   67MOL    C8033212   6.157   5.850   4.024 -0.1815 -0.2354 -0.2951
   67MOL    C8133213   6.066   5.809   3.906  0.5111  0.3265 -0.9535
   67MOL    C8233214   5.931   5.763   3.949 -0.4757 -0.0638 -0.3870
   67MOL    C8333215   5.846   5.722   3.829  0.0560  0.2985  0.7253
   67MOL    C8433216   5.721   5.646   3.867  0.1802  0.5623 -0.3120
   67MOL    C8533217   5.650   5.573   3.749  0.2197 -0.0105 -0.4589
   67MOL    H8633218   6.500   5.711   3.966 -3.5854  1.3393 -0.6353
   67MOL    H8733219   6.580   5.724   4.121  0.1804 -0.8428  0.0982
   67MOL    H8833220   6.355   5.836   4.194 -0.2861 -0.7341  0.3886
   67MOL    H8933221   6.121   5.947   4.060 -1.4185 -0.7485 -0.1269
   67MOL    H9033222   6.136   5.781   4.105 -1.1784 -1.1339 -1.3111
   67MOL    H9133223   6.115   5.730   3.848  0.2306 -1.7410  1.4923
   67MOL    H9233224   6.052   5.899   3.847  0.3497  0.6779 -0.3843
   67MOL    H9333225   5.946   5.670   4.004 -0.4852  0.7952  1.0837
   67MOL    H9433226   5.876   5.832   4.014 -1.3588 -0.4550 -0.7091
   67MOL    H9533227   5.823   5.815   3.778 -1.2983 -0.0993  0.5794
   67MOL    H9633228   5.905   5.658   3.763  1.3111  1.5540  0.6266
   67MOL    H9733229   5.740   5.564   3.937 -0.5776 -0.0215 -0.7731
   67MOL    H9833230   5.646   5.712   3.912 -3.2827 -2.5619 -1.2791
   67MOL    H9933231   5.545   5.552   3.769  0.2588  0.1645 -0.0742
   67MOL   H10033232   5.652   5.631   3.656  3.7693  0.3572 -0.2294
   67MOL   H10133233   5.702   5.478   3.737  1.8997  0.4758  2.4912
   67MOL   C10233234   6.469   5.966   4.072 -0.0199  0.9234 -0.5851
   67MOL   C10333235   6.402   6.100   4.095 -0.0275 -0.2818  1.1989
   67MOL   O10433236   6.497   6.196   4.144 -0.7103 -0.4630 -0.1298
   67MOL   C10533237   6.558   6.177   4.272 -0.0793 -0.2006  0.3054
   67MOL   C10633238   6.631   6.299   4.327 -0.2893 -0.2374 -0.2652
   67MOL   C10733239   6.549   6.430   4.335 -0.3760  0.0624 -0.1309
   67MOL   C10833240   6.620   6.546   4.407 -0.0656 -0.1345  0.3012
   67MOL   C10933241   6.524   6.636   4.501  0.0405 -0.4041 -0.4056
   67MOL   C11033242   6.438   6.738   4.434 -0.1330 -0.1314  0.7172
   67MOL   H11133243   6.552   5.954   4.141  0.6464 -3.7475 -1.9857
   67MOL   H11233244   6.519   5.970   3.975  1.2927 -2.0457 -0.0799
   67MOL   H11333245   6.318   6.094   4.164 -1.9144 -1.2350 -1.1130
   67MOL   H11433246   6.616   6.086   4.282  0.5944  0.4337  2.3122
   67MOL   H11533247   6.473   6.148   4.333 -0.0502 -0.5097  0.1965
   67MOL   H11633248   6.721   6.311   4.267  0.2722 -0.0982  0.5865
   67MOL   H11733249   6.669   6.276   4.427 -0.2002  0.0341 -0.2355
   67MOL   H11833250   6.520   6.457   4.233  1.8578 -1.9196 -1.3281
   67MOL   H11933251   6.455   6.417   4.389  1.5076 -0.5475  3.1095
   67MOL   H12033252   6.687   6.488   4.470 -1.1516 -2.3429 -0.5198
   67MOL   H12133253   6.685   6.607   4.343 -1.7308  1.4401  0.0641
   67MOL   H12233254   6.462   6.569   4.561 -0.7613  0.5085 -0.2084
   67MOL   H12333255   6.601   6.685   4.560  0.4080 -0.9495 -0.4247
   67MOL   H12433256   6.391   6.684   4.352  3.4228 -1.2551 -0.6695
   67MOL   H12533257   6.362   6.782   4.499 -0.0869  0.6328  0.2719
   67MOL   H12633258   6.498   6.815   4.384 -0.4037 -0.6151 -0.3581
   67MOL   C12733259   6.341   6.149   3.966 -0.3426  1.2399 -0.3903
   67MOL   C12833260   6.282   6.289   3.970 -0.2980 -0.5618 -0.1587
   67MOL   O12933261   6.141   6.283   3.987 -0.2625  0.5777  0.1609
   67MOL   C13033262   6.077   6.356   4.091 -0.1618  0.1657  0.6040
   67MOL   C13133263   5.943   6.282   4.117 -0.0505 -0.4498 -0.7696
   67MOL   C13233264   5.849   6.260   3.995  1.4608 -0.0485  0.0946
   67MOL   C13333265   5.705   6.223   4.032  0.1622  0.4955 -0.0015
   67MOL   C13433266   5.633   6.157   3.913  0.5510 -0.5017  0.0464
   67MOL   C13533267   5.691   6.022   3.880  0.0800 -0.4681 -0.0013
   67MOL   H13633268   6.433   6.157   3.907  0.7482 -1.0070  0.9244
   67MOL   H13733269   6.272   6.073   3.930 -0.8143  1.4399  0.0955
   67MOL   H13833270   6.314   6.345   4.058  1.1525 -1.0739 -0.3447
   67MOL   H13933271   6.067   6.460   4.059  0.1776 -0.6235 -2.1780
   67MOL   H14033272   6.138   6.353   4.182 -0.4763 -0.9623  0.7794
   67MOL   H14133273   5.885   6.335   4.193  0.1528  1.1966 -1.7408
   67MOL   H14233274   5.959   6.187   4.169  0.7833  0.3646  0.4915
   67MOL   H14333275   5.847   6.350   3.932 -1.0060 -0.1813 -0.0349
   67MOL   H14433276   5.905   6.182   3.943  1.5048 -0.9668  1.5149
   67MOL   H14533277   5.703   6.159   4.120 -2.0094  1.9593  1.0658
   67MOL   H14633278   5.656   6.316   4.061  2.6983  0.7303  3.9805
   67MOL   H14733279   5.527   6.137   3.919  0.6732 -1.8997 -2.1863
   67MOL   H14833280   5.653   6.216   3.824  0.0645 -1.6262 -0.8071
   67MOL   H14933281   5.630   5.966   3.808 -0.7664 -1.5100  1.4991
   67MOL   H15033282   5.796   6.018   3.849  0.2814  0.4803  0.5574
   67MOL   H15133283   5.692   5.950   3.962 -2.9569  0.3738  0.8178
   67MOL   C15233284   6.295   6.366   3.829  0.0146 -0.2125  0.3043
   67MOL   C15333285   6.261   6.518   3.828  0.3114 -0.0275  1.1985
   67MOL   O15433286   6.382   6.593   3.828  0.1497  0.0804  0.0967
   67MOL   C15533287   6.442   6.605   3.953  0.0612 -0.4032 -0.2181
   67MOL   C15633288   6.566   6.703   3.944  0.0362  0.2843  0.4664
   67MOL   C15733289   6.632   6.745   4.079  0.4320 -0.2911  0.7376
   67MOL   C15833290   6.746   6.843   4.059 -0.1865  0.0875  0.4203
   67MOL   C15933291   6.808   6.885   4.193 -0.6882  0.4755  0.5346
   67MOL   C16033292   6.943   6.965   4.177 -0.5457 -0.4179 -0.1448
   67MOL   H16133293   6.388   6.351   3.774  1.0874  0.7417  1.8458
   67MOL   H16233294   6.227   6.310   3.764 -0.0905  0.4770 -0.1827
   67MOL   H16333295   6.186   6.538   3.905 -0.3158  1.9989  0.0953
   67MOL   H16433296   6.467   6.504   3.985  0.6538  0.5706  2.4972
   67MOL   H16533297   6.362   6.651   4.012 -0.1992  1.2265 -1.7945
   67MOL   H16633298   6.535   6.793   3.891 -2.5431  0.3449  1.9898
   67MOL   H16733299   6.631   6.647   3.876 -0.1490 -1.0805  1.3972
   67MOL   H16833300   6.557   6.796   4.139  0.3626 -0.4839  0.8128
   67MOL   H16933301   6.658   6.660   4.142  1.3911  0.5753  1.5256
   67MOL   H17033302   6.823   6.797   3.996 -0.6875  2.2677 -1.8647
   67MOL   H17133303   6.713   6.931   4.003 -1.5237 -0.2009  0.7475
   67MOL   H17233304   6.735   6.946   4.248 -0.6168 -2.3188  3.9248
   67MOL   H17333305   6.834   6.797   4.252 -1.6403 -0.9331 -1.0946
   67MOL   H17433306   7.015   6.904   4.124  0.3385 -2.1545  2.8997
   67MOL   H17533307   6.947   7.064   4.133  2.0912 -0.2654  0.3573
   67MOL   H17633308   6.995   6.969   4.273  0.0277  2.6141 -0.5496
   67MOL   C17733309   6.188   6.554   3.695  0.0207  0.8474  0.0318
   67MOL   C17833310   6.032   6.520   3.689 -0.1124 -0.3834 -0.3527
   67MOL   O17933311   5.947   6.634   3.700  0.2653  0.1661 -0.2098
   67MOL   C18033312   5.936   6.705   3.821  0.0338 -0.3611  0.2318
   67MOL   C18133313   5.812   6.663   3.905  0.4097  0.9617  0.5834
   67MOL   C18233314   5.696   6.626   3.819  0.0056  0.0218  0.2334
   67MOL   C18333315   5.563   6.633   3.890 -0.1840  0.1637  0.3375
   67MOL   C18433316   5.446   6.609   3.795  0.4358 -0.6106  0.3884
   67MOL   C18533317   5.300   6.593   3.850  0.3037 -0.7103 -0.3691
   67MOL   H18633318   6.185   6.663   3.697 -2.3955  0.8010  1.8470
   67MOL   H18733319   6.243   6.516   3.609  0.8696 -0.7355  1.2547
   67MOL   H18833320   6.003   6.447   3.764 -0.8620 -0.3962 -0.6434
   67MOL   H18933321   5.926   6.805   3.779  3.1890 -0.9105 -1.9787
   67MOL   H19033322   6.029   6.720   3.876  0.3884 -1.8788  0.0501
   67MOL   H19133323   5.777   6.745   3.966  0.6176  0.6454  1.1353
   67MOL   H19233324   5.838   6.575   3.964  0.6186  1.4657  1.2444
   67MOL   H19333325   5.697   6.694   3.734 -0.4278 -1.9717 -1.4251
   67MOL   H19433326   5.698   6.522   3.785 -2.0175 -0.3523  1.2111
   67MOL   H19533327   5.559   6.561   3.973 -2.5429  0.5307  0.5651
   67MOL   H19633328   5.553   6.728   3.941  0.1737 -0.3996  1.4958
   67MOL   H19733329   5.447   6.688   3.721  0.8624  0.4222  1.4715
   67MOL   H19833330   5.466   6.510   3.755 -0.0734  0.8039 -3.5088
   67MOL   H19933331   5.257   6.686   3.887  0.1395 -1.1507  0.5549
   67MOL   H20033332   5.233   6.572   3.766  0.0008 -0.3591 -0.2168
   67MOL   H20133333   5.308   6.516   3.927  0.1149  1.1148  1.5156
   67MOL   C20233334   6.007   6.457   3.553 -0.2752  0.2954 -0.2971
   67MOL   C20333335   5.880   6.384   3.529  0.1670 -0.0910  0.3638
   67MOL   O20433336   5.899   6.260   3.470 -0.0263 -0.5788  0.5600
   67MOL   C20533337   5.920   6.154   3.571 -0.1969  0.2515  0.1679
   67MOL   C20633338   5.933   6.019   3.498  0.4528  0.5531  0.4599
   67MOL   C20733339   5.794   5.957   3.447 -0.4978  0.1528  0.5292
   67MOL   C20833340   5.816   5.809   3.404  0.0954 -0.3193  0.0789
   67MOL   C20933341   5.692   5.731   3.356 -0.5253 -0.0864 -0.2810
   67MOL   C21033342   5.700   5.581   3.352 -0.1683  0.1394 -0.3253
   67MOL   H21133343   6.033   6.521   3.468  0.7058 -1.1668 -1.1318
   67MOL   H21233344   6.084   6.384   3.527 -0.8431 -0.8069  1.0820
   67MOL   H21333345   5.833   6.372   3.627  0.7071 -1.9536  0.4092
   67MOL   H21433346   5.837   6.136   3.639  0.8576 -3.0326  0.6636
   67MOL   H21533347   6.011   6.169   3.629  0.4837 -0.5364 -0.6779
   67MOL   H21633348   5.988   5.958   3.571  3.3722  1.6655 -0.7424
   67MOL   H21733349   6.002   6.025   3.415 -0.7361  2.0550 -0.4422
   67MOL   H21833350   5.724   5.966   3.531  1.9246 -2.1770  2.9060
   67MOL   H21933351   5.756   6.009   3.359  3.7990  1.6076 -0.5822
   67MOL   H22033352   5.873   5.785   3.314 -3.1643  2.5886 -2.9765
   67MOL   H22133353   5.863   5.764   3.491  0.0751  1.6035  1.1069
   67MOL   H22233354   5.615   5.746   3.433  1.0245 -0.3276  1.3534
   67MOL   H22333355   5.649   5.776   3.267  1.2149  0.5459 -0.8116
   67MOL   H22433356   5.686   5.535   3.449  0.8380  0.2365 -0.1293
   67MOL   H22533357   5.612   5.555   3.293  1.2247 -2.1059 -1.4892
   67MOL   H22633358   5.789   5.539   3.305 -0.8792 -2.8919  0.9399
   67MOL   C22733359   5.783   6.475   3.451 -0.0847  0.4979  0.2369
   67MOL   C22833360   5.635   6.437   3.437  0.5107 -0.7106  0.0308
   67MOL   O22933361   5.569   6.540   3.366 -0.5806 -0.2176  0.5007
   67MOL   C23033362   5.489   6.623   3.450 -1.1945  0.1485 -0.5899
   67MOL   C23133363   5.380   6.693   3.373  0.3522  0.2238 -0.5481
   67MOL   C23233364   5.273   6.757   3.460 -0.2452  0.3083 -0.1120
   67MOL   C23333365   5.149   6.787   3.383 -0.4599  0.0069 -0.1905
   67MOL   C23433366   5.026   6.853   3.460  0.7595  0.2618  0.5351
   67MOL   C23533367   4.895   6.853   3.378 -0.7852 -0.7435  0.3555
   67MOL   H23633368   5.770   6.568   3.506  1.4181  0.2862  0.9902
   67MOL   H23733369   5.824   6.508   3.356 -0.3036 -0.0951 -0.0694
   67MOL   H23833370   5.595   6.421   3.537 -0.9384  0.2124 -0.3748
   67MOL   H23933371   5.563   6.692   3.492  0.2443 -2.4651  1.3454
   67MOL   H24033372   5.441   6.554   3.520  1.9729  0.3799  1.9476
   67MOL   H24133373   5.333   6.620   3.308  0.0990  0.3384 -0.4941
   67MOL   H24233374   5.418   6.765   3.300  2.7181 -0.1218  0.3012
   67MOL   H24333375   5.246   6.689   3.540 -1.1411 -0.3452 -0.9469
   67MOL   H24433376   5.307   6.850   3.506  0.1341  0.7143 -1.1768
   67MOL   H24533377   5.164   6.839   3.289 -3.1578  0.6076 -0.3489
   67MOL   H24633378   5.121   6.683   3.369  4.6710 -2.0628  3.4278
   67MOL   H24733379   5.007   6.792   3.548  1.5133 -1.0801 -0.2219
   67MOL   H24833380   5.059   6.949   3.499  0.5654  0.5895 -0.0954
   67MOL   H24933381   4.905   6.899   3.279  0.3233 -2.9174 -0.5842
   67MOL   H25033382   4.844   6.758   3.364 -1.8835  0.1180 -1.6939
   67MOL   H25133383   4.823   6.920   3.426 -2.2681 -1.5552 -0.7181
   67MOL   C25233384   5.610   6.313   3.349 -0.9797  0.0516 -0.1496
   67MOL   C25333385   5.470   6.256   3.354 -0.0135  0.8188 -0.2199
   67MOL   O25433386   5.430   6.247   3.487 -0.4661  0.3946 -0.5338
   67MOL   C25533387   5.295   6.247   3.522  0.0182  0.3033 -0.8651
   67MOL   C25633388   5.273   6.181   3.663  0.4629  0.4258 -0.8793
   67MOL   C25733389   5.124   6.172   3.717 -0.0903  0.3627  0.4924
   67MOL   C25833390   5.055   6.305   3.728 -0.3601 -0.4575 -0.1937
   67MOL   C25933391   4.974   6.359   3.609  0.1497 -0.2280 -0.6433
   67MOL   C26033392   4.916   6.489   3.634 -0.2267  1.0362 -0.4384
   67MOL   H26133393   5.633   6.345   3.247  1.5176  0.8979  0.6558
   67MOL   H26233394   5.672   6.228   3.375  1.1552  2.1020  1.6009
   67MOL   H26333395   5.406   6.328   3.302 -1.5022 -0.6584 -0.5059
   67MOL   H26433396   5.237   6.183   3.455 -1.1426 -0.0883  0.4997
   67MOL   H26533397   5.259   6.350   3.517 -0.3037  0.2631  0.4786
   67MOL   H26633398   5.332   6.224   3.743  0.3183 -0.1113 -0.4782
   67MOL   H26733399   5.307   6.077   3.662  0.3384  0.3429  1.8225
   67MOL   H26833400   5.076   6.096   3.656  3.0505 -0.9170 -0.5073
   67MOL   H26933401   5.134   6.134   3.819 -0.4982  0.6841  0.6544
   67MOL   H27033402   4.984   6.308   3.810  1.2683 -0.5600  1.2283
   67MOL   H27133403   5.122   6.382   3.766  0.0009 -0.1243 -1.4725
   67MOL   H27233404   5.028   6.364   3.515  1.2877  0.9907  0.0564
   67MOL   H27333405   4.903   6.283   3.577 -2.9648  1.9269  0.8996
   67MOL   H27433406   4.824   6.477   3.692 -1.0819  1.4804 -1.6652
   67MOL   H27533407   4.981   6.567   3.674 -2.4466  1.5661  2.3163
   67MOL   H27633408   4.886   6.525   3.536 -0.9284  0.6176 -0.3861
   67MOL   C27733409   5.442   6.122   3.285 -0.4160  0.6267 -0.7728
   67MOL   C27833410   5.499   6.109   3.140  0.5368 -0.2266  0.1644
   67MOL   O27933411   5.637   6.108   3.145 -0.0492  0.0294 -0.3199
   67MOL   C28033412   5.702   6.131   3.021  0.5599  0.2745 -0.3172
   67MOL   C28133413   5.839   6.193   3.034 -0.4548 -0.1140 -0.2224
   67MOL   C28233414   5.936   6.099   3.108  0.5710  0.1400  0.3699
   67MOL   C28333415   6.081   6.153   3.104 -0.2848 -0.1254 -0.2149
   67MOL   C28433416   6.110   6.250   3.223  0.6585 -0.2209  0.7278
   67MOL   C28533417   6.242   6.331   3.210 -0.1272  0.0854  0.9862
   67MOL   H28633418   5.481   6.040   3.346  0.0991  1.0561 -0.5299
   67MOL   H28733419   5.334   6.106   3.277 -0.0469 -1.3906 -2.3060
   67MOL   H28833420   5.468   6.195   3.081  0.6570  0.8374  1.6392
   67MOL   H28933421   5.640   6.186   2.950 -0.7724 -0.0174  0.5992
   67MOL   H29033422   5.715   6.032   2.976 -0.3870 -0.4382  0.9501
   67MOL   H29133423   5.852   6.294   3.074  3.2026 -1.0610  1.2058
   67MOL   H29233424   5.879   6.195   2.933 -0.0319 -0.7173 -0.0717
   67MOL   H29333425   5.889   6.091   3.206  1.0227  0.8217  0.6431
   67MOL   H29433426   5.923   5.997   3.072 -1.4297 -0.5001  2.7562
   67MOL   H29533427   6.153   6.072   3.119 -0.5483 -0.1814  0.7834
   67MOL   H29633428   6.109   6.193   3.006  0.0829  0.1082 -0.0155
   67MOL   H29733429   6.023   6.316   3.229 -0.0029 -0.9098 -1.0955
   67MOL   H29833430   6.110   6.188   3.313  0.0603 -0.6870  0.4029
   67MOL   H29933431   6.227   6.416   3.276  0.4138  0.4967  0.5774
   67MOL   H30033432   6.328   6.267   3.228  1.0172  1.2669 -0.1955
   67MOL   H30133433   6.247   6.382   3.114  1.9606  0.1594  1.1265
   67MOL   C30233434   5.445   5.985   3.057  0.8257  0.3442  0.8556
   67MOL   C30333435   5.292   5.950   3.073 -0.5118 -0.5963  0.1188
   67MOL   O30433436   5.275   5.823   3.014 -0.2754  0.3889  0.5830
   67MOL   C30533437   5.307   5.710   3.095 -0.2064 -0.0896  0.4703
   67MOL   C30633438   5.187   5.667   3.181  0.2119 -0.6018 -0.6000
   67MOL   C30733439   5.226   5.549   3.273 -0.0809 -0.7007  0.4788
   67MOL   C30833440   5.105   5.505   3.356  0.3143 -0.1168  0.5438
   67MOL   C30933441   5.142   5.382   3.439 -0.1553 -0.4371 -0.2058
   67MOL   C31033442   5.020   5.355   3.534  0.5502 -0.2372  0.8240
   67MOL   H31133443   5.462   5.986   2.950 -0.6793  3.8845  0.5947
   67MOL   H31233444   5.495   5.898   3.100  0.7999 -0.3098 -0.4390
   67MOL   H31333445   5.265   5.938   3.177 -1.3796  0.4762  0.0319
   67MOL   H31433446   5.392   5.718   3.163  1.2076 -2.4792 -0.9840
   67MOL   H31533447   5.324   5.627   3.028 -1.5186  0.8611 -1.0853
   67MOL   H31633448   5.112   5.631   3.110 -0.0221  0.6508 -1.0028
   67MOL   H31733449   5.150   5.749   3.242 -0.2992 -0.5787 -0.9397
   67MOL   H31833450   5.267   5.467   3.215 -1.2018 -2.2697  1.8687
   67MOL   H31933451   5.292   5.590   3.349 -2.6416 -1.2860  3.1143
   67MOL   H32033452   5.076   5.583   3.426  0.3270  0.8099 -0.4654
   67MOL   H32133453   5.018   5.488   3.293 -1.2667  1.5100  2.2040
   67MOL   H32233454   5.165   5.304   3.367  0.2272 -3.2866  2.9096
   67MOL   H32333455   5.230   5.407   3.497  1.1661 -2.1139 -1.4534
   67MOL   H32433456   5.007   5.250   3.559 -2.0557 -0.0788  0.2209
   67MOL   H32533457   5.034   5.413   3.626  4.4624 -0.5668  0.5234
   67MOL   H32633458   4.925   5.398   3.502  0.5833 -0.7124  0.0875
   67MOL   C32733459   5.207   6.058   3.009 -0.3772 -0.0456  0.0641
   67MOL   C32833460   5.065   6.061   3.068 -0.2172 -0.7993  0.8928
   67MOL   O32933461   4.995   6.180   3.047  0.2616 -0.2882  0.6016
   67MOL   C33033462   4.988   6.261   3.161 -0.0839  0.3792  0.3926
   67MOL   C33133463   4.957   6.401   3.117  0.1161  0.1768 -0.2221
   67MOL   C33233464   5.077   6.467   3.045 -0.4233 -0.3938  0.2599
   67MOL   C33333465   5.059   6.616   3.051  0.4841  0.3665 -0.4366
   67MOL   C33433466   5.156   6.688   2.971 -0.6145  0.3213  0.6470
   67MOL   C33533467   5.121   6.838   2.950 -0.1287 -0.6362  0.1895
   67MOL   H33633468   5.216   6.053   2.900  0.6257  0.7760  0.0987
   67MOL   H33733469   5.247   6.158   3.028  0.5015 -0.6646  1.5202
   67MOL   H33833470   5.083   6.049   3.175  2.7516  0.6729  0.5857
   67MOL   H33933471   5.083   6.265   3.213 -0.4071  4.6717  0.8952
   67MOL   H34033472   4.908   6.231   3.228 -0.5751 -1.1062 -0.8319
   67MOL   H34133473   4.942   6.449   3.214 -2.0253  0.7732 -0.8238
   67MOL   H34233474   4.863   6.404   3.062 -0.4232 -1.4410  0.5851
   67MOL   H34333475   5.175   6.448   3.091 -0.5129  0.8022  0.9461
   67MOL   H34433476   5.081   6.435   2.941  0.6499  1.6110 -0.3372
   67MOL   H34533477   4.957   6.649   3.032  0.4409  0.2691 -0.3743
   67MOL   H34633478   5.072   6.649   3.154 -1.6239 -1.1180  0.3533
   67MOL   H34733479   5.256   6.681   3.013 -0.4421 -0.6297  0.0895
   67MOL   H34833480   5.152   6.638   2.874  1.4217 -0.4211  0.9332
   67MOL   H34933481   5.107   6.892   3.043 -2.7068 -0.7358 -0.1245
   67MOL   H35033482   5.197   6.881   2.884 -1.1609  1.9033  0.5752
   67MOL   H35133483   5.026   6.838   2.897  0.1482  0.0624 -0.3147
   67MOL   C35233484   4.972   5.949   3.006 -0.1218  0.0097  0.1818
   67MOL   C35333485   4.851   5.928   3.095  0.2707  0.1644 -0.6746
   67MOL   O35433486   4.893   5.865   3.217 -0.0606 -0.2535 -0.8207
   67MOL   C35533487   4.839   5.920   3.338  0.6281 -0.7785  0.2875
   67MOL   C35633488   4.835   5.805   3.438 -0.0489  0.4696 -0.2431
   67MOL   C35733489   4.782   5.859   3.573 -0.8357 -0.7097 -1.2091
   67MOL   C35833490   4.838   5.767   3.681 -0.5025  0.0684  0.6555
   67MOL   C35933491   4.800   5.811   3.834 -0.3604  0.2966 -0.0460
   67MOL   C36033492   4.879   5.727   3.943 -0.1666  0.5487 -0.8272
   67MOL   H36133493   4.950   5.980   2.904  0.5795 -2.5249 -0.7929
   67MOL   H36233494   5.030   5.857   2.994  1.2524  1.1504 -2.3112
   67MOL   H36333495   4.804   6.026   3.110  1.5881  0.5234  1.1950
   67MOL   H36433496   4.746   5.975   3.327  0.9758 -0.4863 -1.4490
   67MOL   H36533497   4.901   5.997   3.384  1.6849 -1.1796 -0.4497
   67MOL   H36633498   4.936   5.766   3.445  0.2981  1.1967 -1.0768
   67MOL   H36733499   4.764   5.732   3.399 -0.1860 -0.0141  0.9021
   67MOL   H36833500   4.819   5.959   3.598  0.3510 -1.7612  1.3405
   67MOL   H36933501   4.673   5.853   3.579 -0.8455 -0.2264 -0.8209
   67MOL   H37033502   4.818   5.661   3.668  1.0314 -0.5156  2.8597
   67MOL   H37133503   4.945   5.780   3.666 -0.7016  0.4109 -0.5221
   67MOL   H37233504   4.834   5.914   3.850 -0.5503  0.7805 -2.5317
   67MOL   H37333505   4.694   5.807   3.856  0.0803 -1.9234  1.8106
   67MOL   H37433506   4.829   5.630   3.948 -2.7615  1.9710  2.2677
   67MOL   H37533507   4.985   5.723   3.919 -0.2269  1.4686 -1.2623
   67MOL   H37633508   4.872   5.773   4.041  0.5834  0.1146 -0.5641
   67MOL   C37733509   4.753   5.835   3.022  0.0454  0.2518  0.2209
   67MOL   C37833510   4.622   5.800   3.098 -0.1393  0.3131  0.3295
   67MOL   O37933511   4.560   5.682   3.054  0.2532 -0.3161  0.5537
   67MOL   C38033512   4.613   5.558   3.092 -0.7060  0.4640 -0.2769
   67MOL   C38133513   4.537   5.450   3.016  0.3561  0.0230  0.0278
   67MOL   C38233514   4.387   5.447   3.024  0.3138 -0.1690  0.0460
   67MOL   C38333515   4.321   5.364   2.917  0.4495 -0.0724  0.3100
   67MOL   C38433516   4.168   5.333   2.939 -0.3324  0.1475  1.1833
   67MOL   C38533517   4.126   5.238   3.060  0.4875  0.1962  0.6127
   67MOL   H38633518   4.710   5.885   2.935 -1.5849  1.5942  1.7566
   67MOL   H38733519   4.801   5.740   2.999  0.1158  0.6804 -1.4024
   67MOL   H38833520   4.641   5.786   3.205  1.1200  1.6659  0.3046
   67MOL   H38933521   4.607   5.546   3.200  0.2601  2.5800  0.0495
   67MOL   H39033522   4.718   5.553   3.060  0.2729  0.6210  2.7112
   67MOL   H39133523   4.582   5.353   3.036  1.9703  0.5039 -1.2044
   67MOL   H39233524   4.567   5.466   2.912 -2.1558  1.2896 -0.5666
   67MOL   H39333525   4.350   5.406   3.118  1.0936 -1.8255 -0.3474
   67MOL   H39433526   4.348   5.548   3.018 -2.4663 -1.1399  1.0679
   67MOL   H39533527   4.344   5.415   2.824  0.5522  2.6925  1.7879
   67MOL   H39633528   4.372   5.268   2.903  0.8206  0.5245 -2.7580
   67MOL   H39733529   4.113   5.426   2.955 -0.6460  0.1691  0.0190
   67MOL   H39833530   4.128   5.289   2.848  0.1583  0.3700  0.8634
   67MOL   H39933531   4.172   5.141   3.042 -0.1901  0.4585 -3.0013
   67MOL   H40033532   4.152   5.270   3.160  2.6873  0.0011  0.1208
   67MOL   H40133533   4.019   5.219   3.063  0.3254  1.1037  0.7869
   67MOL   C40233534   4.509   5.905   3.090  0.3948 -0.5788 -0.4688
   67MOL   C40333535   4.405   5.904   3.198  0.1134  0.1186 -0.8878
   67MOL   O40433536   4.308   5.799   3.175  0.1810 -0.0672 -0.3366
   67MOL   C40533537   4.308   5.703   3.276  0.5994  1.0077  0.0952
   67MOL   C40633538   4.184   5.611   3.245  0.0965  0.0149 -0.4577
   67MOL   C40733539   4.044   5.685   3.290 -0.0433 -0.3134 -0.1243
   67MOL   C40833540   3.937   5.582   3.320  0.0521  0.1681 -0.5274
   67MOL   C40933541   3.890   5.508   3.197 -0.5178 -0.1566 -0.5498
   67MOL   C41033542   3.770   5.414   3.231  0.0288 -0.6679 -0.1020
   67MOL   H41133543   4.452   5.901   2.997 -0.1030  0.7961 -0.2398
   67MOL   H41233544   4.556   6.004   3.093 -1.6675  0.4374 -0.8174
   67MOL   H41333545   4.464   5.903   3.290  1.6233 -3.1250 -1.8332
   67MOL   H41433546   4.303   5.753   3.372  4.1428  0.9479  0.3725
   67MOL   H41533547   4.401   5.649   3.259 -0.2588 -1.3180  2.4967
   67MOL   H41633548   4.205   5.528   3.312 -1.3301 -1.9161 -2.3405
   67MOL   H41733549   4.172   5.575   3.143 -1.9184  0.2882 -0.3393
   67MOL   H41833550   4.056   5.738   3.385 -2.6488  0.1292 -0.0091
   67MOL   H41933551   4.015   5.760   3.216  0.6433  1.9685  1.8215
   67MOL   H42033552   3.955   5.504   3.393  0.6559 -0.6446 -1.5385
   67MOL   H42133553   3.860   5.643   3.367 -2.2738 -0.5511 -3.2567
   67MOL   H42233554   3.850   5.578   3.123 -0.3590 -0.3862 -0.8532
   67MOL   H42333555   3.976   5.459   3.151  0.4081 -0.5791  1.5850
   67MOL   H42433556   3.776   5.366   3.329 -1.5995 -0.6185  0.0376
   67MOL   H42533557   3.680   5.475   3.236 -0.9834 -1.9142 -2.2784
   67MOL   H42633558   3.759   5.338   3.153  0.8082 -0.5890 -0.2917
   67MOL   C42733559   4.327   6.036   3.199  0.5342  1.0025 -0.0376
   67MOL   C42833560   4.227   6.062   3.309 -0.5809 -0.0366  0.1133
   67MOL   O42933561   4.310   6.078   3.420 -0.1478 -0.1822 -0.0878
   67MOL   C43033562   4.252   6.032   3.543  0.3756 -0.1396 -0.7088
   67MOL   C43133563   4.353   6.025   3.658 -0.1167 -0.2285 -0.1168
   67MOL   C43233564   4.427   6.156   3.690  0.0979  1.0286  0.5281
   67MOL   C43333565   4.517   6.143   3.819  0.9519 -1.0631  0.4196
   67MOL   C43433566   4.623   6.256   3.832  0.6583 -0.2612  0.5883
   67MOL   C43533567   4.708   6.253   3.961 -0.6200 -0.4354 -0.4313
   67MOL   H43633568   4.392   6.123   3.187  1.2309  0.2075 -2.5156
   67MOL   H43733569   4.283   6.038   3.099  0.0026  1.6761  0.2069
   67MOL   H43833570   4.159   5.978   3.320 -1.6674  1.0596  1.9267
   67MOL   H43933571   4.191   5.942   3.530  0.4947 -0.8721  3.0916
   67MOL   H44033572   4.171   6.100   3.570  0.0849 -1.3680  1.6590
   67MOL   H44133573   4.415   5.940   3.631  0.7827  0.4550 -0.2289
   67MOL   H44233574   4.296   5.991   3.744 -0.3326 -1.1603 -0.6257
   67MOL   H44333575   4.474   6.197   3.602 -0.5586  0.9010  0.1105
   67MOL   H44433576   4.348   6.227   3.712 -0.1414  0.1810  2.5146
   67MOL   H44533577   4.451   6.137   3.906  1.3698  3.1339  1.0973
   67MOL   H44633578   4.570   6.048   3.828  1.6071 -0.5888  1.6416
   67MOL   H44733579   4.681   6.259   3.740  0.7756 -0.5279  0.6530
   67MOL   H44833580   4.573   6.353   3.837  2.8048  0.8843  0.3687
   67MOL   H44933581   4.756   6.350   3.974 -0.5376 -0.4367 -0.7196
   67MOL   H45033582   4.639   6.248   4.046 -0.6744 -0.5875 -0.4841
   67MOL   H45133583   4.789   6.180   3.966  1.1016  1.4214 -0.5608
   67MOL   C45233584   4.148   6.195   3.287 -0.5585  0.5570  0.0569
   67MOL   C45333585   4.006   6.194   3.347 -0.9680  0.3489 -0.0323
   67MOL   O45433586   3.930   6.112   3.259 -0.0185 -0.3155 -0.4348
   67MOL   C45533587   3.811   6.064   3.322 -0.4598  0.1070  0.2183
   67MOL   C45633588   3.725   5.981   3.217 -0.3470 -0.1518 -0.5283
   67MOL   C45733589   3.610   5.898   3.279 -0.0487 -0.1308  0.0616
   67MOL   C45833590   3.551   5.790   3.191  0.0803 -0.2059  0.6020
   67MOL   C45933591   3.449   5.713   3.276  0.2201  0.1970  0.4979
   67MOL   C46033592   3.368   5.621   3.188 -0.2042 -0.8298 -0.2644
   67MOL   H46133593   4.202   6.276   3.337 -1.3008  0.8633  0.3743
   67MOL   H46233594   4.135   6.213   3.181  0.2921 -1.0824 -0.3371
   67MOL   H46333595   4.007   6.159   3.450 -0.0326 -0.6805 -0.3853
   67MOL   H46433596   3.746   6.144   3.359  0.5288  0.4113  1.3515
   67MOL   H46533597   3.826   5.993   3.404  1.1840  2.2827  1.8620
   67MOL   H46633598   3.790   5.904   3.175 -1.4472 -3.1365  2.9368
   67MOL   H46733599   3.681   6.048   3.144 -1.3191  1.0283  1.1038
   67MOL   H46833600   3.650   5.851   3.369  0.0421 -1.2674 -0.5769
   67MOL   H46933601   3.528   5.967   3.298 -1.5006 -1.0755 -2.5461
   67MOL   H47033602   3.513   5.831   3.097 -0.7502 -1.9267  0.1694
   67MOL   H47133603   3.632   5.725   3.159  1.3048  2.1655 -1.3293
   67MOL   H47233604   3.494   5.655   3.357 -0.4332  0.9190  1.3904
   67MOL   H47333605   3.381   5.778   3.331 -0.3861 -0.1820  0.1996
   67MOL   H47433606   3.293   5.683   3.139 -0.9429 -0.7792  0.9351
   67MOL   H47533607   3.426   5.575   3.108  2.7550  2.4787 -0.1780
   67MOL   H47633608   3.318   5.543   3.244  0.5007 -0.9494  0.2080
   67MOL   C47733609   3.945   6.343   3.336 -0.1049 -0.4251 -0.4552
   67MOL   C47833610   3.939   6.415   3.479  0.6083 -0.7084  0.3068
   67MOL   O47933611   3.837   6.353   3.551  0.2766  0.4487 -0.0991
   67MOL   C48033612   3.847   6.378   3.693 -0.5049  0.4935  0.0931
   67MOL   C48133613   3.946   6.284   3.753 -0.3947 -0.4983 -0.9767
   67MOL   C48233614   3.950   6.305   3.906  0.1447  0.3137  0.2525
   67MOL   C48333615   4.054   6.228   3.985 -0.0799  0.3072 -0.1280
   67MOL   C48433616   4.088   6.296   4.118  0.0329  0.0135 -0.4298
   67MOL   C48533617   4.197   6.223   4.198 -0.0118 -0.6603  0.1910
   67MOL   H48633618   4.005   6.400   3.265 -1.9278 -0.1136 -1.7843
   67MOL   H48733619   3.842   6.347   3.299 -0.6782  0.9680  1.2269
   67MOL   H48833620   4.044   6.424   3.510  0.2050  3.0502  0.8531
   67MOL   H48933621   3.748   6.365   3.737 -0.1499  0.5801  0.9350
   67MOL   H49033622   3.874   6.482   3.712 -1.0594  0.8250 -0.9195
   67MOL   H49133623   4.046   6.294   3.712 -0.0909 -0.5533 -0.2599
   67MOL   H49233624   3.906   6.182   3.747 -1.5920  0.0635 -2.8425
   67MOL   H49333625   3.979   6.405   3.939 -0.6259  0.4200  0.6326
   67MOL   H49433626   3.851   6.278   3.943  1.5486 -3.0307  1.7277
   67MOL   H49533627   4.020   6.124   3.991  0.8016  0.0368  0.2040
   67MOL   H49633628   4.143   6.227   3.923  0.5500  0.3213  0.7675
   67MOL   H49733629   4.110   6.401   4.098 -1.2812  0.3771 -0.0107
   67MOL   H49833630   3.994   6.291   4.173 -0.7821  0.4575 -1.7638
   67MOL   H49933631   4.140   6.141   4.241  0.4596 -0.7187  0.7028
   67MOL   H50033632   4.282   6.193   4.137  0.7464  0.3459  0.7429
   67MOL   H50133633   4.218   6.290   4.281 -0.5730  0.1593 -0.3129
   67MOL   H50233634   3.897   6.516   3.480 -0.4679 -1.1277 -1.1362
   68MOL     C133635   0.740   1.744   5.030  0.5151 -0.0528  0.5285
   68MOL     C233636   0.625   1.660   5.094 -0.3428  0.3892  0.2047
   68MOL     O333637   0.558   1.730   5.200 -0.5555 -0.3958 -0.1098
   68MOL     C433638   0.640   1.767   5.311 -0.2227  0.0659 -0.1408
   68MOL     C533639   0.552   1.839   5.424 -0.4098  0.0532 -0.0656
   68MOL     C633640   0.435   1.748   5.463 -0.2767  0.0323  0.4871
   68MOL     C733641   0.352   1.783   5.589 -0.1179  0.1674  0.6650
   68MOL     C833642   0.219   1.700   5.594  0.0567 -0.3027 -0.0090
   68MOL     C933643   0.124   1.740   5.708  0.1318  0.3886 -0.1177
   68MOL    H1033644   0.701   1.845   5.022  0.0837 -0.2964 -0.4452
   68MOL    H1133645   0.828   1.761   5.091  1.2874  2.5269 -1.2391
   68MOL    H1233646   0.551   1.656   5.014 -1.2794  1.0395  1.0374
   68MOL    H1333647   0.705   1.845   5.271  0.2124 -0.4764 -0.5088
   68MOL    H1433648   0.701   1.685   5.350 -0.4779  0.5602  1.3422
   68MOL    H1533649   0.539   1.935   5.374  4.3437  0.9281  0.2074
   68MOL    H1633650   0.618   1.853   5.509 -0.3089  1.7331 -0.4062
   68MOL    H1733651   0.357   1.741   5.387 -0.3241 -1.5702  0.6582
   68MOL    H1833652   0.475   1.647   5.473 -0.8448 -0.1115  1.3366
   68MOL    H1933653   0.412   1.753   5.675 -1.2357 -2.1157  0.6969
   68MOL    H2033654   0.329   1.888   5.603 -0.7281  0.0487  0.5330
   68MOL    H2133655   0.236   1.594   5.612 -1.0016 -0.3415  0.8487
   68MOL    H2233656   0.174   1.707   5.495 -0.2496  2.6506  0.2892
   68MOL    H2333657   0.173   1.741   5.805  1.2017  2.2740 -0.6589
   68MOL    H2433658   0.083   1.840   5.694 -3.2830 -1.1091 -1.3600
   68MOL    H2533659   0.037   1.674   5.707  0.6846 -0.4013 -4.2340
   68MOL    H2633660   0.780   1.704   4.937  0.4452 -1.3481  1.0396
   68MOL    C2733661   0.677   1.515   5.129 -0.0428  0.7047 -0.3094
   68MOL    C2833662   0.578   1.400   5.142 -0.1495  0.0574  0.0733
   68MOL    O2933663   0.648   1.280   5.122 -0.1166  0.0104  0.3233
   68MOL    C3033664   0.658   1.225   4.989  0.4395  0.2783  0.5488
   68MOL    C3133665   0.705   1.084   5.004 -0.0724 -0.3569 -0.0757
   68MOL    C3233666   0.597   0.998   5.083  0.0932 -0.0292 -0.5252
   68MOL    C3333667   0.638   0.846   5.097  0.5944  0.0739 -0.3849
   68MOL    C3433668   0.576   0.782   5.219 -0.7023 -0.0717 -0.0725
   68MOL    C3533669   0.429   0.769   5.216  0.2241 -0.0737 -0.1222
   68MOL    H3633670   0.742   1.488   5.046  1.0064 -2.1561  1.3607
   68MOL    H3733671   0.735   1.524   5.221 -0.7317 -0.6146  0.2713
   68MOL    H3833672   0.501   1.414   5.065 -0.6761  0.7491  0.7143
   68MOL    H3933673   0.728   1.281   4.927  1.0106 -1.8462 -0.7981
   68MOL    H4033674   0.558   1.232   4.945  0.9452 -2.2154 -1.1105
   68MOL    H4133675   0.797   1.077   5.063 -0.6775  0.3856  0.9628
   68MOL    H4233676   0.709   1.040   4.904  0.1796  2.5324 -1.3943
   68MOL    H4333677   0.572   1.040   5.181 -1.3344 -2.4379  0.1728
   68MOL    H4433678   0.503   0.994   5.027 -0.7687 -0.0336  0.9011
   68MOL    H4533679   0.617   0.782   5.011 -1.6066  0.7532 -0.3997
   68MOL    H4633680   0.746   0.843   5.110  0.5550 -0.8688 -0.2680
   68MOL    H4733681   0.627   0.685   5.224 -1.7274 -0.5237  2.3348
   68MOL    H4833682   0.598   0.837   5.311 -2.0993  0.8955 -0.3112
   68MOL    H4933683   0.382   0.867   5.225 -0.7578 -0.4604 -0.9112
   68MOL    H5033684   0.383   0.732   5.124  0.5044 -0.7235 -0.0016
   68MOL    H5133685   0.394   0.715   5.304 -1.3914 -0.7557 -1.1458
   68MOL    C5233686   0.500   1.385   5.275 -0.2666  0.0345  0.2730
   68MOL    C5333687   0.396   1.269   5.269 -0.4992 -0.2015  0.0843
   68MOL    O5433688   0.380   1.232   5.414  0.1882 -0.3208 -0.3284
   68MOL    C5533689   0.487   1.147   5.459  0.6267 -0.4888  0.4484
   68MOL    C5633690   0.470   1.119   5.612 -0.3186  0.2620 -0.3126
   68MOL    C5733691   0.579   1.035   5.683 -0.4528  0.6167 -0.0502
   68MOL    C5833692   0.610   0.910   5.594 -0.4031 -0.0280 -0.8100
   68MOL    C5933693   0.669   0.803   5.685  0.0968 -0.1360  0.1480
   68MOL    C6033694   0.695   0.673   5.615 -0.2137 -0.9552 -0.1001
   68MOL    H6133695   0.440   1.474   5.292 -0.7215  0.0799 -1.4413
   68MOL    H6233696   0.566   1.387   5.361  1.4288  1.8410 -1.0293
   68MOL    H6333697   0.427   1.188   5.203  1.3526  0.4506  0.1355
   68MOL    H6433698   0.582   1.198   5.443 -0.2061  0.6530 -0.9820
   68MOL    H6533699   0.486   1.051   5.407  0.4692 -0.0450 -0.3698
   68MOL    H6633700   0.376   1.067   5.630 -0.0099  0.2321  1.3493
   68MOL    H6733701   0.444   1.209   5.667 -1.1117  0.1155 -0.4524
   68MOL    H6833702   0.664   1.098   5.712  1.6702 -2.6290  1.0632
   68MOL    H6933703   0.539   0.996   5.776 -1.2605  0.6077 -0.4011
   68MOL    H7033704   0.523   0.868   5.542  0.2153 -1.3278 -0.8082
   68MOL    H7133705   0.680   0.945   5.518 -0.6586  2.2068 -0.0483
   68MOL    H7233706   0.756   0.836   5.742 -1.2499  0.9430  1.6373
   68MOL    H7333707   0.597   0.785   5.766 -0.4652  1.7394  0.0791
   68MOL    H7433708   0.750   0.684   5.521 -0.6868  1.0100 -0.1673
   68MOL    H7533709   0.746   0.595   5.673 -0.4577 -1.1818 -0.1929
   68MOL    H7633710   0.606   0.631   5.571 -1.8880  0.4983  1.7931
   68MOL    C7733711   0.262   1.312   5.207  0.0625 -0.4518 -0.3154
   68MOL    C7833712   0.149   1.202   5.175  0.1332 -0.8521  0.7024
   68MOL    O7933713   0.025   1.270   5.162 -0.0093 -0.8951  0.1239
   68MOL    C8033714   0.002   1.304   5.024 -0.0584 -0.3663 -0.5834
   68MOL    C8133715   7.656   1.406   5.026 -1.2666  0.3004 -0.3736
   68MOL    C8233716   7.518   1.338   5.042 -0.2049  0.3119  0.4553
   68MOL    C8333717   7.473   1.271   4.907  0.4190  0.0659 -0.3339
   68MOL    C8433718   7.327   1.226   4.919 -0.2115 -0.2209 -0.4447
   68MOL    C8533719   7.278   1.152   4.794 -0.0470  0.1614 -0.2268
   68MOL    H8633720   0.291   1.364   5.116  0.9139  0.9870  0.7759
   68MOL    H8733721   0.222   1.379   5.282 -0.9056 -2.1466  0.7148
   68MOL    H8833722   0.169   1.145   5.084 -3.4051 -1.6835  0.3720
   68MOL    H8933723   7.753   1.214   4.970 -3.3625  1.6361 -2.4239
   68MOL    H9033724   0.094   1.345   4.982 -0.2275 -2.0300 -2.6531
   68MOL    H9133725   7.657   1.466   4.935 -0.0173 -1.2689 -1.4085
   68MOL    H9233726   7.671   1.478   5.107  0.2940 -2.5409  1.9592
   68MOL    H9333727   7.521   1.271   5.128  0.6746 -0.3145 -0.0482
   68MOL    H9433728   7.453   1.416   5.080  0.6270  0.8980  0.7107
   68MOL    H9533729   7.475   1.344   4.826 -1.3124  0.3847 -0.1032
   68MOL    H9633730   7.532   1.186   4.873 -1.5550 -2.1066  1.5096
   68MOL    H9733731   7.332   1.155   5.001 -0.1349 -1.0157 -1.1392
   68MOL    H9833732   7.265   1.313   4.942  0.6376  0.4525 -0.6426
   68MOL    H9933733   7.235   1.213   4.715  1.0125  0.4520 -0.5929
   68MOL   H10033734   7.363   1.099   4.751 -0.5065 -0.0536 -0.8765
   68MOL   H10133735   7.208   1.075   4.826  1.2447 -0.7650  0.4166
   68MOL   C10233736   0.122   1.097   5.284  0.0134  0.4500 -0.3713
   68MOL   C10333737   0.001   0.995   5.248 -0.5570 -0.0861 -0.0863
   68MOL   O10433738   0.060   0.906   5.151  0.3939  0.9504 -0.4832
   68MOL   C10533739   7.758   0.799   5.109 -0.6264  0.4683 -0.2367
   68MOL   C10633740   0.066   0.719   5.014  0.1153 -0.2498  1.1927
   68MOL   C10733741   0.013   0.580   4.968  0.4802 -0.3268 -0.5121
   68MOL   C10833742   7.695   0.587   4.845 -0.1688 -0.0608  0.4298
   68MOL   C10933743   7.758   0.548   4.706  0.1598  0.5288 -0.3631
   68MOL   C11033744   7.656   0.551   4.594  0.2983 -0.8397  0.0191
   68MOL   H11133745   0.214   1.044   5.307  0.2875  1.6361  1.3846
   68MOL   H11233746   0.101   1.143   5.381 -0.6607  0.8104 -0.6907
   68MOL   H11333747   7.688   1.033   5.202 -1.2493 -1.2939  0.2624
   68MOL   H11433748   7.662   0.821   5.063 -1.4065 -1.8244  0.2649
   68MOL   H11533749   7.724   0.731   5.186  0.8037  0.7847  0.6840
   68MOL   H11633750   0.160   0.699   5.065 -0.4614  2.7314  3.5369
   68MOL   H11733751   0.095   0.781   4.929  1.0276 -0.7314  1.1401
   68MOL   H11833752   0.093   0.512   4.940  0.9866 -0.1855  0.5918
   68MOL   H11933753   7.736   0.522   5.042 -0.2420  1.1493  0.1366
   68MOL   H12033754   7.614   0.520   4.872 -0.8465  0.3885 -0.4726
   68MOL   H12133755   7.647   0.685   4.836  1.0519  0.4361 -0.8649
   68MOL   H12233756   0.052   0.623   4.673 -0.3304  2.1282  2.1174
   68MOL   H12333757   0.026   0.449   4.709 -2.1960 -0.5947  0.1123
   68MOL   H12433758   7.698   0.520   4.498  0.5911 -2.7400  0.7431
   68MOL   H12533759   7.567   0.490   4.599 -0.3655 -0.0530 -1.7278
   68MOL   H12633760   7.609   0.649   4.582  0.0810 -0.8514  0.7618
   68MOL   C12733761   7.724   0.926   5.375  0.6595 -0.0699  0.3274
   68MOL   C12833762   7.575   0.913   5.376  0.0473 -0.4258  0.0075
   68MOL   O12933763   7.526   1.020   5.458  0.1898  0.1730  0.5174
   68MOL   C13033764   7.503   1.146   5.388  0.4811  0.4115 -0.2611
   68MOL   C13133765   7.465   1.262   5.472 -0.2188 -0.1151 -0.2336
   68MOL   C13233766   7.582   1.357   5.498 -0.0513  0.4855  0.2412
   68MOL   C13333767   7.696   1.294   5.581 -0.2222  0.6763 -0.2384
   68MOL   C13433768   0.045   1.377   5.571  0.2726  0.6897 -0.1224
   68MOL   C13533769   0.165   1.321   5.657  0.2231  0.1622 -0.0457
   68MOL   H13633770   0.000   0.831   5.381 -0.9178 -1.0398 -0.2808
   68MOL   H13733771   7.746   0.984   5.465  0.4245 -1.6835  1.4658
   68MOL   H13833772   7.524   0.913   5.280  0.5878 -1.5790 -0.2826
   68MOL   H13933773   7.433   1.131   5.305  0.7705  0.3561 -0.4933
   68MOL   H14033774   7.598   1.174   5.344  1.0530  0.1864  0.8196
   68MOL   H14133775   7.428   1.216   5.563 -0.6545 -0.8806 -0.7982
   68MOL   H14233776   7.383   1.320   5.428 -0.6263  0.0448  0.7280
   68MOL   H14333777   7.624   1.377   5.399  1.4135 -0.2771  0.6876
   68MOL   H14433778   7.546   1.447   5.548  0.1594  1.6187 -1.5834
   68MOL   H14533779   7.674   1.281   5.687  2.3908  1.0221  0.3920
   68MOL   H14633780   7.728   1.196   5.547 -0.3135  0.5046  0.1699
   68MOL   H14733781   0.075   1.393   5.468 -0.7478  0.0961 -0.5244
   68MOL   H14833782   0.022   1.473   5.616 -4.2719 -0.0430 -0.5873
   68MOL   H14933783   0.130   1.315   5.760  0.0743  1.2043 -0.0284
   68MOL   H15033784   0.206   1.228   5.618 -1.2313 -0.8586  0.8380
   68MOL   H15133785   0.258   1.377   5.671 -0.0053  0.4197  0.4178
   68MOL   C15233786   7.524   0.784   5.452 -0.3523 -0.3316 -0.4175
   68MOL   C15333787   7.368   0.762   5.429  0.2065  0.5764  0.0555
   68MOL   O15433788   7.352   0.702   5.300 -0.3170 -0.2011  0.2070
   68MOL   C15533789   7.248   0.771   5.226  0.5579 -0.4427 -0.2659
   68MOL   C15633790   7.227   0.694   5.092 -0.2645  0.7524 -0.1409
   68MOL   C15733791   7.279   0.772   4.971 -0.1319 -0.5712  0.0784
   68MOL   C15833792   7.275   0.695   4.843  0.3099 -0.0108 -0.4993
   68MOL   C15933793   7.313   0.773   4.724  0.0837  0.4960  0.6505
   68MOL   C16033794   7.319   0.682   4.603 -0.3328 -0.5507  0.0921
   68MOL   H16133795   7.564   0.685   5.432 -2.7100 -1.6291  0.9779
   68MOL   H16233796   7.550   0.800   5.557  0.8610 -0.0700 -0.7497
   68MOL   H16333797   7.310   0.854   5.429 -1.5549 -0.4564 -2.7558
   68MOL   H16433798   7.263   0.878   5.208  3.5183 -0.9028 -0.6604
   68MOL   H16533799   7.155   0.775   5.283  0.1047 -1.4932 -0.9216
   68MOL   H16633800   7.122   0.672   5.072 -0.2192  0.6320 -0.2444
   68MOL   H16733801   7.276   0.597   5.094  0.2484  1.0067 -0.2981
   68MOL   H16833802   7.221   0.864   4.960 -1.5835 -1.3894  0.7744
   68MOL   H16933803   7.381   0.805   4.989 -0.3606 -1.2817  2.8330
   68MOL   H17033804   7.341   0.609   4.853  0.3804  0.2055  1.0466
   68MOL   H17133805   7.178   0.647   4.830  0.6810 -1.2983  1.2723
   68MOL   H17233806   7.237   0.850   4.711 -1.0673 -0.6744  0.3641
   68MOL   H17333807   7.410   0.820   4.735  0.3170  0.4213 -0.9870
   68MOL   H17433808   7.377   0.720   4.519  0.5200  2.5768  1.9768
   68MOL   H17533809   7.359   0.584   4.629 -1.8596 -0.8167  1.5342
   68MOL   H17633810   7.217   0.673   4.565 -1.3211  1.8404  1.9782
   68MOL   C17733811   7.299   0.664   5.532 -0.4920 -0.5976  0.4406
   68MOL   C17833812   7.282   0.728   5.675  0.0847  0.0258 -0.0425
   68MOL   O17933813   7.207   0.849   5.698  0.0524  0.4250 -0.4270
   68MOL   C18033814   7.237   0.921   5.820 -0.0206  0.7527  0.5420
   68MOL   C18133815   7.356   1.003   5.803  0.0672  0.2908 -0.9366
   68MOL   C18233816   7.419   1.076   5.933  0.3326  1.0220 -0.0972
   68MOL   C18333817   7.545   1.155   5.911 -0.4094  1.0600  0.2564
   68MOL   C18433818   7.613   1.206   6.040 -0.5577 -0.9099 -0.3825
   68MOL   C18533819   7.726   1.306   6.011 -0.0659 -0.0743 -0.1234
   68MOL   H18633820   7.205   0.639   5.484 -0.0085 -0.0683 -0.8154
   68MOL   H18733821   7.357   0.572   5.542  0.7212 -0.1149 -1.6131
   68MOL   H18833822   7.385   0.750   5.702  0.5609 -1.9253 -0.1791
   68MOL   H18933823   7.244   0.847   5.899  0.2001 -0.5878 -0.7153
   68MOL   H19033824   7.156   0.991   5.842 -2.3228 -1.4682 -0.6942
   68MOL   H19133825   7.331   1.079   5.729 -1.3774  0.2200 -0.5345
   68MOL   H19233826   7.435   0.935   5.771 -0.1939 -0.9598  1.0378
   68MOL   H19333827   7.342   1.141   5.975 -0.0559 -0.2500  1.1719
   68MOL   H19433828   7.429   0.989   5.998  0.6050  0.6039 -0.6906
   68MOL   H19533829   7.622   1.103   5.852  2.2120  1.0972  3.4909
   68MOL   H19633830   7.528   1.241   5.846  0.3335  1.5437  0.6927
   68MOL   H19733831   7.550   1.267   6.105  2.5699  2.3676 -0.2953
   68MOL   H19833832   7.654   1.119   6.091 -2.6441 -0.9728  1.2768
   68MOL   H19933833   7.706   1.385   5.939 -1.3684 -0.1882  0.1071
   68MOL   H20033834   7.769   1.350   6.101  0.2748  1.2615 -0.9151
   68MOL   H20133835   0.035   1.251   5.975 -0.3190 -0.3220 -0.3601
   68MOL   C20233836   7.225   0.619   5.772  0.3606  0.3111  0.3786
   68MOL   C20333837   7.272   0.470   5.780  0.5210  0.3884  0.5964
   68MOL   O20433838   7.167   0.400   5.848 -0.2345  0.2428 -0.8719
   68MOL   C20533839   7.068   0.351   5.759  0.1304  0.2703  0.1946
   68MOL   C20633840   6.960   0.279   5.843  0.2529  0.2411 -0.2974
   68MOL   C20733841   6.869   0.187   5.761 -0.3685 -0.0610 -0.1734
   68MOL   C20833842   6.751   0.142   5.841 -0.4538  0.2353 -0.3215
   68MOL   C20933843   6.669   0.011   5.795 -0.2081 -0.0292  0.0448
   68MOL   C21033844   6.525   0.000   5.850 -0.6402 -0.6014 -0.4938
   68MOL   H21133845   7.240   0.654   5.874 -2.4780  0.3996  0.8118
   68MOL   H21233846   7.117   0.623   5.758  0.0563 -0.4605  2.3282
   68MOL   H21333847   7.290   0.430   5.680 -3.5213 -0.0789 -0.0270
   68MOL   H21433848   7.115   0.282   5.690 -1.0051 -2.4833  2.0896
   68MOL   H21533849   7.016   0.429   5.703  3.0314  1.3362 -1.0989
   68MOL   H21633850   6.904   0.354   5.898 -0.5334  0.4925 -1.4093
   68MOL   H21733851   7.004   0.215   5.919 -1.2231 -2.0629 -1.3087
   68MOL   H21833852   6.832   0.241   5.674 -1.2271  0.6669  0.6440
   68MOL   H21933853   6.929   0.107   5.717 -1.0572  0.5962 -2.3602
   68MOL   H22033854   6.778   0.119   5.944 -3.5262  2.5683  1.1038
   68MOL   H22133855   6.674   0.218   5.858 -1.0472 -0.2008 -1.0348
   68MOL   H22233856   6.670   0.010   5.687  0.0728 -0.3487  0.0508
   68MOL   H22333857   6.727   7.708   5.837  0.6111 -0.3891 -1.7677
   68MOL   H22433858   6.480   7.686   5.814  0.2709 -0.8796 -0.9298
   68MOL   H22533859   6.528   0.003   5.959  1.0224  0.0627 -0.5463
   68MOL   H22633860   6.470   0.089   5.819 -0.1390  0.0387  0.4215
   68MOL   C22733861   7.389   0.452   5.884  0.5443  0.5857  0.7284
   68MOL   C22833862   7.432   0.297   5.893 -0.0176  0.0983 -0.0342
   68MOL   O22933863   7.569   0.306   5.921  0.0279 -0.2380  0.4662
   68MOL   C23033864   7.654   0.335   5.810  0.1047 -0.1423  0.0850
   68MOL   C23133865   0.024   0.305   5.837 -0.1952 -0.5310  0.1742
   68MOL   C23233866   0.049   0.159   5.876 -0.1177  0.5410 -0.4269
   68MOL   C23333867   0.191   0.127   5.935  0.0430 -0.3981  0.0535
   68MOL   C23433868   0.223   7.752   5.903 -0.7794  0.1286 -0.1815
   68MOL   C23533869   0.356   7.701   5.946 -0.1518  0.4204  0.5008
   68MOL   H23633870   7.474   0.512   5.851  0.0769  0.0332 -1.5412
   68MOL   H23733871   7.356   0.488   5.981 -2.2176 -1.2781  0.5257
   68MOL   H23833872   7.415   0.244   5.799  1.4268  2.5594 -1.7340
   68MOL   H23933873   7.644   0.438   5.773  0.0894  0.0078  0.5045
   68MOL   H24033874   7.627   0.262   5.734 -0.4843 -2.2261  2.2679
   68MOL   H24133875   0.062   0.378   5.909  0.1953  1.2206 -1.7742
   68MOL   H24233876   0.072   0.325   5.742 -1.5007 -1.4155 -0.6768
   68MOL   H24333877   7.751   0.122   5.944 -0.1973 -0.5454 -1.0811
   68MOL   H24433878   0.039   0.102   5.783 -0.3710 -0.2063  0.0600
   68MOL   H24533879   0.268   0.183   5.883  0.6642 -1.4155 -0.1322
   68MOL   H24633880   0.179   0.154   6.040  1.1292 -0.9522  0.3247
   68MOL   H24733881   0.150   7.689   5.954  0.1076  2.5494  4.2901
   68MOL   H24833882   0.231   7.727   5.797  1.4493 -2.3288  0.5361
   68MOL   H24933883   0.364   7.593   5.930 -0.7904  0.5042 -0.4269
   68MOL   H25033884   0.435   7.749   5.888 -1.0733  1.2013 -0.1211
   68MOL   H25133885   0.377   7.717   6.052 -1.4996 -0.5030  0.9239
   68MOL   C25233886   7.352   0.233   6.016 -0.0805 -0.3192  0.2541
   68MOL   C25333887   7.325   0.082   6.015 -0.4926 -0.6348  0.3648
   68MOL   O25433888   7.274   0.043   6.144  0.6378  0.7722 -0.2308
   68MOL   C25533889   7.139   0.057   6.170  0.0357 -0.0761 -0.1071
   68MOL   C25633890   7.154   0.080   6.324 -0.2346  0.1017  0.1135
   68MOL   C25733891   7.187   7.729   6.400  0.3202  0.7503  0.9488
   68MOL   C25833892   7.178   7.755   6.549 -0.1220  0.5150  0.2377
   68MOL   C25933893   7.210   7.625   6.624 -0.5007  0.1676 -0.1274
   68MOL   C26033894   7.210   7.644   6.776  0.1647  0.9359  0.0064
   68MOL   H26133895   7.392   0.254   6.115 -0.8317 -0.1164  0.5179
   68MOL   H26233896   7.251   0.275   6.012  0.7845  1.8887  1.0391
   68MOL   H26333897   7.259   0.056   5.932  0.6875 -0.0012 -0.7873
   68MOL   H26433898   7.078   7.748   6.144  0.9099 -0.9671  0.7669
   68MOL   H26533899   7.091   0.144   6.126 -2.7387 -1.4960  0.0362
   68MOL   H26633900   7.051   0.106   6.351 -0.8778 -2.0309 -0.2379
   68MOL   H26733901   7.213   0.170   6.343  2.6311 -1.6854 -0.1813
   68MOL   H26833902   7.115   7.650   6.377  0.2695  0.8527  0.7446
   68MOL   H26933903   7.290   7.699   6.381  0.0941  1.2143 -1.1727
   68MOL   H27033904   7.245   0.057   6.578  0.5989  0.3464 -0.9264
   68MOL   H27133905   7.075   7.777   6.579 -0.1132  0.8695  0.0076
   68MOL   H27233906   7.137   7.548   6.603  1.5842 -1.8139 -0.2554
   68MOL   H27333907   7.303   7.577   6.593  0.3120  1.4636  0.2365
   68MOL   H27433908   7.120   7.705   6.791  0.2880  1.0937  0.1030
   68MOL   H27533909   7.199   7.550   6.830 -0.0177  1.1734  0.3906
   68MOL   H27633910   7.297   7.703   6.804 -0.2957  0.6336  2.1779
   68MOL   C27733911   7.452   0.001   5.994  0.0891  0.7351  0.1318
   68MOL   C27833912   7.436   7.626   5.961 -0.5186  0.0172  0.1149
   68MOL   O27933913   7.358   7.616   5.839 -0.2746 -0.4314 -0.0619
   68MOL   C28033914   7.252   7.524   5.841 -0.6881  0.1740  0.5688
   68MOL   C28133915   7.184   7.533   5.702  0.4399 -0.0652 -0.0423
   68MOL   C28233916   7.098   7.656   5.679 -0.5196  0.6251  0.4603
   68MOL   C28333917   7.072   7.678   5.526 -0.2114 -0.5789 -0.2108
   68MOL   C28433918   6.952   7.604   5.472  0.1767  0.3465  0.7373
   68MOL   C28533919   6.930   7.625   5.321  0.3073  0.3327  0.6941
   68MOL   H28633920   7.513   0.044   5.915 -2.3286  0.1254 -2.1294
   68MOL   H28733921   7.508   0.016   6.087  0.2992  1.2228 -0.0716
   68MOL   H28833922   7.386   7.570   6.039 -0.6006 -0.2249 -0.1115
   68MOL   H28933923   7.182   7.564   5.915 -1.2613  0.1651  0.0342
   68MOL   H29033924   7.279   7.421   5.863 -1.5539  0.0832  1.2316
   68MOL   H29133925   7.122   7.443   5.697 -1.4416  1.1605  0.6624
   68MOL   H29233926   7.257   7.518   5.622 -2.8655 -2.0507 -2.8511
   68MOL   H29333927   7.009   7.663   5.741  0.0088  0.6306  1.2271
   68MOL   H29433928   7.158   7.737   5.721 -0.1101 -2.3312  6.0103
   68MOL   H29533929   7.060   0.008   5.517  1.0884 -0.4526 -0.6717
   68MOL   H29633930   7.164   7.655   5.471 -0.4503  0.5969 -1.1126
   68MOL   H29733931   6.972   7.499   5.489  0.9962  0.3822  0.0058
   68MOL   H29833932   6.865   7.639   5.529  0.9335  2.3068  0.7425
   68MOL   H29933933   6.858   7.554   5.281 -1.3332  2.4057 -0.1737
   68MOL   H30033934   6.903   7.730   5.306  1.8706  1.0963  2.9079
   68MOL   H30133935   7.021   7.596   5.270  1.3763  3.2123  0.8285
   68MOL   C30233936   7.583   7.574   5.938 -0.3037 -0.0147 -0.2935
   68MOL   C30333937   7.653   7.496   6.054 -0.1392  0.8009 -0.4181
   68MOL   O30433938   7.575   7.392   6.112 -0.4427 -0.1077  0.3088
   68MOL   C30533939   7.549   7.286   6.024  0.4377  0.2431 -0.2803
   68MOL   C30633940   7.512   7.174   6.126  0.5148 -0.2785  0.2556
   68MOL   C30733941   7.366   7.176   6.181 -0.0967  0.0464 -0.8501
   68MOL   C30833942   7.338   7.280   6.300 -0.4068 -0.0765 -0.3096
   68MOL   C30933943   7.197   7.286   6.361 -0.2496  1.0490 -0.5157
   68MOL   C31033944   7.091   7.290   6.253  0.8849 -0.7009  0.3717
   68MOL   H31133945   7.577   7.504   5.855  2.2323 -0.9033  0.2302
   68MOL   H31233946   7.650   7.653   5.906  1.3996 -2.2043 -2.2696
   68MOL   H31333947   7.737   7.446   6.005 -1.1300 -2.5170  1.1320
   68MOL   H31433948   7.637   7.264   5.964  0.0409  0.7931 -1.0606
   68MOL   H31533949   7.471   7.317   5.954  2.1280 -0.2951 -2.4509
   68MOL   H31633950   7.592   7.153   6.197  1.0580  0.7853 -0.0299
   68MOL   H31733951   7.517   7.081   6.069  1.9891 -0.2351  0.2844
   68MOL   H31833952   7.294   7.197   6.102 -2.0876  0.0503  0.8986
   68MOL   H31933953   7.347   7.081   6.230 -1.6671  1.5515  1.5996
   68MOL   H32033954   7.405   7.247   6.380  0.8088  0.3065 -1.1504
   68MOL   H32133955   7.367   7.380   6.269  2.4794 -1.0437 -0.9317
   68MOL   H32233956   7.176   7.194   6.416 -0.8836  1.9221  0.7328
   68MOL   H32333957   7.190   7.373   6.426  1.2632  1.3280 -0.7110
   68MOL   H32433958   7.085   7.372   6.182 -2.6183 -3.4102 -2.6543
   68MOL   H32533959   7.079   7.202   6.190  2.0102 -1.3617  1.0627
   68MOL   H32633960   6.996   7.291   6.308  0.6079  1.2284 -0.0985
   68MOL   C32733961   7.691   7.593   6.166 -0.0299  0.1396 -0.2485
   68MOL   C32833962   7.775   7.543   6.289  0.1263  0.6414  0.3769
   68MOL   O32933963   0.110   7.481   6.242 -0.4016  1.0860 -0.1998
   68MOL   C33033964   0.105   7.342   6.271 -0.6768  0.1996 -0.5742
   68MOL   C33133965   0.230   7.273   6.219  0.2614 -0.5537  0.3920
   68MOL   C33233966   0.235   7.256   6.064  0.1180 -0.5103  0.7209
   68MOL   C33333967   0.351   7.173   6.006 -0.1592 -0.8267 -0.5267
   68MOL   C33433968   0.333   7.129   5.862 -0.0614  0.0168 -0.5198
   68MOL   C33533969   0.453   7.063   5.797 -0.6661 -0.4681  0.4935
   68MOL   H33633970   7.593   7.612   6.209 -0.3711  0.0034 -0.9658
   68MOL   H33733971   7.737   7.685   6.129 -1.6600  1.4087  0.8336
   68MOL   H33833972   7.709   7.475   6.344 -1.2911  0.3201 -1.6448
   68MOL   H33933973   0.016   7.309   6.219 -0.6030 -1.5307  0.3679
   68MOL   H34033974   0.099   7.332   6.380 -4.2343  2.1382 -0.5428
   68MOL   H34133975   0.237   7.172   6.261 -1.7443 -0.8548  0.0847
   68MOL   H34233976   0.317   7.322   6.263 -0.2726  0.0817  0.7634
   68MOL   H34333977   0.138   7.218   6.030 -0.8593 -0.7780  3.5983
   68MOL   H34433978   0.239   7.357   6.023  0.9126 -0.8123  0.0601
   68MOL   H34533979   0.441   7.232   6.020 -0.0595 -1.4083  1.3784
   68MOL   H34633980   0.380   7.090   6.071  0.7110  0.3266  0.5752
   68MOL   H34733981   0.254   7.055   5.858  0.3132 -0.4363  0.4075
   68MOL   H34833982   0.300   7.216   5.805 -2.2458  0.7941  1.8666
   68MOL   H34933983   0.526   7.144   5.789 -1.2993  0.2575  2.0244
   68MOL   H35033984   0.488   6.993   5.872  2.8184 -0.1088 -0.6774
   68MOL   H35133985   0.427   7.010   5.705  0.6768  0.0611 -0.2122
   68MOL   C35233986   0.036   7.659   6.373 -0.0365  0.5725 -0.2328
   68MOL   C35333987   0.111   7.610   6.502  0.2021  0.5506  0.0392
   68MOL   O35433988   0.009   7.579   6.593 -0.4719 -0.0688 -1.3085
   68MOL   C35533989   0.055   7.484   6.691  0.6882  0.0706 -0.2297
   68MOL   C35633990   7.723   7.459   6.791  0.4399 -0.1593 -0.0691
   68MOL   C35733991   7.710   7.570   6.899  0.8549 -0.3032  0.1195
   68MOL   C35833992   7.619   7.515   7.011  0.2952 -0.0674  0.1538
   68MOL   C35933993   7.473   7.496   6.972  0.4024  0.6416  0.5492
   68MOL   C36033994   7.397   7.433   7.075  0.0963  0.1968  0.2555
   68MOL   H36133995   0.098   7.722   6.310 -0.5505 -0.0347 -1.3661
   68MOL   H36233996   7.723   7.710   6.404 -0.6892 -0.6869 -0.0309
   68MOL   H36333997   0.184   7.531   6.487  1.2858  1.5200  0.1740
   68MOL   H36433998   0.150   7.492   6.744  1.0213  1.2241 -0.9830
   68MOL   H36533999   0.056   7.397   6.626  0.3102  0.7060 -1.0966
   68MOL   H36634000   7.733   7.361   6.837  1.3440  0.6095  1.4035
   68MOL   H36734001   7.634   7.439   6.730  0.5336 -0.5366 -0.0840
   68MOL   H36834002   0.029   7.604   6.934  2.0006 -2.0593 -1.3247
   68MOL   H36934003   7.669   7.662   6.855 -3.5062 -1.8179  0.7216
   68MOL   H37034004   7.650   7.418   7.051  0.2232 -0.4266 -0.6512
   68MOL   H37134005   7.627   7.570   7.105 -0.4847 -1.5417  1.1140
   68MOL   H37234006   7.437   7.592   6.937  1.0635  1.6406  2.5198
   68MOL   H37334007   7.484   7.428   6.888 -0.6719  1.4561 -0.2654
   68MOL   H37434008   7.291   7.434   7.053 -0.1648 -1.0514  1.3656
   68MOL   H37534009   7.443   7.335   7.092  2.2774  1.4276  1.7120
   68MOL   H37634010   7.404   7.480   7.173 -0.1460 -0.9718  0.8451
   68MOL   C37734011   0.186   7.732   6.568 -0.0059 -0.6109 -0.6855
   68MOL   C37834012   0.303   0.024   6.487 -0.5651 -0.4127 -0.1274
   68MOL   O37934013   0.417   7.717   6.471 -0.2801 -0.5312  0.1122
   68MOL   C38034014   0.423   7.663   6.338  0.4597  0.3209 -0.1521
   68MOL   C38134015   0.535   7.555   6.343  0.3558 -0.1495 -0.2523
   68MOL   C38234016   0.593   7.526   6.206  1.1709 -0.7457 -0.0845
   68MOL   C38334017   0.685   7.413   6.197 -0.1706 -0.4698 -0.3649
   68MOL   C38434018   0.650   7.279   6.268 -0.0018 -0.5898  0.2382
   68MOL   C38534019   0.733   7.170   6.217 -0.2934  0.3641 -0.5615
   68MOL   H38634020   0.117   0.035   6.591  0.2479 -1.0907  1.9266
   68MOL   H38734021   0.229   7.699   6.663 -0.8098  1.9713  0.6250
   68MOL   H38834022   0.260   0.056   6.392 -2.3466 -0.2252  0.7247
   68MOL   H38934023   0.438   7.736   6.259 -0.8965 -1.0448 -1.7034
   68MOL   H39034024   0.335   7.604   6.312 -0.6845  2.0860 -0.3155
   68MOL   H39134025   0.503   7.465   6.397 -1.0277  0.6117  0.2330
   68MOL   H39234026   0.611   7.597   6.409 -1.4755  1.9064  0.6204
   68MOL   H39334027   0.509   7.505   6.140  0.5610  1.1661  0.0394
   68MOL   H39434028   0.632   7.619   6.164  1.0387  1.3286  4.1776
   68MOL   H39534029   0.687   7.393   6.090 -2.7778  0.0267 -0.5246
   68MOL   H39634030   0.785   7.452   6.218 -0.6141 -0.7030  2.3845
   68MOL   H39734031   0.661   7.280   6.377  2.1647 -0.4131  0.0427
   68MOL   H39834032   0.546   7.254   6.250 -0.1991  1.0394 -1.0087
   68MOL   H39934033   0.840   7.189   6.222 -0.2449  0.1167 -0.6376
   68MOL   H40034034   0.708   7.072   6.256  1.4875 -0.1959 -0.7640
   68MOL   H40134035   0.714   7.145   6.112  0.2398 -0.4485 -0.4662
   68MOL   C40234036   0.346   0.158   6.547  0.1606  0.1372 -0.5555
   68MOL   C40334037   0.470   0.221   6.488 -0.3799 -0.6527  0.0922
   68MOL   O40434038   0.514   0.345   6.550  0.2954  0.5728 -0.9579
   68MOL   C40534039   0.606   0.324   6.652 -0.5783  0.3987  0.1705
   68MOL   C40634040   0.668   0.458   6.688 -0.8258 -1.3276 -0.1118
   68MOL   C40734041   0.750   0.534   6.572  0.2208 -0.2932 -0.0446
   68MOL   C40834042   0.896   0.499   6.555 -0.2297 -0.0719 -0.5296
   68MOL   C40934043   0.971   0.576   6.449  0.3558 -0.0278  0.1496
   68MOL   C41034044   1.120   0.535   6.442  0.5928 -0.3112 -0.1018
   68MOL   H41134045   0.365   0.121   6.648 -1.5445 -0.8286 -0.5770
   68MOL   H41234046   0.266   0.231   6.534 -0.5566  0.3348  4.0324
   68MOL   H41334047   0.541   0.138   6.480  0.6287  0.2324 -0.2515
   68MOL   H41434048   0.680   0.255   6.613 -1.4031 -1.5522  1.9499
   68MOL   H41534049   0.556   0.268   6.731  0.0025 -1.5924 -0.8399
   68MOL   H41634050   0.742   0.443   6.767 -1.6389  0.0844  0.9341
   68MOL   H41734051   0.591   0.517   6.736  0.6297 -0.4102  1.1413
   68MOL   H41834052   0.704   0.541   6.473 -0.3683  2.6022  0.4112
   68MOL   H41934053   0.752   0.638   6.603  2.0386 -0.1419 -0.6098
   68MOL   H42034054   0.949   0.508   6.650 -1.2249 -0.0741  0.0337
   68MOL   H42134055   0.905   0.392   6.537 -1.3537  0.2424 -3.2020
   68MOL   H42234056   0.945   0.550   6.347  1.8431 -2.0314  0.2630
   68MOL   H42334057   0.961   0.682   6.473 -0.7005 -0.1898  0.4626
   68MOL   H42434058   1.170   0.553   6.537 -0.5690 -1.0882  0.6716
   68MOL   H42534059   1.130   0.428   6.421  1.1872 -0.3431  0.3413
   68MOL   H42634060   1.179   0.592   6.370 -1.9570  1.3945 -0.8676
   68MOL   C42734061   0.426   0.273   6.345 -0.0030 -0.3479  0.5392
   68MOL   C42834062   0.545   0.329   6.258  0.5747  0.6141 -0.0146
   68MOL   O42934063   0.645   0.231   6.239 -0.2166 -0.0636 -0.6072
   68MOL   C43034064   0.778   0.273   6.250  0.0297 -0.8737  0.2311
   68MOL   C43134065   0.869   0.153   6.261  0.2750  0.1883  0.4288
   68MOL   C43234066   0.847   0.070   6.382  0.6022  0.1183  0.0249
   68MOL   C43334067   0.946   7.724   6.394  0.8448  0.1797  0.6591
   68MOL   C43434068   0.927   7.643   6.527  1.1886  0.4031 -0.1867
   68MOL   C43534069   0.997   7.506   6.526  0.7814 -0.0001 -0.1814
   68MOL   H43634070   0.379   0.194   6.288 -1.2258  1.0301 -0.3784
   68MOL   H43734071   0.358   0.356   6.364 -0.0404  0.3151 -2.3925
   68MOL   H43834072   0.588   0.409   6.318  0.6904  0.5528 -0.0169
   68MOL   H43934073   0.791   0.343   6.333 -0.7627  0.0666 -0.4354
   68MOL   H44034074   0.792   0.324   6.155 -0.4444  1.0007  1.1456
   68MOL   H44134075   0.970   0.194   6.251 -0.5327  1.4946 -2.8670
   68MOL   H44234076   0.845   0.093   6.174  0.8081 -0.4975  0.7505
   68MOL   H44334077   0.865   0.144   6.460  0.7541  0.0284  0.0758
   68MOL   H44434078   0.743   0.041   6.394  1.5807 -3.3917  0.5529
   68MOL   H44534079   0.919   7.663   6.308 -3.8144  2.8437  0.0425
   68MOL   H44634080   1.047   7.762   6.377  0.8839 -0.3201 -0.2590
   68MOL   H44734081   0.970   7.696   6.612 -1.3508  0.5296  1.0653
   68MOL   H44834082   0.825   7.618   6.553  1.0016 -0.5378 -1.8026
   68MOL   H44934083   0.954   7.428   6.464  0.3826 -2.2026  2.7814
   68MOL   H45034084   1.095   7.514   6.478  0.4484  2.8711 -0.4899
   68MOL   H45134085   0.999   7.462   6.626  1.4317 -2.5622 -1.2767
   68MOL   C45234086   0.474   0.380   6.135  0.3042  0.3214  0.2509
   68MOL   C45334087   0.560   0.463   6.036 -0.4445 -0.5616 -0.0876
   68MOL   O45434088   0.592   0.586   6.099 -0.1329 -0.2146 -0.2945
   68MOL   C45534089   0.728   0.628   6.064 -0.3358  0.2784  0.5153
   68MOL   C45634090   0.738   0.764   6.145 -0.0811  0.4021  0.4041
   68MOL   C45734091   0.628   0.866   6.090  0.2310  0.1764  0.4577
   68MOL   C45834092   0.664   1.000   6.150 -0.3770  0.3109 -0.6249
   68MOL   C45934093   0.570   1.109   6.103 -0.3531  0.3587  0.1233
   68MOL   C46034094   0.430   1.101   6.173  1.0547  0.1393 -0.4187
   68MOL   H46134095   0.420   0.299   6.086 -1.9320  1.6431  0.4656
   68MOL   H46234096   0.394   0.441   6.177  2.3100  2.0234  1.7189
   68MOL   H46334097   0.646   0.397   6.023 -1.2020 -1.9351  1.5995
   68MOL   H46434098   0.751   0.631   5.958 -0.3058  0.0780  0.5160
   68MOL   H46534099   0.800   0.561   6.110  1.6422  2.3306  0.4908
   68MOL   H46634100   0.841   0.797   6.133  0.3110 -1.0987 -0.4167
   68MOL   H46734101   0.720   0.735   6.249 -2.0764 -1.8727 -0.5441
   68MOL   H46834102   0.627   0.884   5.982  1.9452 -1.4518  0.1469
   68MOL   H46934103   0.528   0.843   6.126  1.1371  0.1839  3.0961
   68MOL   H47034104   0.670   1.002   6.258  2.0075 -3.1945 -0.6109
   68MOL   H47134105   0.767   1.025   6.124 -0.8313  1.7725 -1.0840
   68MOL   H47234106   0.621   1.202   6.128 -0.3277  0.2908  0.3294
   68MOL   H47334107   0.555   1.112   5.995 -0.3419  1.0488  0.1382
   68MOL   H47434108   0.360   1.183   6.156  1.2474 -0.2261 -3.2050
   68MOL   H47534109   0.373   1.019   6.129  0.6146  0.3270 -0.2027
   68MOL   H47634110   0.455   1.096   6.279  3.1304  3.0615 -0.7130
   68MOL   C47734111   0.495   0.488   5.900  0.3340 -0.5214 -0.2401
   68MOL   C47834112   0.379   0.590   5.892  0.2179 -0.5954  0.2353
   68MOL   O47934113   0.349   0.592   5.752 -0.2201  0.1774 -0.3413
   68MOL   C48034114   0.259   0.703   5.725  0.1119  0.0038 -0.2475
   68MOL   C48134115   0.258   0.694   5.570  0.0692  1.0028  0.4018
   68MOL   C48234116   0.153   0.592   5.534 -0.5929 -0.5950 -0.0759
   68MOL   C48334117   0.160   0.545   5.387 -0.1013  0.2042  0.8128
   68MOL   C48434118   0.085   0.419   5.355  0.3950  0.3469  0.1865
   68MOL   C48534119   7.714   0.447   5.351  1.1280  0.2257  0.3983
   68MOL   H48634120   0.579   0.504   5.832  1.5314  2.2977  1.7897
   68MOL   H48734121   0.452   0.392   5.873  2.1960 -0.2793 -4.5928
   68MOL   H48834122   0.293   0.553   5.948  0.5686 -2.6997 -0.5644
   68MOL   H48934123   0.296   0.802   5.752 -1.1979 -0.5878  4.0699
   68MOL   H49034124   0.165   0.681   5.776  1.7551 -1.7290  2.1028
   68MOL   H49134125   0.361   0.684   5.535 -0.2094 -2.9665  0.4725
   68MOL   H49234126   0.218   0.790   5.537  0.8512  1.4389  0.6986
   68MOL   H49334127   0.175   0.502   5.592  2.0081  1.0513  1.6242
   68MOL   H49434128   0.052   0.614   5.568 -0.1752  0.3388  0.5699
   68MOL   H49534129   0.136   0.627   5.319  1.3918  0.6160  0.7605
   68MOL   H49634130   0.264   0.516   5.371 -0.1291  0.2139  0.6072
   68MOL   H49734131   0.131   0.375   5.267 -1.7014  0.4488 -0.9899
   68MOL   H49834132   0.097   0.342   5.431  0.4440 -2.0609 -2.2251
   68MOL   H49934133   7.687   0.519   5.274  1.5524 -0.6408 -0.5808
   68MOL   H50034134   7.659   0.356   5.328 -3.8270  3.3258 -0.7697
   68MOL   H50134135   7.671   0.462   5.450 -0.7230  0.8997 -0.5014
   68MOL   H50234136   0.404   0.687   5.935  0.2014 -0.5641  0.1762
   69MOL     C134137   5.413   3.966   4.383  0.0706  0.0965  1.0576
   69MOL     C234138   5.410   4.118   4.399 -0.0497 -0.8094 -0.7609
   69MOL     O334139   5.346   4.172   4.287 -0.1056 -0.1140 -0.1582
   69MOL     C434140   5.203   4.161   4.278 -0.2034 -0.6695 -0.2185
   69MOL     C534141   5.139   4.254   4.173  0.2093 -0.3751 -0.1980
   69MOL     C634142   5.181   4.227   4.022  0.8217 -0.4092 -0.3311
   69MOL     C734143   5.140   4.092   3.966 -0.3066 -0.2960 -0.3677
   69MOL     C834144   5.208   4.079   3.822  0.2379  0.3737  0.3950
   69MOL     C934145   5.147   4.175   3.715  0.2032  0.3454 -0.6139
   69MOL    H1034146   5.473   3.923   4.463  0.0372 -3.0957 -0.5624
   69MOL    H1134147   5.313   3.924   4.395 -1.0841  2.0650 -1.1433
   69MOL    H1234148   5.369   4.150   4.495  0.4132  2.5688 -1.6184
   69MOL    H1334149   5.161   4.189   4.376  1.2047  1.3264 -0.1459
   69MOL    H1434150   5.173   4.058   4.260  0.9856 -1.0308 -0.1811
   69MOL    H1534151   5.167   4.356   4.199 -0.3797 -0.2479 -0.0485
   69MOL    H1634152   5.030   4.255   4.180  0.1118  2.9180 -1.4064
   69MOL    H1734153   5.128   4.305   3.967 -0.7147  0.3249  2.1401
   69MOL    H1834154   5.289   4.234   4.011  0.8313 -0.5726 -0.3341
   69MOL    H1934155   5.173   4.012   4.033 -1.4400 -0.5977 -0.1654
   69MOL    H2034156   5.033   4.076   3.971 -0.2979 -0.1520  0.3000
   69MOL    H2134157   5.204   3.973   3.796 -0.4684  0.3115  0.7494
   69MOL    H2234158   5.316   4.091   3.833  0.4572 -1.9506  1.1497
   69MOL    H2334159   5.148   4.280   3.747  3.7363 -0.0969  1.0319
   69MOL    H2434160   5.214   4.171   3.629  1.0248  0.8867 -0.0209
   69MOL    H2534161   5.046   4.157   3.681  0.2002  1.5898 -1.2897
   69MOL    H2634162   5.458   3.959   4.284  0.5926 -0.4493  1.3320
   69MOL    C2734163   5.556   4.175   4.404  0.0446  0.5508  0.1210
   69MOL    C2834164   5.555   4.323   4.425 -0.3282  0.5332 -0.3331
   69MOL    O2934165   5.481   4.339   4.542 -0.2036 -0.3267  0.0950
   69MOL    C3034166   5.401   4.455   4.536  0.6849 -0.3662 -0.0556
   69MOL    C3134167   5.253   4.431   4.520  0.8937 -0.0835 -0.1546
   69MOL    C3234168   5.166   4.557   4.531  0.1774 -0.0413  0.2287
   69MOL    C3334169   5.029   4.533   4.467  0.2517  0.5781 -0.1085
   69MOL    C3434170   4.943   4.656   4.442  0.0582  0.1517 -0.6833
   69MOL    C3534171   4.823   4.632   4.351  0.0811 -0.5009 -0.5836
   69MOL    H3634172   5.620   4.118   4.471 -0.0123 -2.0909 -1.9703
   69MOL    H3734173   5.605   4.151   4.309 -0.5008  1.4383 -0.3912
   69MOL    H3834174   5.513   4.373   4.338  0.4737  0.5647 -0.7001
   69MOL    H3934175   5.438   4.526   4.462 -2.5802  2.2486  0.6891
   69MOL    H4034176   5.404   4.515   4.627 -1.4854  0.0480 -0.2395
   69MOL    H4134177   5.220   4.354   4.588  0.8025  1.7240  1.9050
   69MOL    H4234178   5.246   4.376   4.426 -3.2346  0.2759 -0.1346
   69MOL    H4334179   5.163   4.586   4.636  0.1935  0.8426 -0.0123
   69MOL    H4434180   5.214   4.644   4.486 -0.5257 -0.1576 -0.7573
   69MOL    H4534181   5.035   4.475   4.374  0.0710  0.9280 -0.3393
   69MOL    H4634182   4.973   4.480   4.544  0.9497  0.0306  0.0231
   69MOL    H4734183   4.920   4.689   4.544 -0.0885 -1.3194 -0.2335
   69MOL    H4834184   4.993   4.744   4.401  0.2176  1.0807  1.3992
   69MOL    H4934185   4.769   4.725   4.335  0.1916 -0.6031 -1.6093
   69MOL    H5034186   4.851   4.589   4.255  1.3559  0.3032 -0.5872
   69MOL    H5134187   4.757   4.570   4.411 -0.0581 -0.4278 -0.6614
   69MOL    C5234188   5.695   4.391   4.443 -0.0187  0.5140  0.1001
   69MOL    C5334189   5.771   4.425   4.312 -0.1967 -0.1304 -0.6753
   69MOL    O5434190   5.689   4.526   4.253 -0.4713  0.0233 -0.2035
   69MOL    C5534191   5.640   4.507   4.124 -0.2181 -0.2427  1.4201
   69MOL    C5634192   5.515   4.588   4.104 -0.5278  0.4805  0.2743
   69MOL    C5734193   5.440   4.565   3.970  0.5167  0.2613  0.2985
   69MOL    C5834194   5.526   4.632   3.863 -0.2693 -0.0556 -0.2852
   69MOL    C5934195   5.440   4.638   3.738  0.6623 -1.0968 -0.3967
   69MOL    C6034196   5.420   4.500   3.670 -0.0560 -0.6756  0.0431
   69MOL    H6134197   5.736   4.321   4.516  0.8709  1.6420  0.6962
   69MOL    H6234198   5.679   4.477   4.507 -0.4215  0.8667 -0.4722
   69MOL    H6334199   5.781   4.332   4.256  0.0971 -1.5744  1.6974
   69MOL    H6434200   5.613   4.402   4.115  2.1679 -1.3672  5.6357
   69MOL    H6534201   5.718   4.527   4.051  1.5644 -3.0538  2.4778
   69MOL    H6634202   5.540   4.693   4.097  0.8279  0.1070 -0.6250
   69MOL    H6734203   5.449   4.581   4.190  0.9305  1.0155  1.4391
   69MOL    H6834204   5.429   4.459   3.947  0.6027 -0.0102  1.4541
   69MOL    H6934205   5.342   4.612   3.969  0.7291  0.7144  0.5281
   69MOL    H7034206   5.557   4.732   3.894 -3.7497  1.0918 -0.1865
   69MOL    H7134207   5.617   4.574   3.848  0.0336  0.4425 -0.3728
   69MOL    H7234208   5.345   4.690   3.740  0.5322 -1.3694  1.7360
   69MOL    H7334209   5.490   4.694   3.659  0.8927  0.3654  0.7777
   69MOL    H7434210   5.510   4.445   3.696 -1.3237 -2.3748  0.9377
   69MOL    H7534211   5.346   4.442   3.725  0.6189 -0.7213  0.9221
   69MOL    H7634212   5.392   4.503   3.565  1.3958  4.2712 -0.3668
   69MOL    C7734213   5.907   4.494   4.327  0.3790  0.3106 -0.3392
   69MOL    C7834214   6.021   4.410   4.377 -0.0903 -0.0117 -0.3341
   69MOL    O7934215   5.992   4.343   4.500  0.2516 -0.5438 -0.2854
   69MOL    C8034216   6.038   4.213   4.506  0.4335 -0.2624 -0.2504
   69MOL    C8134217   6.048   4.189   4.659  0.0961  0.3123 -0.2409
   69MOL    C8234218   5.905   4.171   4.722  0.4752 -0.8783  1.0078
   69MOL    C8334219   5.850   4.026   4.705 -0.2820  0.3186  0.5292
   69MOL    C8434220   5.713   4.003   4.778 -0.2065 -0.2515 -0.3118
   69MOL    C8534221   5.664   3.855   4.760 -0.2047 -0.4138  0.5170
   69MOL    H8634222   5.898   4.579   4.395  1.4502 -0.9297  1.4332
   69MOL    H8734223   5.935   4.527   4.228 -1.2085  0.0231 -0.8947
   69MOL    H8834224   6.024   4.331   4.302 -0.6715  0.4559 -0.8564
   69MOL    H8934225   6.129   4.202   4.447  1.3400 -0.5127  1.1766
   69MOL    H9034226   5.969   4.146   4.455  0.3759  0.0581 -0.5992
   69MOL    H9134227   6.119   4.258   4.704  2.3143 -1.3122 -1.1599
   69MOL    H9234228   6.082   4.089   4.686  0.5276  0.4418 -0.2910
   69MOL    H9334229   5.923   4.181   4.829  0.0721 -0.5133  1.0458
   69MOL    H9434230   5.834   4.246   4.688  1.7445 -0.0554  0.1226
   69MOL    H9534231   5.833   4.005   4.599 -1.8562 -2.2479  1.2364
   69MOL    H9634232   5.928   3.955   4.731 -0.2663 -0.3749 -1.2802
   69MOL    H9734233   5.718   4.032   4.883 -1.1214 -1.1900 -0.0042
   69MOL    H9834234   5.635   4.066   4.735 -1.6123 -0.9687  1.1277
   69MOL    H9934235   5.570   3.838   4.813  0.1792  0.5750  1.5273
   69MOL   H10034236   5.642   3.830   4.656 -0.5100  2.2927 -0.1176
   69MOL   H10134237   5.736   3.790   4.809  1.5794  0.3124 -1.0759
   69MOL   C10234238   6.159   4.476   4.385  0.1916  0.0051  0.5790
   69MOL   C10334239   6.244   4.476   4.261  0.2054 -1.1079  0.1514
   69MOL   O10434240   6.178   4.538   4.156 -0.2235 -0.0517  0.5900
   69MOL   C10534241   6.130   4.454   4.051  0.1131 -0.8356  1.3131
   69MOL   C10634242   6.050   4.533   3.956  0.2627 -0.3055  0.5661
   69MOL   C10734243   6.119   4.664   3.911  0.2367 -0.4486 -0.5388
   69MOL   C10834244   6.038   4.737   3.807 -0.3317 -0.1556  0.1570
   69MOL   C10934245   5.910   4.804   3.863 -0.0461  0.5413 -0.0184
   69MOL   C11034246   5.833   4.895   3.768  0.4766  0.1566 -0.1507
   69MOL   H11134247   6.150   4.578   4.422  2.2177 -0.3841  2.2681
   69MOL   H11234248   6.212   4.420   4.462  0.7075  1.4772  1.3162
   69MOL   H11334249   6.268   4.372   4.238  1.3837 -0.8387  0.1150
   69MOL   H11434250   6.059   4.383   4.095  0.6551 -4.4855 -3.2073
   69MOL   H11534251   6.219   4.409   4.008  1.3333  0.9987  1.8727
   69MOL   H11634252   5.957   4.553   4.010 -0.1252  1.2435 -0.6417
   69MOL   H11734253   6.019   4.473   3.871  3.2082 -0.1139 -0.6881
   69MOL   H11834254   6.137   4.734   3.993  0.0510  0.2334 -1.0783
   69MOL   H11934255   6.213   4.644   3.860 -0.3771 -2.4861 -0.8887
   69MOL   H12034256   6.096   4.822   3.772 -1.6044  1.2462  1.3772
   69MOL   H12134257   6.018   4.674   3.720 -2.0776  0.3951  0.1487
   69MOL   H12234258   5.837   4.731   3.899  0.3972 -0.0931 -0.3753
   69MOL   H12334259   5.928   4.865   3.951 -0.4669 -0.0137  0.4584
   69MOL   H12434260   5.887   4.987   3.746  0.0365  0.6494  0.7968
   69MOL   H12534261   5.806   4.855   3.671  0.4513 -2.8040  1.0457
   69MOL   H12634262   5.739   4.934   3.807  0.3510  1.0777 -1.3183
   69MOL   C12734263   6.383   4.539   4.278 -0.2321 -0.1080  0.0566
   69MOL   C12834264   6.474   4.554   4.158  0.8560 -0.3417  0.7531
   69MOL   O12934265   6.516   4.426   4.107 -0.3056  0.6906 -0.8510
   69MOL   C13034266   6.574   4.422   3.975  0.1380 -0.4566 -0.1599
   69MOL   C13134267   6.566   4.284   3.916  0.8246  0.3680 -0.1297
   69MOL   C13234268   6.598   4.291   3.765 -0.6318  0.2977  0.4531
   69MOL   C13334269   6.745   4.304   3.731 -0.3564 -0.0549 -0.1678
   69MOL   C13434270   6.774   4.308   3.573  0.2150  0.7248  0.1424
   69MOL   C13534271   6.824   4.170   3.530  0.5545  0.8859  0.4240
   69MOL   H13634272   6.360   4.628   4.337 -0.1405 -1.5325  2.3145
   69MOL   H13734273   6.444   4.482   4.348  1.9906  0.5752 -1.2774
   69MOL   H13834274   6.410   4.598   4.082 -0.2664 -1.2051  1.1950
   69MOL   H13934275   6.676   4.457   3.983  0.9509 -1.6192 -4.1098
   69MOL   H14034276   6.527   4.494   3.908  1.6908 -1.6265 -2.5788
   69MOL   H14134277   6.462   4.253   3.908  0.5816  0.6446  1.7323
   69MOL   H14234278   6.630   4.214   3.971  1.0280  1.9074  1.6480
   69MOL   H14334279   6.573   4.198   3.713 -0.3543 -0.0120  0.8659
   69MOL   H14434280   6.544   4.366   3.708  0.0749  0.0466 -0.5692
   69MOL   H14534281   6.766   4.392   3.792 -1.2430 -1.4114  2.1780
   69MOL   H14634282   6.809   4.231   3.780  1.7646  2.2109  0.5529
   69MOL   H14734283   6.680   4.325   3.521 -0.1173 -0.9699  0.1615
   69MOL   H14834284   6.851   4.383   3.558  0.9236  0.0541  0.3942
   69MOL   H14934285   6.916   4.147   3.584  2.1815 -1.0891 -3.0330
   69MOL   H15034286   6.752   4.092   3.556  0.1656  0.4225 -1.8675
   69MOL   H15134287   6.840   4.174   3.422  3.5240  0.9531  0.8050
   69MOL   C15234288   6.596   4.643   4.193 -0.2820  0.4919  0.3668
   69MOL   C15334289   6.622   4.756   4.092  0.4743 -0.5619 -0.7941
   69MOL   O15434290   6.535   4.860   4.121 -0.0093  0.4477 -0.3388
   69MOL   C15534291   6.439   4.886   4.016 -0.0835  0.5261  0.0753
   69MOL   C15634292   6.356   4.998   4.071  0.1062  1.1054  0.8803
   69MOL   C15734293   6.270   5.067   3.962  0.3828 -0.5646 -0.2214
   69MOL   C15834294   6.182   5.176   4.030  0.0179  0.5321 -0.1672
   69MOL   C15934295   6.062   5.225   3.946  0.2906  0.4136  0.2793
   69MOL   C16034296   5.973   5.326   4.023  0.1618 -0.3614 -0.4332
   69MOL   H16134297   6.587   4.685   4.293 -0.3019 -1.1020  1.0616
   69MOL   H16234298   6.687   4.583   4.187 -0.2082  0.6205  0.2027
   69MOL   H16334299   6.603   4.710   3.995  0.7398  1.6335 -1.9348
   69MOL   H16434300   6.374   4.802   3.990 -1.1541  1.0360  1.0917
   69MOL   H16534301   6.493   4.915   3.926 -0.2953 -0.6676 -0.4496
   69MOL   H16634302   6.408   5.081   4.120  0.5114  0.3543  1.7404
   69MOL   H16734303   6.292   4.952   4.147 -0.1377 -0.7881 -0.4340
   69MOL   H16834304   6.342   5.119   3.898  0.9797 -3.0656 -1.6473
   69MOL   H16934305   6.201   5.001   3.909  1.7231 -1.1652 -1.2725
   69MOL   H17034306   6.144   5.125   4.120 -0.9373  1.0346 -0.2795
   69MOL   H17134307   6.252   5.255   4.054  0.1209 -0.0952  1.7365
   69MOL   H17234308   6.101   5.273   3.856  1.0359 -0.0054  0.3754
   69MOL   H17334309   5.994   5.150   3.906 -0.0950 -0.0771  1.8377
   69MOL   H17434310   5.919   5.381   3.946  1.8696  0.5766 -0.9778
   69MOL   H17534311   5.894   5.281   4.083  0.5535 -0.5681 -0.0651
   69MOL   H17634312   6.044   5.389   4.075 -0.1479 -0.7043  0.4177
   69MOL   C17734313   6.765   4.817   4.097 -0.2754  0.5372  0.1650
   69MOL   C17834314   6.816   4.875   4.234 -0.4086 -0.3782  0.2407
   69MOL   O17934315   6.959   4.880   4.226  0.2674 -0.5090  0.0597
   69MOL   C18034316   7.023   4.766   4.290 -0.2830  0.2894  0.5411
   69MOL   C18134317   7.154   4.736   4.214  0.0839  0.1805 -0.6852
   69MOL   C18234318   7.145   4.672   4.080 -0.5436 -0.1324 -0.4346
   69MOL   C18334319   7.283   4.657   4.014 -1.0099  0.4574 -0.2453
   69MOL   C18434320   7.279   4.637   3.862  0.0190  0.0882  0.5034
   69MOL   C18534321   7.259   4.770   3.786  0.1713 -0.0219  0.5821
   69MOL   H18634322   6.833   4.740   4.059 -1.8485 -0.9982  0.3662
   69MOL   H18734323   6.762   4.894   4.021 -1.2334 -1.9067 -2.3805
   69MOL   H18834324   6.780   4.820   4.320  1.8573  0.8476  2.0476
   69MOL   H18934325   6.962   4.676   4.277 -0.0432  0.2170 -0.0984
   69MOL   H19034326   7.037   4.781   4.397  1.4336 -1.9083  0.6607
   69MOL   H19134327   7.220   4.677   4.277 -1.1067 -1.1585 -0.6629
   69MOL   H19234328   7.198   4.834   4.194 -1.5106  0.9738 -0.3935
   69MOL   H19334329   7.110   4.569   4.092  0.1027 -0.2944  0.0634
   69MOL   H19434330   7.073   4.738   4.033 -0.0451 -0.4733 -1.6989
   69MOL   H19534331   7.337   4.751   4.021  1.1157 -0.3264 -4.3319
   69MOL   H19634332   7.325   4.572   4.067 -1.0754  0.5912  0.0207
   69MOL   H19734333   7.367   4.584   3.825  1.1069  1.4998  1.0020
   69MOL   H19834334   7.204   4.566   3.828  0.6899 -1.4942  2.2143
   69MOL   H19934335   7.158   4.811   3.796  0.5810  2.1037 -3.1408
   69MOL   H20034336   7.320   4.853   3.822  1.1933 -1.3335  1.9240
   69MOL   H20134337   7.282   4.774   3.680  0.4648 -0.2188  0.6398
   69MOL   C20234338   6.774   5.024   4.254  0.4392  0.3995  0.1468
   69MOL   C20334339   6.844   5.097   4.377 -0.2448 -0.0101 -0.4483
   69MOL   O20434340   6.773   5.059   4.496  0.2433  0.3721 -0.5300
   69MOL   C20534341   6.832   4.965   4.586 -0.4321  0.4500 -0.4745
   69MOL   C20634342   6.737   4.905   4.683 -0.7360  0.3474  0.3152
   69MOL   C20734343   6.699   5.013   4.788 -0.1820  0.0667 -0.1628
   69MOL   C20834344   6.625   4.949   4.910  0.3137 -0.2320 -0.3717
   69MOL   C20934345   6.573   5.042   5.015  0.2057 -0.1801  0.3688
   69MOL   C21034346   6.463   4.977   5.090 -0.5415 -0.4370  0.6963
   69MOL   H21134347   6.819   5.071   4.166  0.9905  0.0510  0.2363
   69MOL   H21234348   6.667   5.045   4.252  0.2731 -0.2126  1.8687
   69MOL   H21334349   6.946   5.062   4.393 -0.1681  0.8155  0.9700
   69MOL   H21434350   6.913   5.014   4.640 -0.6013  1.8508 -1.4606
   69MOL   H21534351   6.880   4.887   4.529 -0.7951 -1.2734  1.5141
   69MOL   H21634352   6.790   4.827   4.738  0.4546  1.9884  1.5289
   69MOL   H21734353   6.651   4.858   4.635 -0.9756  2.7127 -1.6846
   69MOL   H21834354   6.795   5.050   4.824  0.2345 -0.4789 -0.7044
   69MOL   H21934355   6.648   5.092   4.733 -0.7916  0.2708  0.7000
   69MOL   H22034356   6.542   4.887   4.876  0.7738 -2.4606  2.3746
   69MOL   H22134357   6.689   4.869   4.948  0.1182  0.8037  2.2451
   69MOL   H22234358   6.652   5.080   5.080  0.1538  0.6876 -0.0645
   69MOL   H22334359   6.532   5.127   4.960  0.0967 -0.1389  0.5172
   69MOL   H22434360   6.496   4.887   5.142  0.9321  0.1705  0.8486
   69MOL   H22534361   6.423   5.049   5.161 -0.8992 -0.7232  0.7893
   69MOL   H22634362   6.386   4.940   5.022 -0.0525 -0.7096  0.2859
   69MOL   C22734363   6.837   5.248   4.376  0.7523 -0.4686  0.7075
   69MOL   C22834364   6.926   5.336   4.468  0.4371  0.3383 -0.0291
   69MOL   O22934365   7.055   5.315   4.415  0.2742 -0.1542 -0.2424
   69MOL   C23034366   7.150   5.264   4.510 -0.1899  0.1650  0.1439
   69MOL   C23134367   7.245   5.157   4.454 -0.3718 -0.5246 -0.5649
   69MOL   C23234368   7.318   5.213   4.327  0.0381 -0.0891  0.1519
   69MOL   C23334369   7.400   5.102   4.256 -0.3071 -0.3605  0.0781
   69MOL   C23434370   7.497   5.155   4.145 -0.2504 -0.0988 -0.2582
   69MOL   C23534371   7.580   5.034   4.097  0.2847 -0.4463  0.0697
   69MOL   H23634372   6.842   5.277   4.271  0.1556 -1.0735  0.5070
   69MOL   H23734373   6.732   5.264   4.401  1.1354  0.2383  1.9172
   69MOL   H23834374   6.921   5.295   4.569  1.6286  2.4956  0.9254
   69MOL   H23934375   7.098   5.210   4.589 -0.2830  1.4626  0.9713
   69MOL   H24034376   7.208   5.350   4.541  0.3565 -0.2749  0.3440
   69MOL   H24134377   7.195   5.067   4.419  2.8069 -2.1482 -1.0866
   69MOL   H24234378   7.322   5.118   4.521 -1.0932 -2.5922 -0.8995
   69MOL   H24334379   7.237   5.244   4.261 -0.1202 -1.6599 -0.4039
   69MOL   H24434380   7.374   5.300   4.359 -0.3286 -0.3620  1.5488
   69MOL   H24534381   7.462   5.050   4.329  1.5736 -1.9980 -2.6045
   69MOL   H24634382   7.330   5.028   4.217  1.2018 -1.3368 -0.8192
   69MOL   H24734383   7.436   5.196   4.065  1.5154  2.7120 -0.2127
   69MOL   H24834384   7.559   5.226   4.200 -1.9421 -0.2602  1.9523
   69MOL   H24934385   7.649   5.016   4.179 -0.7488 -0.9828  0.8320
   69MOL   H25034386   7.505   4.958   4.078  0.4826 -0.1788 -1.9002
   69MOL   H25134387   7.632   5.062   4.006  1.5593 -1.3931  0.4957
   69MOL   C25234388   6.897   5.488   4.475  0.5556  0.7267  0.2036
   69MOL   C25334389   6.775   5.515   4.559  0.1679 -0.4149  0.6731
   69MOL   O25434390   6.751   5.652   4.535 -0.4084 -0.4247 -0.2216
   69MOL   C25534391   6.623   5.683   4.473 -0.0660 -0.1270  0.2948
   69MOL   C25634392   6.590   5.829   4.495 -0.0056 -1.1667 -0.3291
   69MOL   C25734393   6.513   5.869   4.627  0.0142  0.1700  0.0860
   69MOL   C25834394   6.514   6.018   4.647 -0.2607 -0.0569  0.2165
   69MOL   C25934395   6.448   6.056   4.778 -0.6861 -0.0712  0.1015
   69MOL   C26034396   6.416   6.200   4.806 -0.1188 -0.1489  0.4049
   69MOL   H26134397   6.981   5.545   4.516  0.9731  0.9131 -0.9115
   69MOL   H26234398   6.879   5.529   4.376  0.2890 -0.2837 -0.1681
   69MOL   H26334399   6.690   5.461   4.517  1.5339 -2.2405  0.1592
   69MOL   H26434400   6.541   5.630   4.521 -0.0354 -0.2148  0.2490
   69MOL   H26534401   6.637   5.658   4.368 -2.0225 -3.3407  0.7411
   69MOL   H26634402   6.526   5.869   4.416 -1.2768 -1.6331  0.4667
   69MOL   H26734403   6.685   5.883   4.494  0.0722 -1.2589 -2.9557
   69MOL   H26834404   6.408   5.839   4.634  0.3617 -0.7301  1.5637
   69MOL   H26934405   6.551   5.820   4.716  1.4403 -2.0147 -1.6762
   69MOL   H27034406   6.617   6.051   4.641 -0.8212  1.3949 -2.1811
   69MOL   H27134407   6.469   6.069   4.562  2.0831  0.4731 -0.7411
   69MOL   H27234408   6.356   5.997   4.777 -0.8096  0.1298 -0.5221
   69MOL   H27334409   6.510   6.021   4.860 -0.4771  0.8296  0.3330
   69MOL   H27434410   6.357   6.249   4.728  0.6433 -2.0051 -1.3619
   69MOL   H27534411   6.367   6.228   4.899  1.1061  0.2984  0.9278
   69MOL   H27634412   6.504   6.264   4.791  0.0772 -0.3909  0.5222
   69MOL   C27734413   6.781   5.486   4.711 -0.9894  0.5201  0.4271
   69MOL   C27834414   6.645   5.478   4.785  0.1622  0.1961  0.3064
   69MOL   O27934415   6.582   5.363   4.737  0.1497  0.1183 -0.2624
   69MOL   C28034416   6.436   5.356   4.750 -0.7610 -0.0859 -0.5389
   69MOL   C28134417   6.397   5.238   4.670  0.5552  0.6010  0.4752
   69MOL   C28234418   6.421   5.261   4.518 -0.7633  0.1711  0.6156
   69MOL   C28334419   6.360   5.149   4.425 -0.0826  0.3445 -0.6180
   69MOL   C28434420   6.410   5.003   4.447 -0.2413  0.0636 -0.3050
   69MOL   C28534421   6.332   4.909   4.543 -0.0923 -0.6013  0.5827
   69MOL   H28634422   6.831   5.392   4.731 -0.3584 -0.0340 -3.3107
   69MOL   H28734423   6.849   5.562   4.748 -0.9521  0.5002  0.3987
   69MOL   H28834424   6.586   5.564   4.754  0.5162  0.9369  1.6600
   69MOL   H28934425   6.385   5.446   4.714 -1.2706  0.0100  0.4225
   69MOL   H29034426   6.421   5.338   4.856  3.3193 -1.0234 -0.0367
   69MOL   H29134427   6.296   5.200   4.682  0.8669 -0.1145  0.8903
   69MOL   H29234428   6.467   5.159   4.699  1.4853  1.1453 -0.2708
   69MOL   H29334429   6.396   5.362   4.485  1.6140  1.5523  2.8703
   69MOL   H29434430   6.529   5.265   4.504 -0.8828  0.9336 -0.0987
   69MOL   H29534431   6.252   5.139   4.431 -0.1246 -0.2043 -2.2242
   69MOL   H29634432   6.384   5.178   4.323  0.7132 -0.1158 -0.5616
   69MOL   H29734433   6.414   4.953   4.350 -2.6174 -0.6636 -0.0480
   69MOL   H29834434   6.515   5.002   4.476  0.0164  1.2832 -1.1472
   69MOL   H29934435   6.302   4.967   4.631 -0.2949 -1.0085  0.7884
   69MOL   H30034436   6.245   4.859   4.501 -0.3668  0.2951  0.0735
   69MOL   H30134437   6.388   4.821   4.575 -0.6903 -1.0912  0.2900
   69MOL   C30234438   6.640   5.488   4.939 -0.3092 -0.5682  0.1790
   69MOL   C30334439   6.744   5.583   5.008 -0.4045 -0.3681  0.3594
   69MOL   O30434440   6.715   5.567   5.149 -0.5228  0.5634 -0.6515
   69MOL   C30534441   6.792   5.463   5.210  0.4694  0.4310 -0.7534
   69MOL   C30634442   6.820   5.490   5.353 -0.3419 -0.5085 -0.3938
   69MOL   C30734443   6.903   5.371   5.425 -0.5015 -0.1793  0.2941
   69MOL   C30834444   6.963   5.396   5.564  0.2277  0.7008  0.2940
   69MOL   C30934445   6.857   5.422   5.666 -0.2503 -0.4490  0.2083
   69MOL   C31034446   6.919   5.452   5.805  0.3012  0.7614  0.2309
   69MOL   H31134447   6.541   5.517   4.973  0.7738  2.9384  0.5211
   69MOL   H31234448   6.650   5.387   4.978  0.2977 -0.4714  0.2817
   69MOL   H31334449   6.846   5.562   4.976 -0.4090  0.5238 -0.2617
   69MOL   H31434450   6.892   5.444   5.172  1.8121  0.1698  2.7131
   69MOL   H31534451   6.729   5.373   5.210 -0.0483  0.7292  2.2588
   69MOL   H31634452   6.727   5.523   5.400  0.2624 -1.9439  1.8725
   69MOL   H31734453   6.890   5.572   5.340 -2.0001  0.5423 -3.2546
   69MOL   H31834454   6.840   5.283   5.432 -0.9820  0.2497  1.4449
   69MOL   H31934455   6.982   5.342   5.356 -0.1598  1.1523  0.1006
   69MOL   H32034456   7.017   5.307   5.595 -0.6371 -0.0902 -0.4307
   69MOL   H32134457   7.034   5.479   5.559  2.6033 -1.3684 -1.4935
   69MOL   H32234458   6.783   5.499   5.646 -1.7606 -1.4063  1.9362
   69MOL   H32334459   6.795   5.332   5.670 -0.0410 -0.5620  0.9348
   69MOL   H32434460   7.004   5.386   5.824 -0.1189 -0.4611 -2.0422
   69MOL   H32534461   6.960   5.553   5.801  0.5012  0.6085 -2.3536
   69MOL   H32634462   6.842   5.449   5.883 -1.4517  0.3270 -1.4880
   69MOL   C32734463   6.715   5.732   4.983  0.2944  0.5714  0.4658
   69MOL   C32834464   6.809   5.821   5.049 -0.2982  0.1071  0.3296
   69MOL   O32934465   6.932   5.810   4.979 -0.4567 -0.4933 -0.4086
   69MOL   C33034466   7.050   5.790   5.062  1.1574  0.2098  0.1397
   69MOL   C33134467   7.183   5.776   4.985  0.4880  0.4067  0.6591
   69MOL   C33234468   7.176   5.664   4.882  0.2217 -0.0480  0.1415
   69MOL   C33334469   7.312   5.651   4.809 -0.6149 -0.1979  0.0097
   69MOL   C33434470   7.299   5.541   4.701  0.0455 -0.4662  0.3390
   69MOL   C33534471   7.423   5.539   4.612 -0.5812 -0.7075 -0.0346
   69MOL   H33634472   6.610   5.747   5.009 -0.2169 -0.2373 -1.0674
   69MOL   H33734473   6.713   5.759   4.877  0.6046 -0.4997  0.1823
   69MOL   H33834474   6.817   5.790   5.153 -0.2827  0.0804  0.3209
   69MOL   H33934475   7.039   5.704   5.128 -1.4881  2.1232  2.3301
   69MOL   H34034476   7.045   5.875   5.131 -0.4737  2.1602 -2.2702
   69MOL   H34134477   7.268   5.764   5.052  0.8739 -0.3615  0.0348
   69MOL   H34234478   7.201   5.873   4.937 -1.9440  1.2776  1.4004
   69MOL   H34334479   7.147   5.573   4.935 -1.0350  0.5310  0.4638
   69MOL   H34434480   7.098   5.682   4.808 -1.4538  0.4273  1.9814
   69MOL   H34534481   7.339   5.741   4.753 -1.5942  0.3704  0.4240
   69MOL   H34634482   7.389   5.630   4.884  0.0065  0.5415 -0.4169
   69MOL   H34734483   7.283   5.443   4.747 -1.0090 -0.2488  0.4474
   69MOL   H34834484   7.219   5.557   4.628 -0.9737 -0.8270  1.3651
   69MOL   H34934485   7.424   5.452   4.547 -0.5060  1.3056 -2.8545
   69MOL   H35034486   7.435   5.626   4.547 -1.9437 -0.1999  0.3756
   69MOL   H35134487   7.514   5.535   4.671  0.9911  0.0281 -2.3143
   69MOL   C35234488   6.756   5.965   5.048  0.2237  0.1382 -0.0775
   69MOL   C35334489   6.644   5.989   5.146 -0.4961 -0.1121 -0.0529
   69MOL   O35434490   6.523   5.941   5.099  0.5976  0.1207 -0.1871
   69MOL   C35534491   6.461   5.857   5.195 -0.2124 -0.0499  0.4879
   69MOL   C35634492   6.338   5.800   5.129  0.0439  0.0788 -0.3367
   69MOL   C35734493   6.273   5.687   5.212  0.9255 -0.6888 -0.0935
   69MOL   C35834494   6.333   5.555   5.170  0.0559  0.4109  0.0772
   69MOL   C35934495   6.307   5.446   5.260 -0.2337 -0.4506  0.0172
   69MOL   C36034496   6.405   5.327   5.233  0.4782 -0.7230  0.1240
   69MOL   H36134497   6.834   6.037   5.076  0.0362 -0.0754  1.0030
   69MOL   H36234498   6.723   5.987   4.946 -0.7062 -0.9109  0.0037
   69MOL   H36334499   6.673   5.949   5.244 -3.0231  0.3823  0.9427
   69MOL   H36434500   6.424   5.900   5.288 -1.2748  0.5960 -0.2222
   69MOL   H36534501   6.522   5.774   5.231 -1.3903  0.2398  3.2559
   69MOL   H36634502   6.331   5.803   5.020 -4.8516  1.2852 -0.0662
   69MOL   H36734503   6.264   5.878   5.114  0.0045  0.1128  0.0228
   69MOL   H36834504   6.298   5.706   5.316  0.5998 -0.1472 -0.1107
   69MOL   H36934505   6.164   5.688   5.204  0.6944 -0.4372  2.5904
   69MOL   H37034506   6.288   5.532   5.073  1.8889 -0.8744 -0.4865
   69MOL   H37134507   6.440   5.559   5.151  0.1874 -0.1789  0.6869
   69MOL   H37234508   6.318   5.482   5.362 -2.5632  0.9432 -0.1766
   69MOL   H37334509   6.206   5.406   5.246 -0.4171  0.2398 -0.6845
   69MOL   H37434510   6.419   5.288   5.132 -0.3014 -0.7404  0.0218
   69MOL   H37534511   6.503   5.356   5.270  0.6176 -0.7630 -0.2144
   69MOL   H37634512   6.373   5.236   5.286  1.2755 -1.4709 -0.6683
   69MOL   C37734513   6.616   6.143   5.149  0.4076 -0.8006  0.1775
   69MOL   C37834514   6.719   6.246   5.220  0.8114 -0.3669  0.8142
   69MOL   O37934515   6.711   6.224   5.358 -0.5126  0.1807 -0.3471
   69MOL   C38034516   6.837   6.247   5.433 -0.5088 -0.6035 -0.6515
   69MOL   C38134517   6.823   6.189   5.581  0.2981  0.2492 -0.0493
   69MOL   C38234518   6.729   6.065   5.592  0.1157  0.3206 -0.1854
   69MOL   C38334519   6.783   5.930   5.531 -0.1605  0.9691  0.1457
   69MOL   C38434520   6.686   5.804   5.522  0.0941  0.4179  0.4893
   69MOL   C38534521   6.646   5.756   5.663  0.1815 -0.6071  0.3673
   69MOL   H38634522   6.590   6.169   5.046  2.3078  3.8342  0.7359
   69MOL   H38734523   6.528   6.164   5.211  0.6414  0.5385  0.0796
   69MOL   H38834524   6.818   6.218   5.185 -0.0770 -1.0301 -1.2573
   69MOL   H38934525   6.867   6.352   5.440 -1.2195 -0.5208  1.3298
   69MOL   H39034526   6.915   6.199   5.375 -0.9519 -0.6088 -1.2500
   69MOL   H39134527   6.770   6.267   5.636 -2.2815  0.0382 -2.1682
   69MOL   H39234528   6.917   6.172   5.633 -0.6746 -1.0201  1.3337
   69MOL   H39334529   6.709   6.048   5.697 -0.9016 -0.2179 -0.4556
   69MOL   H39434530   6.632   6.094   5.551  0.2418  3.0285  1.3190
   69MOL   H39534531   6.814   5.946   5.427  0.3100 -0.6821  0.0232
   69MOL   H39634532   6.880   5.907   5.576  0.2442  0.7386 -0.8127
   69MOL   H39734533   6.595   5.819   5.464 -0.1236 -1.4199  0.3555
   69MOL   H39834534   6.747   5.730   5.470  2.1572  0.4820  2.7297
   69MOL   H39934535   6.592   5.661   5.662 -0.9637  0.0187  1.4668
   69MOL   H40034536   6.730   5.742   5.731  1.0777 -0.6862 -0.7393
   69MOL   H40134537   6.573   5.824   5.707  0.3293 -1.2762  1.6763
   69MOL   C40234538   6.683   6.394   5.185 -0.0606  0.0794 -0.0263
   69MOL   C40334539   6.713   6.434   5.042 -0.1244 -1.2014  0.1909
   69MOL   O40434540   6.853   6.420   5.026 -0.4639  0.1347  0.1645
   69MOL   C40534541   6.882   6.391   4.892  0.0141  0.1628  0.7959
   69MOL   C40634542   6.886   6.241   4.857  0.5014 -0.0047  0.6890
   69MOL   C40734543   6.951   6.222   4.724  0.0409  0.2176  0.6961
   69MOL   C40834544   6.931   6.087   4.656 -0.5688 -0.2376  0.1275
   69MOL   C40934545   7.048   6.072   4.553  0.8519  0.1237 -0.1328
   69MOL   C41034546   7.059   5.930   4.499  0.2160  0.6016  0.8901
   69MOL   H41134547   6.746   6.462   5.242  0.2027  0.0519 -0.2851
   69MOL   H41234548   6.580   6.414   5.213 -0.0542 -0.5541  0.4627
   69MOL   H41334549   6.660   6.368   4.973  1.6634 -2.4815  0.0105
   69MOL   H41434550   6.983   6.432   4.889  1.9208 -4.3285 -0.7422
   69MOL   H41534551   6.829   6.449   4.816  0.9787  1.5865  1.1834
   69MOL   H41634552   6.785   6.202   4.853  0.8128 -0.6607 -1.2605
   69MOL   H41734553   6.937   6.187   4.937  0.6917  0.1182  0.6512
   69MOL   H41834554   6.912   6.297   4.655 -1.3560 -0.4695  0.7398
   69MOL   H41934555   7.058   6.244   4.726 -0.3011  2.2273 -1.2955
   69MOL   H42034556   6.921   6.003   4.724 -2.0252 -0.0865  0.1122
   69MOL   H42134557   6.837   6.082   4.601  1.0895 -2.1963 -2.6948
   69MOL   H42234558   7.035   6.147   4.475 -0.7450  0.7814  0.7386
   69MOL   H42334559   7.143   6.087   4.603  1.1138 -0.7798 -0.3396
   69MOL   H42434560   7.143   5.927   4.430 -0.5536  1.3859 -0.1029
   69MOL   H42534561   7.080   5.859   4.578  1.2116  0.1059  0.1913
   69MOL   H42634562   6.962   5.906   4.456 -0.0507  1.6790  0.8762
   69MOL   C42734563   6.683   6.587   5.012  0.1816  0.8505 -0.6498
   69MOL   C42834564   6.536   6.634   5.032  0.0742  0.1600 -0.3380
   69MOL   O42934565   6.540   6.772   5.023  0.5874  0.1058 -0.4372
   69MOL   C43034566   6.558   6.838   5.151  0.2526  0.2440 -0.0231
   69MOL   C43134567   6.585   6.982   5.118 -0.0495 -0.6288 -0.3838
   69MOL   C43234568   6.680   6.993   4.995  0.0294  0.2254  0.2570
   69MOL   C43334569   6.717   7.147   4.979 -0.0914  0.4089  0.5445
   69MOL   C43434570   6.602   7.245   4.957  0.3074 -0.2736 -0.9051
   69MOL   C43534571   6.644   7.390   4.929 -0.1690 -0.3511  0.3698
   69MOL   H43634572   6.759   6.641   5.070  0.9094 -0.7187 -0.1304
   69MOL   H43734573   6.703   6.596   4.905  0.3897 -1.2167 -0.8006
   69MOL   H43834574   6.492   6.605   5.128  2.7103 -3.0000 -0.0099
   69MOL   H43934575   6.654   6.804   5.191 -0.4365 -2.0927 -0.2888
   69MOL   H44034576   6.474   6.824   5.219 -1.1388  2.0308 -1.3041
   69MOL   H44134577   6.632   7.028   5.205 -0.6056  1.2852 -1.0704
   69MOL   H44234578   6.494   7.037   5.094  0.1668 -0.8699 -1.8118
   69MOL   H44334579   6.771   6.935   5.012 -0.2935 -0.9175 -1.7988
   69MOL   H44434580   6.631   6.949   4.908  1.2502 -1.5549  0.4497
   69MOL   H44534581   6.782   7.170   5.063  1.1869 -0.9359 -0.0560
   69MOL   H44634582   6.774   7.160   4.887  1.9662  0.9716  1.8739
   69MOL   H44734583   6.544   7.215   4.870  2.8282  1.8008 -3.4246
   69MOL   H44834584   6.541   7.235   5.046  0.4185 -0.6436 -0.8702
   69MOL   H44934585   6.718   7.416   5.005 -0.4781 -2.5117  1.4544
   69MOL   H45034586   6.690   7.405   4.831  1.1018 -1.7610  0.7294
   69MOL   H45134587   6.562   7.460   4.945 -0.9190 -0.4641 -2.6780
   69MOL   C45234588   6.444   6.570   4.933  0.2320  0.1186 -1.0167
   69MOL   C45334589   6.294   6.604   4.940  0.2044 -0.4445 -0.0282
   69MOL   O45434590   6.233   6.476   4.940  0.6581 -0.1731 -0.4338
   69MOL   C45534591   6.101   6.472   4.988  0.9023 -1.0420 -0.3095
   69MOL   C45634592   6.039   6.333   4.963  0.6258  0.0472  0.5506
   69MOL   C45734593   6.090   6.216   5.048  0.3255 -0.3576  0.3126
   69MOL   C45834594   6.063   6.230   5.200  0.3585  0.2081  0.3089
   69MOL   C45934595   6.131   6.117   5.277 -0.1955 -0.4669 -0.1830
   69MOL   C46034596   6.035   5.997   5.278  0.0601  0.1507  0.7920
   69MOL   H46134597   6.482   6.586   4.831 -2.5197 -0.7004 -2.2122
   69MOL   H46234598   6.460   6.463   4.946  0.6619 -0.1429 -3.4149
   69MOL   H46334599   6.274   6.656   5.034  1.5375 -0.8914  0.5189
   69MOL   H46434600   6.039   6.544   4.935  1.4415 -1.6113 -1.7378
   69MOL   H46534601   6.100   6.501   5.093  1.0763 -1.9650 -0.0394
   69MOL   H46634602   6.045   6.305   4.858 -1.1039 -1.2216  0.7759
   69MOL   H46734603   5.934   6.337   4.991  0.0807  0.6304 -1.4961
   69MOL   H46834604   6.042   6.121   5.022 -0.6816  0.4804 -0.9386
   69MOL   H46934605   6.196   6.206   5.025 -0.0488  0.3182 -1.8144
   69MOL   H47034606   6.110   6.324   5.228  1.1943  0.0789 -0.6432
   69MOL   H47134607   5.955   6.234   5.215 -0.3521 -2.5179 -3.4307
   69MOL   H47234608   6.223   6.096   5.223 -0.5936 -2.4851 -0.1325
   69MOL   H47334609   6.147   6.140   5.383  0.3749 -0.4898 -0.2623
   69MOL   H47434610   5.943   6.024   5.329 -0.4535 -1.0428  0.5110
   69MOL   H47534611   6.001   5.974   5.177 -2.6129 -0.1261  1.7329
   69MOL   H47634612   6.064   5.921   5.351 -1.9848 -0.2296  1.2227
   69MOL   C47734613   6.248   6.700   4.814 -0.0777  0.2818  0.1280
   69MOL   C47834614   6.307   6.837   4.824  0.0067 -0.3380 -0.4796
   69MOL   O47934615   6.252   6.923   4.726 -0.2687  0.7094  0.6240
   69MOL   C48034616   6.313   7.045   4.716  0.5673  0.1191 -0.4593
   69MOL   C48134617   6.258   7.137   4.606 -0.2724 -0.4144  0.5693
   69MOL   C48234618   6.284   7.077   4.463  0.0606  0.6206  0.3359
   69MOL   C48334619   6.288   7.168   4.337  0.1765 -0.3833 -0.4888
   69MOL   C48434620   6.348   7.101   4.212  0.1642 -0.1933  0.1760
   69MOL   C48534621   6.269   6.986   4.150  0.2394 -0.2779  0.2850
   69MOL   H48634622   6.287   6.657   4.723 -0.8582  0.9176 -0.5200
   69MOL   H48734623   6.139   6.702   4.814 -0.0894 -0.4336  0.1817
   69MOL   H48834624   6.294   6.882   4.922  0.6208  0.5335 -0.7906
   69MOL   H48934625   6.422   7.037   4.705  0.4699  0.0820 -1.4419
   69MOL   H49034626   6.299   7.111   4.802 -1.4455  0.9925 -1.4344
   69MOL   H49134627   6.310   7.229   4.631 -0.5368 -0.4908  1.4089
   69MOL   H49234628   6.151   7.151   4.623 -0.2825  1.6411 -0.9912
   69MOL   H49334629   6.379   7.024   4.467 -0.0186  0.3607 -1.0088
   69MOL   H49434630   6.207   7.000   4.457  0.4759  0.0791  1.7102
   69MOL   H49534631   6.192   7.213   4.313  0.2779  0.3974  0.5289
   69MOL   H49634632   6.340   7.258   4.370 -2.5145  0.5035  1.4863
   69MOL   H49734633   6.355   7.171   4.129 -2.8157 -2.0344 -1.6914
   69MOL   H49834634   6.449   7.070   4.237  1.2865  3.0094 -0.1237
   69MOL   H49934635   6.343   6.928   4.095  0.3078  0.7696 -0.7303
   69MOL   H50034636   6.208   6.921   4.213  0.4319 -0.2577  0.4955
   69MOL   H50134637   6.207   7.032   4.073  0.7444  0.2195  0.1768
   69MOL   H50234638   6.415   6.829   4.806 -0.0349 -0.5062 -0.6562
   70MOL     C134639   4.072   4.274   7.718  0.3817 -0.2499 -0.1130
   70MOL     C234640   3.958   4.323   0.027 -0.2510  0.0406 -0.1198
   70MOL     O334641   3.837   4.327   7.722  0.3145 -0.0238 -0.0979
   70MOL     C434642   3.778   4.203   7.698  0.5871 -0.0292  0.8926
   70MOL     C534643   3.635   4.244   7.650  0.3467 -0.4911  0.3237
   70MOL     C634644   3.559   4.310   7.766 -0.3143 -0.4740 -0.1959
   70MOL     C734645   3.402   4.317   7.735  0.0556 -0.0374  0.0434
   70MOL     C834646   3.309   4.272   0.073 -0.3528 -0.5216 -0.0171
   70MOL     C934647   3.305   4.126   0.101 -0.2048  0.1695  0.3641
   70MOL    H1034648   4.171   4.297   7.757 -0.9340  2.8985  1.6503
   70MOL    H1134649   4.077   4.169   7.692  0.9225  0.0673 -1.3485
   70MOL    H1234650   3.961   4.245   0.104 -0.6649  0.4670  0.3340
   70MOL    H1334651   3.775   4.150   0.015 -1.9401 -0.3646  0.6638
   70MOL    H1434652   3.839   4.161   7.618  2.2147 -0.3881  2.2696
   70MOL    H1534653   3.572   4.157   7.630 -0.8522  0.0390  1.7001
   70MOL    H1634654   3.644   4.309   7.563  0.0091 -0.6879  0.1409
   70MOL    H1734655   3.568   4.250   0.079  0.4499  0.9265  0.6587
   70MOL    H1834656   3.597   4.408   0.014  1.4094 -1.2306  0.2271
   70MOL    H1934657   3.390   4.420   7.701  0.1151 -0.0693 -0.0725
   70MOL    H2034658   3.375   4.250   7.654  0.9967 -0.5929  0.1832
   70MOL    H2134659   3.209   4.309   0.050 -0.5091 -0.7030  0.3806
   70MOL    H2234660   3.335   4.332   0.160 -0.6851 -0.6013  0.1355
   70MOL    H2334661   3.240   4.080   0.026  1.4630  0.1860 -1.1206
   70MOL    H2434662   3.398   4.070   0.098 -0.4197 -0.1253 -0.9939
   70MOL    H2534663   3.266   4.105   0.201  0.8253 -0.4415  0.6393
   70MOL    H2634664   4.069   4.324   7.621  2.5583 -0.5547 -0.3630
   70MOL    C2734665   3.986   4.467   0.091 -0.7568 -1.0828 -0.1252
   70MOL    C2834666   3.881   4.542   0.171 -0.9731  0.1705  0.3830
   70MOL    O2934667   3.896   4.481   0.297 -0.3555 -0.3688 -0.0870
   70MOL    C3034668   3.799   4.377   0.324 -0.4079 -0.7246 -0.3070
   70MOL    C3134669   3.685   4.439   0.401 -0.1515  0.1140 -0.0557
   70MOL    C3234670   3.578   4.336   0.433 -0.3463 -0.3436 -0.3143
   70MOL    C3334671   3.451   4.382   0.497 -0.8343 -0.3859 -0.1201
   70MOL    C3434672   3.357   4.261   0.552  0.4995 -0.0042  0.2443
   70MOL    C3534673   3.428   4.180   0.665 -0.3134  0.0922 -0.9143
   70MOL    H3634674   4.086   4.473   0.132 -1.6322  0.4344  1.8664
   70MOL    H3734675   3.994   4.514   7.771 -1.5194  0.5934  0.5920
   70MOL    H3834676   3.778   4.532   0.135 -1.2978  3.0241  0.3937
   70MOL    H3934677   3.860   4.320   0.394 -1.6714  1.1102  2.3799
   70MOL    H4034678   3.775   4.313   0.239  2.5654 -1.0102 -1.0116
   70MOL    H4134679   3.660   4.527   0.342  0.0747  0.2699  0.0792
   70MOL    H4234680   3.715   4.469   0.502  0.7582 -2.6708  0.5625
   70MOL    H4334681   3.546   4.285   0.342  0.7297 -1.7572  0.0862
   70MOL    H4434682   3.621   4.252   0.488  1.0408 -0.6896 -1.9124
   70MOL    H4534683   3.480   4.451   0.576 -0.6028 -1.1073  0.4273
   70MOL    H4634684   3.396   4.445   0.427  2.1109  2.4444  0.0084
   70MOL    H4734685   3.264   4.300   0.593  0.1733 -1.0930  0.5557
   70MOL    H4834686   3.336   4.184   0.477  2.2992 -1.1753  0.9037
   70MOL    H4934687   3.441   4.246   0.752  0.3278 -1.1736 -0.0365
   70MOL    H5034688   3.365   4.095   0.689  1.0304 -0.8793 -0.7674
   70MOL    H5134689   3.527   4.144   0.638 -0.7276 -0.9398 -1.0664
   70MOL    C5234690   3.920   4.689   0.198  0.1143 -0.9056  0.1687
   70MOL    C5334691   3.830   4.764   0.296  0.1975 -0.4507  0.0860
   70MOL    O5434692   3.879   4.894   0.337  0.0592 -0.1859 -0.5902
   70MOL    C5534693   3.964   4.891   0.451 -0.2971  0.8258 -0.1249
   70MOL    C5634694   4.035   5.028   0.477  0.3038 -0.2463 -0.4482
   70MOL    C5734695   4.172   5.001   0.539  0.0057  0.0243  0.1705
   70MOL    C5834696   4.237   5.138   0.564 -0.9293  0.1852  0.1027
   70MOL    C5934697   4.182   5.207   0.687 -0.4326  0.7880 -1.2568
   70MOL    C6034698   4.251   5.339   0.714  0.4806 -0.0763  0.2203
   70MOL    H6134699   3.915   4.740   0.101  1.1412 -2.4404 -0.7140
   70MOL    H6234700   4.016   4.703   0.247 -0.4125  0.5153  0.8151
   70MOL    H6334701   3.813   4.702   0.384  0.2826  0.9882  1.1262
   70MOL    H6434702   4.038   4.816   0.424 -1.7459  0.0058 -1.8969
   70MOL    H6534703   3.906   4.856   0.536 -0.1394  2.1705  0.5475
   70MOL    H6634704   3.964   5.091   0.529 -0.8562 -1.7020 -0.2267
   70MOL    H6734705   4.058   5.081   0.385 -0.1209  3.0152  1.2699
   70MOL    H6834706   4.151   4.950   0.633 -2.0047  2.5980  1.1747
   70MOL    H6934707   4.225   4.932   0.474  0.7720 -0.6680  1.5070
   70MOL    H7034708   4.344   5.124   0.581 -1.2128 -0.1590  1.7208
   70MOL    H7134709   4.231   5.201   0.475  0.0751  0.5184  0.2588
   70MOL    H7234710   4.076   5.227   0.672 -0.6344 -0.2203 -1.1912
   70MOL    H7334711   4.194   5.140   0.772 -0.6093  1.4883 -0.6792
   70MOL    H7434712   4.349   5.316   0.755  0.6249  3.2696  1.9329
   70MOL    H7534713   4.279   5.400   0.628 -1.0608 -0.8752 -0.8638
   70MOL    H7634714   4.197   5.398   0.788  0.9340 -0.5399  0.9229
   70MOL    C7734715   3.686   4.790   0.231  0.6303 -0.2647 -0.2758
   70MOL    C7834716   3.572   4.839   0.325  0.4980  0.1622  0.5109
   70MOL    O7934717   3.449   4.815   0.263 -0.6136 -0.8972  0.0165
   70MOL    C8034718   3.395   4.688   0.272 -0.7751 -0.1527 -0.2372
   70MOL    C8134719   3.244   4.688   0.245  0.0241 -1.2181 -0.9692
   70MOL    C8234720   3.152   4.716   0.365  0.3197  0.2163  0.4337
   70MOL    C8334721   3.160   4.607   0.480 -0.4843 -0.5583 -0.2208
   70MOL    C8434722   3.066   4.629   0.600 -0.8059  0.1360 -0.1325
   70MOL    C8534723   3.095   4.538   0.719 -0.0022  0.1844  0.1170
   70MOL    H8634724   3.654   4.693   0.193  0.2509 -0.3167  0.1776
   70MOL    H8734725   3.697   4.844   0.137 -1.5206 -1.1850 -1.0776
   70MOL    H8834726   3.571   4.784   0.419  1.2799  1.2260  1.1507
   70MOL    H8934727   3.415   4.641   0.368 -2.0072 -1.7109 -0.7144
   70MOL    H9034728   3.455   4.627   0.205 -0.9813  2.0050 -2.4679
   70MOL    H9134729   3.230   4.587   0.206 -0.6904 -1.6398  0.3691
   70MOL    H9234730   3.220   4.755   0.163 -0.0961 -0.3812 -0.2560
   70MOL    H9334731   3.179   4.817   0.398  0.8439 -0.0848  0.9338
   70MOL    H9434732   3.047   4.732   0.341  0.0951 -0.2976  1.0693
   70MOL    H9534733   3.142   4.518   0.419 -0.1816 -0.8398  0.1005
   70MOL    H9634734   3.263   4.595   0.515 -1.1668 -1.1165  1.6815
   70MOL    H9734735   3.076   4.726   0.649 -2.3776  0.9933 -1.4529
   70MOL    H9834736   2.963   4.617   0.568 -0.1976 -3.2911 -1.0552
   70MOL    H9934737   3.027   4.548   0.803 -2.2169 -1.0233 -1.4805
   70MOL   H10034738   3.084   4.435   0.683 -0.5376  0.7439 -1.3394
   70MOL   H10134739   3.198   4.548   0.755 -0.0240 -2.1060  0.9469
   70MOL   C10234740   3.574   4.989   0.355 -0.2479 -0.9725 -0.5118
   70MOL   C10334741   3.475   5.034   0.464  0.1237 -0.6134  0.3931
   70MOL   O10434742   3.497   4.971   0.591 -0.2463  0.1857 -0.2328
   70MOL   C10534743   3.397   4.880   0.633  0.2657 -0.3546  0.3295
   70MOL   C10634744   3.451   4.827   0.767 -0.4253  0.2018 -0.6192
   70MOL   C10734745   3.573   4.727   0.755 -1.0023  0.0211 -0.2202
   70MOL   C10834746   3.641   4.664   0.880 -0.3990 -0.6876  0.0307
   70MOL   C10934747   3.751   4.553   0.860  1.1493  0.0157  0.6965
   70MOL   C11034748   3.683   4.426   0.813 -0.3372  0.0282 -0.2541
   70MOL   H11134749   3.672   5.003   0.402 -0.9566 -0.7238  0.9091
   70MOL   H11234750   3.566   5.051   0.266 -2.3700 -1.4153 -0.6532
   70MOL   H11334751   3.375   5.017   0.425 -1.3067  2.3563  2.5748
   70MOL   H11434752   3.382   4.791   0.571 -1.9907  1.1328 -1.3397
   70MOL   H11534753   3.298   4.922   0.652  0.8384  1.6817 -1.0435
   70MOL   H11634754   3.367   4.778   0.817 -1.6872  3.0527  0.1674
   70MOL   H11734755   3.488   4.900   0.839 -1.2144 -1.8889  1.9844
   70MOL   H11834756   3.536   4.647   0.690 -0.0051  0.3527 -1.2182
   70MOL   H11934757   3.654   4.777   0.701 -1.3741  1.2072  0.3187
   70MOL   H12034758   3.689   4.745   0.934 -1.8130  0.1097  0.1132
   70MOL   H12134759   3.564   4.617   0.941  0.3293 -2.7888 -0.6124
   70MOL   H12234760   3.817   4.585   0.780  0.3414  0.4077  0.1777
   70MOL   H12334761   3.817   4.530   0.944  1.1281 -1.4827  0.3176
   70MOL   H12434762   3.756   4.350   0.784 -3.6917 -3.4838  0.1748
   70MOL   H12534763   3.626   4.372   0.888  2.6508 -1.7715  0.8118
   70MOL   H12634764   3.621   4.430   0.723 -0.6489  0.9978  0.0025
   70MOL   C12734765   3.476   5.192   0.480 -0.7216  0.4713 -0.6845
   70MOL   C12834766   3.377   5.251   0.584 -0.4441 -0.0079  0.7574
   70MOL   O12934767   3.249   5.253   0.521  0.7917 -0.5059  0.5726
   70MOL   C13034768   3.136   5.204   0.590  0.6730  0.3029 -0.1068
   70MOL   C13134769   3.032   5.160   0.494  0.4007 -0.2777  0.1871
   70MOL   C13234770   2.924   5.065   0.563 -0.0982 -0.0288  0.2608
   70MOL   C13334771   2.792   5.092   0.503  0.7319 -0.6730 -0.3064
   70MOL   C13434772   2.675   5.013   0.570  0.1092  0.2143  0.6583
   70MOL   C13534773   2.681   4.859   0.533  0.0108 -0.1678  0.0012
   70MOL   H13634774   3.574   5.226   0.512 -0.6618 -2.5614  2.6590
   70MOL   H13734775   3.450   5.242   0.386 -0.7496  2.4971  0.3747
   70MOL   H13834776   3.382   5.189   0.673  0.6160 -1.2698 -0.1577
   70MOL   H13934777   3.096   5.281   0.657  3.6830  1.7475  0.1334
   70MOL   H14034778   3.165   5.125   0.659  0.5558  0.9075  0.6430
   70MOL   H14134779   3.076   5.104   0.412  0.0181 -0.2437 -0.0449
   70MOL   H14234780   2.990   5.248   0.446  0.3801  0.0055  0.7247
   70MOL   H14334781   2.954   4.962   0.543 -2.9850 -0.7841 -0.4208
   70MOL   H14434782   2.923   5.079   0.671 -0.9525  0.2317  0.2206
   70MOL   H14534783   2.761   5.196   0.493  0.7653 -0.6629 -0.3083
   70MOL   H14634784   2.803   5.069   0.396  0.0473  2.2923 -1.0620
   70MOL   H14734785   2.665   5.041   0.674 -0.6788  1.0527  0.3608
   70MOL   H14834786   2.584   5.047   0.520 -0.7252 -0.9894  1.3296
   70MOL   H14934787   2.588   4.804   0.549 -1.2914  1.4380 -1.8761
   70MOL   H15034788   2.707   4.860   0.427  0.4963 -2.7746  0.0600
   70MOL   H15134789   2.759   4.804   0.587  0.2571 -1.1208 -1.2867
   70MOL   C15234790   3.411   5.393   0.618  0.6166  0.3872 -0.0518
   70MOL   C15334791   3.356   5.444   0.750 -0.4720  0.2923  0.3592
   70MOL   O15434792   3.435   5.400   0.862 -0.5212 -0.5767  0.0329
   70MOL   C15534793   3.384   5.290   0.940 -0.0239 -0.8417  0.0842
   70MOL   C15634794   3.499   5.220   1.002 -0.0337  0.9932  0.5228
   70MOL   C15734795   3.624   5.194   0.910 -0.0006  0.6403 -0.2012
   70MOL   C15834796   3.735   5.106   0.968 -0.1862 -0.2307 -0.3830
   70MOL   C15934797   3.865   5.123   0.888 -0.6312  0.4987 -0.5275
   70MOL   C16034798   3.977   5.047   0.961 -0.5478  0.5620 -0.2303
   70MOL   H16134799   3.519   5.407   0.613  0.7043  0.4073  1.4736
   70MOL   H16234800   3.376   5.460   0.540  2.4896  2.4975  0.8601
   70MOL   H16334801   3.253   5.411   0.765 -0.8279  0.5796 -1.3932
   70MOL   H16434802   3.321   5.233   0.872 -0.1846  0.1450 -0.6190
   70MOL   H16534803   3.306   5.332   1.004  0.5161  0.8335 -0.3122
   70MOL   H16634804   3.465   5.127   1.047 -0.0570 -0.5935 -2.6522
   70MOL   H16734805   3.536   5.285   1.082  1.0859 -0.6792  1.3973
   70MOL   H16834806   3.590   5.153   0.815  2.3339 -0.9998 -0.3539
   70MOL   H16934807   3.663   5.293   0.885 -1.0645  1.1076 -0.0724
   70MOL   H17034808   3.748   5.143   1.069 -1.4785  0.0613 -0.3142
   70MOL   H17134809   3.707   5.003   0.989  0.8774 -0.7276 -1.3500
   70MOL   H17234810   3.845   5.088   0.787 -1.9049  2.3661 -0.9479
   70MOL   H17334811   3.898   5.226   0.898  1.2718 -0.0111 -1.3089
   70MOL   H17434812   3.999   5.084   1.061 -2.1164  1.8564 -0.3515
   70MOL   H17534813   3.936   4.947   0.979 -4.0690  1.9178 -0.1962
   70MOL   H17634814   4.069   5.049   0.903 -0.8221  1.0404 -0.6494
   70MOL   C17734815   3.365   5.590   0.752 -0.2513 -0.3957 -0.6423
   70MOL   C17834816   3.278   5.659   0.870 -0.0869 -0.4694  0.7233
   70MOL   O17934817   3.321   5.789   0.911  0.2672 -0.1062 -0.2112
   70MOL   C18034818   3.446   5.791   0.979  0.3288 -0.6072  0.3355
   70MOL   C18134819   3.500   5.928   0.981 -0.8501 -0.6273  0.0829
   70MOL   C18234820   3.587   5.955   1.105  0.4607 -0.0165  0.3275
   70MOL   C18334821   3.645   6.099   1.111  0.0168 -0.5213  0.1224
   70MOL   C18434822   3.748   6.127   1.004 -0.0237  0.0587  0.0740
   70MOL   C18534823   3.808   6.268   1.013 -0.1398  0.3490 -0.2101
   70MOL   H18634824   3.472   5.613   0.760 -0.2857 -0.4497  0.0723
   70MOL   H18734825   3.342   5.636   0.656  2.5034 -0.8577 -1.5908
   70MOL   H18834826   3.300   5.594   0.955 -1.3385 -0.0302  1.3928
   70MOL   H18934827   3.513   5.717   0.935  0.7104 -1.5182  2.4211
   70MOL   H19034828   3.421   5.758   1.080 -1.2058 -0.4551  0.0245
   70MOL   H19134829   3.414   5.994   0.981  0.4326  1.0882 -0.3730
   70MOL   H19234830   3.545   5.966   0.889 -1.8694 -0.5086 -0.3724
   70MOL   H19334831   3.544   5.937   1.204 -0.9486 -1.9660 -0.6060
   70MOL   H19434832   3.674   5.890   1.109  1.4210  1.1681 -0.9562
   70MOL   H19534833   3.576   6.181   1.092 -1.4586 -1.9211 -0.6632
   70MOL   H19634834   3.704   6.111   1.201  0.2735 -0.7079 -0.0208
   70MOL   H19734835   3.826   6.051   1.004 -0.6467 -0.5933 -1.1022
   70MOL   H19834836   3.705   6.127   0.904  1.3011  1.2352 -0.5151
   70MOL   H19934837   3.878   6.262   0.930  0.5829  0.8885  0.3576
   70MOL   H20034838   3.744   6.356   1.011  1.0935  1.2687  0.6437
   70MOL   H20134839   3.876   6.279   1.097  0.9965  0.9127 -1.1964
   70MOL   C20234840   3.130   5.670   0.833 -0.2428  0.5361  0.0583
   70MOL   C20334841   3.037   5.682   0.955  0.2407  0.5594  0.7205
   70MOL   O20434842   3.024   5.551   0.999  0.0873 -0.0434 -0.4947
   70MOL   C20534843   2.999   5.544   1.134  0.1773  0.2368  0.3779
   70MOL   C20634844   3.125   5.492   1.195  0.4293 -1.0560 -0.1177
   70MOL   C20734845   3.112   5.453   1.340  0.7444 -0.0593 -0.2851
   70MOL   C20834846   3.242   5.400   1.393  0.0079  0.1101  0.1288
   70MOL   C20934847   3.275   5.255   1.347  0.2823  0.2001  0.0179
   70MOL   C21034848   3.422   5.216   1.379 -0.2679  0.4718 -0.1046
   70MOL   H21134849   3.135   5.767   0.782  0.7705  0.8919  0.8115
   70MOL   H21234850   3.094   5.597   0.760  4.4238 -1.1417 -0.7961
   70MOL   H21334851   3.087   5.746   1.027 -0.1099 -0.5604  1.9898
   70MOL   H21434852   2.923   5.469   1.153  0.8083  0.1444  2.7799
   70MOL   H21534853   2.978   5.642   1.178 -0.5119 -0.1662  0.9490
   70MOL   H21634854   3.198   5.572   1.179  0.9602 -1.2985  1.0685
   70MOL   H21734855   3.152   5.407   1.132  0.3438 -0.5173 -0.8926
   70MOL   H21834856   3.067   5.532   1.400  0.7273 -0.4422  0.2118
   70MOL   H21934857   3.038   5.373   1.350 -0.0933  1.0386  3.0325
   70MOL   H22034858   3.319   5.475   1.379  1.3896 -1.1828  0.6803
   70MOL   H22134859   3.233   5.389   1.501 -1.5371  0.2620  0.0337
   70MOL   H22234860   3.201   5.194   1.400  0.0023  0.9002  0.4341
   70MOL   H22334861   3.251   5.234   1.243 -0.9182 -1.8761  0.6750
   70MOL   H22434862   3.453   5.246   1.479  1.4993  0.8744 -0.7670
   70MOL   H22534863   3.457   5.114   1.367 -0.6866  0.6088 -2.8867
   70MOL   H22634864   3.486   5.265   1.306 -0.8696  2.2726  0.5293
   70MOL   C22734865   2.901   5.739   0.900 -0.1018 -0.2336 -0.1917
   70MOL   C22834866   2.897   5.897   0.882  0.6282  0.9022 -0.6790
   70MOL   O22934867   2.781   5.926   0.794 -0.7860  0.0953  0.3672
   70MOL   C23034868   2.795   5.896   0.656  0.1042  0.1519  0.5579
   70MOL   C23134869   2.682   5.974   0.578  0.0956  0.4643 -0.7153
   70MOL   C23234870   2.653   5.920   0.433  0.9340  0.1358 -0.1340
   70MOL   C23334871   2.776   5.930   0.344  0.3630 -0.3682  0.1922
   70MOL   C23434872   2.738   5.911   0.200  0.2894  0.5247 -0.3887
   70MOL   C23534873   2.680   6.033   0.127  0.5518  0.1262  0.0916
   70MOL   H23634874   2.872   5.673   0.818 -1.1470  0.2012 -0.1784
   70MOL   H23734875   2.833   5.725   0.985  2.2743  0.6134  1.9244
   70MOL   H23834876   2.983   5.939   0.829  1.3421  0.8724  0.4546
   70MOL   H23934877   2.775   5.790   0.639 -2.1672  0.5269  0.7178
   70MOL   H24034878   2.894   5.912   0.614 -0.6315  0.8675 -0.9734
   70MOL   H24134879   2.715   6.078   0.580  1.6263  0.0370 -2.4080
   70MOL   H24234880   2.583   5.957   0.620  0.3691 -1.8726 -0.9521
   70MOL   H24334881   2.621   5.816   0.429  0.5878  0.2388 -0.1089
   70MOL   H24434882   2.572   5.979   0.389  2.7881  0.6649 -2.9565
   70MOL   H24534883   2.827   6.027   0.348 -0.8240  0.4250 -2.5878
   70MOL   H24634884   2.841   5.850   0.380 -1.7817 -1.1449  2.4334
   70MOL   H24734885   2.824   5.872   0.145 -1.7852 -1.6036 -2.2286
   70MOL   H24834886   2.669   5.831   0.174  0.4661 -0.6176  2.4663
   70MOL   H24934887   2.583   6.061   0.169  0.6971  0.5975  0.1120
   70MOL   H25034888   2.758   6.109   0.122 -0.0825  0.9027  1.5339
   70MOL   H25134889   2.656   6.024   0.021 -0.2391 -0.0059  0.2753
   70MOL   C25234890   2.869   5.965   1.019  0.1930 -0.0782  0.0306
   70MOL   C25334891   2.880   6.117   0.995 -0.2857 -0.1285 -0.1051
   70MOL   O25434892   3.006   6.182   1.030 -0.3039  0.3174  0.3444
   70MOL   C25534893   3.112   6.142   0.939 -0.8374 -0.1462 -0.4014
   70MOL   C25634894   3.232   6.236   0.959 -0.2281  0.1704  0.0270
   70MOL   C25734895   3.215   6.390   0.938 -0.1026 -0.6651 -0.1782
   70MOL   C25834896   3.342   6.470   0.968 -0.8288 -0.0838 -0.2434
   70MOL   C25934897   3.338   6.623   0.954 -0.5736  0.0965  0.4279
   70MOL   C26034898   3.244   6.690   1.059 -0.6146 -0.0148  1.1967
   70MOL   H26134899   2.765   5.943   1.042  0.7160 -0.0337  2.5491
   70MOL   H26234900   2.941   5.936   1.096 -0.4682 -2.4219 -0.2254
   70MOL   H26334901   2.869   6.140   0.889 -1.7966  1.6714  0.3966
   70MOL   H26434902   3.087   6.156   0.834  0.1311  2.1369 -0.3571
   70MOL   H26534903   3.151   6.042   0.954 -2.1195 -0.9737 -2.4140
   70MOL   H26634904   3.305   6.194   0.891 -0.3776  0.6498 -0.4313
   70MOL   H26734905   3.274   6.206   1.055 -0.3621  0.9562  0.3337
   70MOL   H26834906   3.182   6.398   0.834  1.8115  1.7808 -0.6460
   70MOL   H26934907   3.128   6.424   0.994  1.5321 -1.3267  2.8442
   70MOL   H27034908   3.373   6.451   1.071 -1.8570 -1.2112 -0.1192
   70MOL   H27134909   3.431   6.444   0.911 -1.5996  0.7697 -1.8730
   70MOL   H27234910   3.439   6.664   0.966 -0.1119 -1.6830  3.1411
   70MOL   H27334911   3.301   6.650   0.855  1.0410 -1.4099 -0.6129
   70MOL   H27434912   3.278   6.647   1.153 -1.8820 -0.8963  1.2646
   70MOL   H27534913   3.244   6.798   1.051 -4.2733 -0.1915 -2.2573
   70MOL   H27634914   3.141   6.661   1.041 -0.5996  1.4984 -1.4971
   70MOL   C27734915   2.772   6.199   1.072 -0.9753  0.5432  0.3907
   70MOL   C27834916   2.617   6.188   1.031 -0.4887  0.1796 -0.5295
   70MOL   O27934917   2.551   6.269   1.125 -0.6076 -0.5700 -0.4858
   70MOL   C28034918   2.535   6.223   1.257 -0.0675 -0.3016  0.1857
   70MOL   C28134919   2.518   6.338   1.360 -0.4691  0.5735  0.0991
   70MOL   C28234920   2.501   6.270   1.499  0.4218  0.7504 -0.3395
   70MOL   C28334921   2.497   6.379   1.606 -0.3432  0.0372  0.2727
   70MOL   C28434922   2.628   6.455   1.613  0.7194  0.0280 -0.0275
   70MOL   C28534923   2.662   6.506   1.750  1.2086 -0.1547  0.9217
   70MOL   H28634924   2.789   6.162   1.173  3.0746  1.2500  0.0297
   70MOL   H28734925   2.810   6.300   1.085  0.8199 -0.0175 -0.4202
   70MOL   H28834926   2.568   6.091   1.028 -0.8543  0.3672 -0.6361
   70MOL   H28934927   2.619   6.160   1.285 -0.9723 -0.5248  2.4973
   70MOL   H29034928   2.439   6.172   1.257 -0.8037  1.0690  0.1510
   70MOL   H29134929   2.431   6.400   1.340 -0.0494  2.3562  3.4768
   70MOL   H29234930   2.607   6.401   1.355  0.4555 -0.5158  1.9066
   70MOL   H29334931   2.408   6.211   1.504  1.7365 -1.4405 -0.9565
   70MOL   H29434932   2.578   6.197   1.523  0.3969  0.0705 -2.2179
   70MOL   H29534933   2.410   6.444   1.596 -0.5170  0.2134  2.5960
   70MOL   H29634934   2.477   6.331   1.702 -1.3700  0.3577  0.2292
   70MOL   H29734935   2.718   6.405   1.578  1.2598  1.4529 -0.7137
   70MOL   H29834936   2.617   6.545   1.552 -3.6321 -0.8963 -0.7720
   70MOL   H29934937   2.574   6.536   1.807 -0.0162  0.6573 -1.3377
   70MOL   H30034938   2.710   6.430   1.811 -0.0443 -0.0558  2.0584
   70MOL   H30134939   2.732   6.589   1.755  1.5183 -0.3011 -0.6206
   70MOL   C30234940   2.588   6.269   0.904  0.7153 -0.0401 -0.1623
   70MOL   C30334941   2.444   6.269   0.849 -0.1871  0.2889 -0.7714
   70MOL   O30434942   2.427   6.151   0.772 -0.4644 -0.4241  0.6754
   70MOL   C30534943   2.353   6.046   0.823  0.4661  0.6391  0.7128
   70MOL   C30634944   2.264   5.973   0.721  0.0224  0.0470 -0.1259
   70MOL   C30734945   2.158   6.068   0.662  0.3663 -0.1619  0.8903
   70MOL   C30834946   2.089   6.016   0.535  0.5836 -0.3163  0.2378
   70MOL   C30934947   1.986   6.120   0.478 -0.8549 -0.0489 -0.0458
   70MOL   C31034948   2.048   6.254   0.430 -0.2784  0.4455 -0.3387
   70MOL   H31134949   2.622   6.368   0.935  0.5154 -0.5091  1.6099
   70MOL   H31234950   2.654   6.241   0.821  2.6799  3.2192  0.2404
   70MOL   H31334951   2.385   6.250   0.939  0.4035 -0.3119 -0.5045
   70MOL   H31434952   2.280   6.081   0.896 -2.0505 -0.6673 -1.1075
   70MOL   H31534953   2.424   5.980   0.872 -0.1450  1.0657  2.2129
   70MOL   H31634954   2.217   5.888   0.771  1.3570 -0.4706  0.2733
   70MOL   H31734955   2.319   5.925   0.640 -0.1137 -0.2545 -0.0382
   70MOL   H31834956   2.075   6.089   0.730 -0.8359 -1.4499 -0.1315
   70MOL   H31934957   2.206   6.163   0.638 -0.1340  0.5104  2.5105
   70MOL   H32034958   2.158   5.988   0.456 -0.1531 -0.5747 -0.3239
   70MOL   H32134959   2.039   5.921   0.555 -2.6156  1.3070  0.2909
   70MOL   H32234960   1.945   6.072   0.389 -0.5607 -1.3838  0.5339
   70MOL   H32334961   1.900   6.125   0.543 -0.8277  0.0004 -0.0136
   70MOL   H32434962   2.145   6.226   0.389 -1.3125 -0.8906 -1.9261
   70MOL   H32534963   1.966   6.297   0.372 -0.2472 -0.0944 -0.7814
   70MOL   H32634964   2.074   6.312   0.518 -2.3687  0.3292  0.3608
   70MOL   C32734965   2.424   6.390   0.761  0.3031 -0.2184  0.8335
   70MOL   C32834966   2.409   6.527   0.840 -0.3475  0.1394  0.0067
   70MOL   O32934967   2.537   6.591   0.844 -0.1442  0.0642 -0.1273
   70MOL   C33034968   2.571   6.646   0.969 -0.3157 -0.9869 -0.2517
   70MOL   C33134969   2.709   6.706   0.973 -0.4705 -0.5331  0.4705
   70MOL   C33234970   2.767   6.701   1.113  0.2989  0.8972 -0.4652
   70MOL   C33334971   2.822   6.560   1.163 -0.2931  0.0429  0.2424
   70MOL   C33434972   2.872   6.563   1.307  0.4163  0.6738 -0.2866
   70MOL   C33534973   3.001   6.633   1.325 -0.2418 -0.2564  0.2598
   70MOL   H33634974   2.336   6.382   0.697 -0.1252  1.3277  1.1921
   70MOL   H33734975   2.509   6.393   0.692  1.7060 -1.8004  2.4315
   70MOL   H33834976   2.382   6.499   0.942 -2.0959 -0.1551 -0.5205
   70MOL   H33934977   2.573   6.564   1.041  5.3493 -1.2449 -0.4898
   70MOL   H34034978   2.496   6.712   1.013 -1.2887 -0.7567 -2.2078
   70MOL   H34134979   2.699   6.809   0.938  0.7661 -0.7368 -0.5408
   70MOL   H34234980   2.772   6.646   0.907 -0.8577 -1.8817  1.2979
   70MOL   H34334981   2.838   6.783   1.110  0.6864  0.5748 -0.1460
   70MOL   H34434982   2.691   6.737   1.182 -0.2123  1.2587 -1.2164
   70MOL   H34534983   2.745   6.486   1.141  0.0216  0.0579 -0.9615
   70MOL   H34634984   2.902   6.541   1.092 -0.2952 -0.0526  0.2638
   70MOL   H34734985   2.799   6.604   1.376 -1.7763 -2.4354 -0.6617
   70MOL   H34834986   2.875   6.461   1.345 -2.3196  0.1206 -1.4841
   70MOL   H34934987   3.089   6.584   1.282  0.7477  1.1910  0.6029
   70MOL   H35034988   3.012   6.731   1.279 -2.6581 -0.2589 -0.3668
   70MOL   H35134989   3.029   6.630   1.430  0.8290  0.7528  0.0132
   70MOL   C35234990   2.300   6.622   0.792 -0.0360  0.8150  0.8511
   70MOL   C35334991   2.164   6.555   0.755  0.0723  0.3635 -0.0221
   70MOL   O35434992   2.075   6.659   0.710 -0.8395  0.0366  0.4493
   70MOL   C35534993   1.999   6.612   0.588 -0.4683 -0.3421  0.3667
   70MOL   C35634994   1.902   6.721   0.552  0.2783 -0.0708  0.4505
   70MOL   C35734995   1.805   6.668   0.445  0.5533  0.0822 -0.5285
   70MOL   C35834996   1.681   6.766   0.435 -0.0574  0.1001 -0.0994
   70MOL   C35934997   1.592   6.744   0.317  0.0170 -0.3620  0.1598
   70MOL   C36034998   1.460   6.670   0.355  0.6001 -0.4252  0.1752
   70MOL   H36134999   2.300   6.684   0.882 -0.1922  1.2234  0.5673
   70MOL   H36235000   2.349   6.672   0.709  0.8304 -1.4294 -0.0257
   70MOL   H36335001   2.173   6.483   0.674 -0.9119 -1.5518  1.5230
   70MOL   H36435002   1.945   6.522   0.616  0.7598 -1.2062  0.0047
   70MOL   H36535003   2.069   6.594   0.506 -1.2007 -0.2939 -0.2724
   70MOL   H36635004   1.956   6.809   0.517  0.9410 -0.5429  0.2822
   70MOL   H36735005   1.866   6.743   0.653 -0.6078 -1.7720  0.5180
   70MOL   H36835006   1.843   6.653   0.344 -1.3187 -1.3608 -1.0569
   70MOL   H36935007   1.764   6.572   0.477  0.7339  0.3081  0.3817
   70MOL   H37035008   1.627   6.761   0.530  0.4610  1.6587  0.2968
   70MOL   H37135009   1.722   6.867   0.441  0.9698 -0.2871 -0.5004
   70MOL   H37235010   1.561   6.842   0.281  1.2812  0.7061  1.8386
   70MOL   H37335011   1.651   6.697   0.238  0.0622  1.7217 -1.0871
   70MOL   H37435012   1.400   6.663   0.264  2.0375  2.5968 -1.1038
   70MOL   H37535013   1.486   6.573   0.397 -1.6477 -1.0522  0.1666
   70MOL   H37635014   1.401   6.710   0.438 -0.7865 -1.6527 -0.2165
   70MOL   C37735015   2.100   6.470   0.864 -1.0006 -0.3572  0.3006
   70MOL   C37835016   2.070   6.553   0.992  0.2655  0.2346  0.0482
   70MOL   O37935017   2.033   6.440   1.071 -0.6643 -0.1835 -0.0509
   70MOL   C38035018   2.121   6.436   1.187 -0.4077  0.3639  0.5423
   70MOL   C38135019   2.041   6.360   1.301  0.6680 -1.0137  0.1905
   70MOL   C38235020   2.133   6.324   1.416 -0.2231  0.2901 -0.6608
   70MOL   C38335021   2.066   6.275   1.551 -0.1933  0.3008 -0.7522
   70MOL   C38435022   1.971   6.154   1.529 -0.0797 -0.2994 -0.2520
   70MOL   C38535023   1.890   6.120   1.655  0.6695 -0.0728  0.0558
   70MOL   H38635024   2.013   6.429   0.814 -1.1858  3.1098 -2.4396
   70MOL   H38735025   2.168   6.390   0.893  1.0661  0.6807 -1.4924
   70MOL   H38835026   2.154   6.604   1.038  0.8195 -0.6120 -0.0049
   70MOL   H38935027   2.137   6.534   1.233 -2.0335  0.8472  0.0985
   70MOL   H39035028   2.213   6.384   1.161  0.5603  2.2608  0.0614
   70MOL   H39135029   2.015   6.264   1.257 -0.3217 -0.4412 -0.5047
   70MOL   H39235030   1.949   6.404   1.339 -1.3035 -3.8671 -1.0886
   70MOL   H39335031   2.201   6.253   1.370  0.4007  0.3035  0.2238
   70MOL   H39435032   2.192   6.413   1.437 -0.3153 -0.1064  1.4000
   70MOL   H39535033   2.141   6.262   1.629  0.1797 -0.1524 -1.1782
   70MOL   H39635034   2.000   6.351   1.592 -0.2565 -0.1307 -0.0426
   70MOL   H39735035   1.903   6.166   1.444 -1.2392 -3.3030  0.1865
   70MOL   H39835036   2.032   6.066   1.509 -0.8244 -0.5968 -1.2618
   70MOL   H39935037   1.814   6.198   1.661  0.3497 -0.4733  1.2171
   70MOL   H40035038   1.843   6.022   1.649  1.2835 -0.4827  1.5903
   70MOL   H40135039   1.939   6.107   1.751 -2.2744  1.5005  1.8267
   70MOL   C40235040   1.948   6.644   0.968  0.9171  0.7874  0.6569
   70MOL   C40335041   1.982   6.797   0.984  0.0421  0.8807 -0.2674
   70MOL   O40435042   2.027   6.821   1.111 -0.0175  0.6662 -0.3641
   70MOL   C40535043   2.157   6.890   1.110 -0.2580  0.7908 -0.1917
   70MOL   C40635044   2.201   6.897   1.261 -0.2144 -0.2717  0.1889
   70MOL   C40735045   2.356   6.877   1.277  0.3300  0.2577  0.4046
   70MOL   C40835046   2.400   6.873   1.425  0.5651 -0.5562 -0.3857
   70MOL   C40935047   2.549   6.836   1.448  0.0898 -0.2199 -0.4176
   70MOL   C41035048   2.582   6.824   1.600  0.2656  0.0820 -0.0518
   70MOL   H41135049   1.880   6.622   1.049 -1.0260  2.0718 -0.6003
   70MOL   H41235050   1.895   6.609   0.879  0.1621 -1.2448  1.8569
   70MOL   H41335051   2.056   6.811   0.906  1.1929 -0.2156  0.6116
   70MOL   H41435052   2.167   6.990   1.068 -0.1358  0.6989 -0.3801
   70MOL   H41535053   2.233   6.826   1.067  0.7024  0.8980  1.3156
   70MOL   H41635054   2.139   6.830   1.321 -2.2423  1.5074  0.1408
   70MOL   H41735055   2.185   6.997   1.302 -0.7293 -0.7633  1.2023
   70MOL   H41835056   2.375   6.776   1.238 -0.0565 -0.3029  1.6543
   70MOL   H41935057   2.405   6.959   1.226  0.4189 -0.1939 -0.2456
   70MOL   H42035058   2.383   6.971   1.470 -1.2470 -1.0976  0.1486
   70MOL   H42135059   2.333   6.802   1.473 -0.5061 -0.0172 -1.0747
   70MOL   H42235060   2.577   6.748   1.390 -1.6550 -0.6926 -0.5766
   70MOL   H42335061   2.609   6.916   1.405 -2.0148  1.7605  0.2564
   70MOL   H42435062   2.586   6.923   1.646 -0.5861  1.2052 -2.3149
   70MOL   H42535063   2.506   6.762   1.646  0.2830 -0.1396 -0.3201
   70MOL   H42635064   2.679   6.782   1.627  0.7160  0.5683 -0.8744
   70MOL   C42735065   1.853   6.879   0.956 -0.1349 -0.6297 -0.1368
   70MOL   C42835066   1.882   7.031   0.944  0.1198 -0.2025 -0.8135
   70MOL   O42935067   1.792   7.105   0.857 -0.2257 -0.1064  0.4081
   70MOL   C43035068   1.658   7.103   0.878 -0.0178  0.1325 -0.5861
   70MOL   C43135069   1.570   7.151   0.753  0.0163 -0.0740 -0.2582
   70MOL   C43235070   1.609   7.076   0.619  0.3931 -0.5624 -0.2792
   70MOL   C43335071   1.522   7.102   0.498  0.2857  0.1927 -0.2889
   70MOL   C43435072   1.520   7.252   0.461  0.6332  0.4950  0.1660
   70MOL   C43535073   1.450   7.293   0.331  0.4401  0.2177  0.1172
   70MOL   H43635074   1.830   6.838   0.858 -2.7249 -0.3312  0.3100
   70MOL   H43735075   1.763   6.849   1.010 -0.2888  0.7030  0.3758
   70MOL   H43835076   1.984   7.054   0.912 -0.2068  1.7169 -0.5471
   70MOL   H43935077   1.634   7.177   0.955 -0.9903 -0.2845 -0.4797
   70MOL   H44035078   1.631   7.003   0.912  0.5754  0.2830  0.3653
   70MOL   H44135079   1.578   7.259   0.743  0.2023 -0.1792 -1.3226
   70MOL   H44235080   1.464   7.138   0.776  0.6647 -1.0255  2.4298
   70MOL   H44335081   1.715   7.092   0.597  0.6344 -1.3446  0.3133
   70MOL   H44435082   1.608   6.971   0.644 -0.9975 -0.1963  1.2231
   70MOL   H44535083   1.545   7.054   0.402 -0.3865  1.2282 -0.9800
   70MOL   H44635084   1.421   7.072   0.526  0.4962 -0.0860  0.1806
   70MOL   H44735085   1.460   7.295   0.541  2.0881  2.3004  0.3043
   70MOL   H44835086   1.622   7.287   0.471 -0.1730  2.4224  2.0810
   70MOL   H44935087   1.348   7.256   0.333  0.6226 -0.4074 -1.5353
   70MOL   H45035088   1.459   7.401   0.319 -0.4833  0.2206 -0.5662
   70MOL   H45135089   1.501   7.245   0.248 -1.0471  1.3083 -1.4506
   70MOL   C45235090   1.885   7.104   1.085 -0.3003 -0.2418  0.7480
   70MOL   C45335091   1.902   7.260   1.084 -0.2749 -0.3294  0.9564
   70MOL   O45435092   1.994   7.290   0.975  0.8571 -0.0246  0.1638
   70MOL   C45535093   1.979   7.415   0.920  0.1651 -1.0872  0.1073
   70MOL   C45635094   2.043   7.443   0.788 -0.3506  0.4669  0.1493
   70MOL   C45735095   1.971   7.409   0.655 -0.8334  0.3213 -0.5626
   70MOL   C45835096   2.061   7.415   0.526  0.1098 -0.8701 -0.2821
   70MOL   C45935097   2.060   7.558   0.463 -0.1658  0.2295 -0.8691
   70MOL   C46035098   2.130   7.567   0.329  0.0661 -0.1509  0.3783
   70MOL   H46135099   1.795   7.074   1.139 -0.7102  1.6332  1.1458
   70MOL   H46235100   1.971   7.064   1.140 -0.6759 -0.9500  0.8313
   70MOL   H46335101   1.807   7.308   1.061 -0.1535 -0.7122 -0.4090
   70MOL   H46435102   2.012   7.484   0.998  0.4361 -1.1817  0.0770
   70MOL   H46535103   1.872   7.431   0.914  0.2604 -0.8362 -1.1486
   70MOL   H46635104   2.139   7.391   0.797 -1.5619 -2.6431 -3.6967
   70MOL   H46735105   2.063   7.550   0.778 -0.6949  0.5070 -0.1334
   70MOL   H46835106   1.949   7.303   0.671  1.3552  0.0613  0.9671
   70MOL   H46935107   1.873   7.453   0.643 -0.3644  1.6531  0.4079
   70MOL   H47035108   2.158   7.387   0.567  0.9087  0.0330 -1.5113
   70MOL   H47135109   2.025   7.350   0.446  1.1329 -0.3135 -1.1982
   70MOL   H47235110   1.961   7.586   0.428 -1.6681 -1.9041  1.5699
   70MOL   H47335111   2.081   7.637   0.535 -0.2271 -0.1670 -0.4123
   70MOL   H47435112   2.236   7.543   0.326 -0.2410 -1.4645 -1.0195
   70MOL   H47535113   2.084   7.504   0.252 -1.7150  0.5394  0.8647
   70MOL   H47635114   2.120   7.671   0.299  2.5502  0.1814  0.6018
   70MOL   C47735115   1.948   7.320   1.219 -0.7636  0.2583 -0.4520
   70MOL   C47835116   1.864   7.294   1.345 -0.1188 -0.5441 -0.4923
   70MOL   O47935117   1.911   7.372   1.452 -0.4984  0.1744 -0.4606
   70MOL   C48035118   1.849   7.358   1.579 -0.0688 -0.6181  0.6962
   70MOL   C48135119   1.934   7.406   1.696  0.5670 -0.3486  0.6024
   70MOL   C48235120   1.840   7.425   1.814  0.7657 -0.1400  0.0157
   70MOL   C48335121   1.903   7.467   1.942 -0.0893 -0.1189 -0.3387
   70MOL   C48435122   1.796   7.534   2.027  0.0339 -0.3101 -0.0545
   70MOL   C48535123   1.833   7.547   2.176 -0.2547  0.1177 -0.4252
   70MOL   H48635124   2.055   7.302   1.229 -0.6466  1.6077  0.9851
   70MOL   H48735125   1.937   7.427   1.201 -0.7644  0.2569 -0.4585
   70MOL   H48835126   1.762   7.322   1.321 -0.0231 -1.5118 -2.1499
   70MOL   H48935127   1.813   7.256   1.597 -1.7618 -0.6806 -2.5864
   70MOL   H49035128   1.763   7.425   1.573  2.4940  2.8816  1.6989
   70MOL   H49135129   1.959   7.511   1.680  0.0095  0.2099  3.2257
   70MOL   H49235130   2.025   7.350   1.718  1.7941  1.9079  1.4032
   70MOL   H49335131   1.760   7.496   1.795 -0.6219 -1.5488  0.5298
   70MOL   H49435132   1.787   7.331   1.828 -0.9330  0.8927  0.6700
   70MOL   H49535133   1.946   7.382   1.994  2.2630  0.9371 -0.4816
   70MOL   H49635134   1.994   7.527   1.936 -1.3023  1.5952 -2.3566
   70MOL   H49735135   1.778   7.635   1.992 -1.9618 -1.6002 -3.0552
   70MOL   H49835136   1.698   7.486   2.020 -1.3670  2.5214 -0.6064
   70MOL   H49935137   1.866   7.452   2.217 -1.2384  0.3209  0.8741
   70MOL   H50035138   1.909   7.622   2.195 -2.8988  2.5774  0.9097
   70MOL   H50135139   1.745   7.587   2.228  2.6095  2.1879  3.0333
   70MOL   H50235140   1.892   7.194   1.378  1.4752  0.4427  1.2207
   71MOL     C135141   1.894   4.410   2.605  0.5495  0.0070 -0.0897
   71MOL     C235142   1.909   4.314   2.483 -0.2230  0.2688  0.4218
   71MOL     O335143   1.918   4.389   2.360  0.8400  0.0262  0.7109
   71MOL     C435144   2.047   4.413   2.303  0.0491  0.0443 -0.0688
   71MOL     C535145   2.041   4.464   2.163 -0.0257 -0.1507 -0.2598
   71MOL     C635146   1.953   4.369   2.076  0.5098  0.0234  0.3785
   71MOL     C735147   1.958   4.404   1.931 -0.3420  0.2474 -0.1802
   71MOL     C835148   1.897   4.299   1.849 -0.4411 -1.1821  0.6317
   71MOL     C935149   1.913   4.319   1.699 -0.5549 -0.3468  0.1954
   71MOL    H1035150   1.924   4.365   2.699 -1.2402  3.1547  2.0954
   71MOL    H1135151   1.959   4.497   2.593 -1.0723  1.5082  1.7381
   71MOL    H1235152   1.999   4.256   2.505 -1.9435 -1.8905  1.9571
   71MOL    H1335153   2.110   4.325   2.308  0.1629  0.2131  1.8049
   71MOL    H1435154   2.102   4.484   2.365  2.0217 -0.7345 -0.9001
   71MOL    H1535155   2.144   4.458   2.127  0.8539  3.2217  1.4845
   71MOL    H1635156   2.006   4.567   2.166 -0.4819 -0.2988 -0.4983
   71MOL    H1735157   1.991   4.268   2.085 -1.5736 -0.7311  0.9280
   71MOL    H1835158   1.851   4.361   2.115  0.7155  2.7943  1.6398
   71MOL    H1935159   1.908   4.501   1.927 -1.5828 -0.3488  0.6219
   71MOL    H2035160   2.060   4.430   1.901 -0.1063 -1.8130 -1.2653
   71MOL    H2135161   1.793   4.277   1.871 -1.2251  2.0137  0.3192
   71MOL    H2235162   1.947   4.207   1.881 -1.4246 -1.2096  2.0958
   71MOL    H2335163   1.855   4.409   1.681 -0.8042 -0.4936  0.2643
   71MOL    H2435164   2.019   4.341   1.686 -1.2276  1.6749 -2.2690
   71MOL    H2535165   1.887   4.236   1.633 -1.9949  0.2230  0.0291
   71MOL    H2635166   1.788   4.438   2.605 -0.0307 -2.1016 -0.0346
   71MOL    C2735167   1.788   4.225   2.484 -0.3351 -0.4245 -0.5655
   71MOL    C2835168   1.789   4.117   2.374  0.2323  0.4207 -0.5604
   71MOL    O2935169   1.877   4.016   2.420 -0.0596 -0.3497  0.4163
   71MOL    C3035170   1.999   4.012   2.344 -0.7506 -0.2448  0.3374
   71MOL    C3135171   2.091   3.911   2.413  0.3791  0.4349 -0.0525
   71MOL    C3235172   2.035   3.771   2.427  0.1537  0.2424 -0.2604
   71MOL    C3335173   2.077   3.687   2.551  0.0966 -0.3217 -0.2787
   71MOL    C3435174   1.999   3.553   2.563  0.6051  0.4614 -0.5848
   71MOL    C3535175   2.038   3.493   2.694 -0.4719  0.3086  0.4045
   71MOL    H3635176   1.788   4.174   2.581  0.5205  1.3247  0.3777
   71MOL    H3735177   1.706   4.296   2.479 -0.6026 -0.5087  1.8850
   71MOL    H3835178   1.824   4.162   2.280  1.7148 -0.7670 -0.5896
   71MOL    H3935179   2.040   4.113   2.338 -0.7734 -0.3909 -3.3122
   71MOL    H4035180   1.978   3.979   2.242 -0.6031  3.0740 -0.8129
   71MOL    H4135181   2.127   3.939   2.512 -1.5989  2.0009  0.2596
   71MOL    H4235182   2.183   3.911   2.355  0.9423  0.1340  0.8404
   71MOL    H4335183   1.927   3.781   2.436  0.2286  2.1813 -1.2069
   71MOL    H4435184   2.042   3.713   2.335  1.2096  0.5917 -0.4095
   71MOL    H4535185   2.185   3.678   2.552  0.0485 -0.8907 -0.0057
   71MOL    H4635186   2.054   3.744   2.642  2.6397  1.6018 -0.7983
   71MOL    H4735187   1.891   3.560   2.556  0.1798 -3.0391  1.5439
   71MOL    H4835188   2.027   3.485   2.483  1.6342  0.3781 -0.1778
   71MOL    H4935189   2.037   3.565   2.775  0.6266 -0.9993  1.6023
   71MOL    H5035190   1.985   3.402   2.721 -2.7867  1.1997 -1.0245
   71MOL    H5135191   2.138   3.450   2.688 -0.8327 -0.5943  0.8129
   71MOL    C5235192   1.661   4.052   2.332  0.3191 -0.1668  0.2150
   71MOL    C5335193   1.553   4.157   2.283  0.9372 -0.7421  0.1739
   71MOL    O5435194   1.611   4.232   2.169 -0.2788 -0.3335 -0.2809
   71MOL    C5535195   1.549   4.354   2.126  0.3049 -0.2545 -0.0349
   71MOL    C5635196   1.541   4.467   2.236 -0.6246 -0.2143  0.3541
   71MOL    C5735197   1.464   4.594   2.191 -0.5096 -0.3354  0.4850
   71MOL    C5835198   1.458   4.693   2.306  0.3316  0.0663 -0.1509
   71MOL    C5935199   1.410   4.835   2.274 -0.2815 -0.4578 -0.1320
   71MOL    C6035200   1.347   4.905   2.395  0.0469 -0.6577 -0.1546
   71MOL    H6135201   1.608   4.008   2.416 -0.3111  0.5562  0.1961
   71MOL    H6235202   1.699   3.984   2.255  0.5765  1.7275 -1.3629
   71MOL    H6335203   1.530   4.226   2.364  2.9402  2.5301 -1.9020
   71MOL    H6435204   1.444   4.348   2.095  0.2026 -1.1704  0.4825
   71MOL    H6535205   1.609   4.388   2.042  0.1687 -0.6072 -0.2757
   71MOL    H6635206   1.639   4.498   2.272 -0.4131  1.3518 -1.5035
   71MOL    H6735207   1.477   4.428   2.316 -1.7697  0.2989 -0.2960
   71MOL    H6835208   1.519   4.635   2.106 -2.3907  1.0543 -0.0940
   71MOL    H6935209   1.361   4.584   2.160 -0.8433  0.6502  1.2259
   71MOL    H7035210   1.380   4.650   2.369 -0.1198 -0.1041 -0.8180
   71MOL    H7135211   1.554   4.694   2.357 -0.4959 -0.5079  1.4804
   71MOL    H7235212   1.488   4.894   2.225  1.1081 -1.0853  1.2729
   71MOL    H7335213   1.330   4.823   2.201  0.3023 -2.7316 -0.4376
   71MOL    H7435214   1.319   5.006   2.366  2.1286 -0.7491 -2.5880
   71MOL    H7535215   1.259   4.858   2.439 -0.1523  0.5303  0.7408
   71MOL    H7635216   1.421   4.921   2.473  0.3853 -1.0309 -0.4009
   71MOL    C7735217   1.426   4.096   2.228 -0.4767  0.3250 -0.3062
   71MOL    C7835218   1.368   3.971   2.294  0.7068  0.8407 -0.2850
   71MOL    O7935219   1.285   3.909   2.196  0.3694 -0.0764  0.2306
   71MOL    C8035220   1.335   3.789   2.134 -0.1926 -0.3941 -0.2146
   71MOL    C8135221   1.232   3.752   2.015 -0.4243  0.0211  0.4309
   71MOL    C8235222   1.086   3.746   2.068 -0.2360 -0.0476  0.1879
   71MOL    C8335223   0.981   3.694   1.978  0.0973  0.2967  0.1173
   71MOL    C8435224   0.964   3.770   1.852  0.1269 -0.6635 -0.5365
   71MOL    C8535225   0.861   3.708   1.759  0.2064  0.4594  0.3874
   71MOL    H8635226   1.449   4.057   2.129 -0.3791 -2.5923  0.8162
   71MOL    H8735227   1.343   4.166   2.216 -0.8896 -0.2599 -0.8484
   71MOL    H8835228   1.446   3.900   2.322 -1.2514  0.3984  4.5055
   71MOL    H8935229   1.333   3.702   2.199  0.7441 -0.1058  0.2045
   71MOL    H9035230   1.437   3.797   2.095  0.3552 -1.1727  1.0403
   71MOL    H9135231   1.262   3.667   1.955  0.6196 -0.7170  1.9846
   71MOL    H9235232   1.230   3.838   1.948 -0.8283  1.3450  2.1091
   71MOL    H9335233   1.079   3.696   2.165 -2.3528 -0.5579 -0.2163
   71MOL    H9435234   1.064   3.851   2.081  1.1234  0.0537  1.8671
   71MOL    H9535235   1.001   3.587   1.969  0.2281  0.2486  0.9083
   71MOL    H9635236   0.884   3.704   2.027 -0.2872  1.0479 -0.7822
   71MOL    H9735237   0.949   3.877   1.864  0.8860 -0.7554  1.3138
   71MOL    H9835238   1.055   3.761   1.792 -0.1378 -1.4497 -0.8390
   71MOL    H9935239   0.763   3.701   1.805  0.3093 -0.8504  0.4227
   71MOL   H10035240   0.857   3.771   1.670 -0.0199 -0.0326  0.0525
   71MOL   H10135241   0.888   3.604   1.739 -1.4307 -0.2656  1.8079
   71MOL   C10235242   1.291   3.981   2.428 -0.1926 -0.7164  0.3114
   71MOL   C10335243   1.264   3.848   2.497  0.2662  0.2491 -1.1042
   71MOL   O10435244   1.377   3.808   2.573  0.2495 -0.0015 -0.1021
   71MOL   C10535245   1.398   3.674   2.588 -0.0074 -0.3269  1.0373
   71MOL   C10635246   1.532   3.637   2.654 -0.1253 -0.0104 -0.1930
   71MOL   C10735247   1.562   3.717   2.782 -0.5976  0.2555 -0.0520
   71MOL   C10835248   1.708   3.696   2.836  0.3082  0.4740  0.2839
   71MOL   C10935249   1.716   3.781   2.959  0.0105 -0.5738 -0.5503
   71MOL   C11035250   1.854   3.764   3.021  0.2568  0.1489 -0.0520
   71MOL   H11135251   1.355   4.035   2.497 -0.8667  0.1830  0.2550
   71MOL   H11235252   1.203   4.042   2.409 -0.1447 -0.5855  0.5168
   71MOL   H11335253   1.226   3.773   2.427  0.4150 -0.4283 -0.4625
   71MOL   H11435254   1.396   3.621   2.493  0.5052 -0.3163  1.0210
   71MOL   H11535255   1.317   3.634   2.650 -2.0186 -0.0242 -1.2814
   71MOL   H11635256   1.606   3.677   2.585  0.2031  0.2101  0.2856
   71MOL   H11735257   1.550   3.531   2.667  2.4795  0.5473  0.9983
   71MOL   H11835258   1.541   3.818   2.748  3.7191  0.8435 -1.2982
   71MOL   H11935259   1.495   3.687   2.863 -0.0106 -0.9298  0.0049
   71MOL   H12035260   1.727   3.591   2.861  2.6428  0.1601 -2.5083
   71MOL   H12135261   1.778   3.735   2.763  0.5732  0.4684  0.5338
   71MOL   H12235262   1.695   3.886   2.936 -0.0851 -0.2301  1.0438
   71MOL   H12335263   1.643   3.746   3.032 -0.8484  2.0773 -0.0667
   71MOL   H12435264   1.949   3.771   2.967  0.0582 -1.5240 -0.6572
   71MOL   H12535265   1.867   3.833   3.104 -2.6534  0.9515 -0.2220
   71MOL   H12635266   1.858   3.670   3.077  0.6568 -0.0699 -0.4415
   71MOL   C12735267   1.149   3.859   2.597  0.0799 -0.3701 -0.0029
   71MOL   C12835268   1.010   3.849   2.534  0.3890  0.9282  0.2689
   71MOL   O12935269   0.986   3.975   2.483 -0.7100  0.1240 -0.3904
   71MOL   C13035270   0.964   4.001   2.347  0.6132 -0.4820 -0.3588
   71MOL   C13135271   0.935   4.154   2.321 -0.0505 -0.0691  0.5299
   71MOL   C13235272   0.891   4.192   2.174  0.0072 -0.3316 -0.5416
   71MOL   C13335273   1.008   4.198   2.074  0.0996 -0.5394  0.8667
   71MOL   C13435274   1.107   4.318   2.082 -0.3516 -0.3394  0.0405
   71MOL   C13535275   1.183   4.346   1.946 -0.0522 -0.4849 -0.6548
   71MOL   H13635276   1.154   3.778   2.669  1.8735  0.1456  0.4823
   71MOL   H13735277   1.159   3.944   2.665 -2.8432 -2.7112  3.5044
   71MOL   H13835278   1.017   3.784   2.447  0.6739  1.2392  0.0560
   71MOL   H13935279   0.883   3.932   2.320 -0.2698 -0.6292  2.4783
   71MOL   H14035280   1.049   3.965   2.289  1.2316 -0.2563  0.4029
   71MOL   H14135281   1.020   4.208   2.361 -1.2667  1.2739  1.3677
   71MOL   H14235282   0.847   4.183   2.378 -1.4070  1.6781 -2.3204
   71MOL   H14335283   0.817   4.129   2.125  1.2148 -2.4869  0.3158
   71MOL   H14435284   0.837   4.287   2.180 -0.5175 -0.7073  0.8316
   71MOL   H14535285   1.060   4.103   2.082  2.0082  0.4280  0.1936
   71MOL   H14635286   0.960   4.210   1.977  1.4353  1.3636  0.4143
   71MOL   H14735287   1.047   4.406   2.106  1.2530  0.7775  0.0143
   71MOL   H14835288   1.175   4.309   2.166  1.6818  3.5600 -1.0627
   71MOL   H14935289   1.234   4.442   1.949 -0.6789 -0.1662  0.3000
   71MOL   H15035290   1.265   4.275   1.941  0.6701  0.2539  0.2445
   71MOL   H15135291   1.117   4.351   1.859 -0.9699 -0.4552  0.0298
   71MOL   C15235292   0.896   3.809   2.629  0.3783  0.3912  0.3030
   71MOL   C15335293   0.768   3.781   2.546 -0.4242 -0.2564  0.2295
   71MOL   O15435294   0.795   3.665   2.466  0.0540  0.2979  0.4793
   71MOL   C15535295   0.718   3.668   2.342  0.2930  0.3515  0.3109
   71MOL   C15635296   0.757   3.544   2.260 -1.1805 -0.6508  0.1239
   71MOL   C15735297   0.716   3.406   2.311 -0.0333  0.9000  0.4047
   71MOL   C15835298   0.705   3.307   2.194  0.2142  0.4766  0.6331
   71MOL   C15935299   0.665   3.164   2.232 -0.0535 -0.0743 -0.2718
   71MOL   C16035300   0.673   3.064   2.110 -0.1830  0.5462 -0.0838
   71MOL   H16135301   0.916   3.730   2.701  1.0860  0.1247 -0.1800
   71MOL   H16235302   0.882   3.889   2.702  1.1601  0.7055  0.1161
   71MOL   H16335303   0.749   3.863   2.477  0.5327 -1.1145 -1.0709
   71MOL   H16435304   0.737   3.754   2.280  1.2427 -0.5726 -0.6908
   71MOL   H16535305   0.615   3.676   2.377  1.3089  0.8092  3.3531
   71MOL   H16635306   0.864   3.549   2.238 -0.9375  0.1676  1.4465
   71MOL   H16735307   0.715   3.562   2.161 -2.4288  1.5378  1.0282
   71MOL   H16835308   0.781   3.370   2.391 -2.9921 -1.9611  1.6171
   71MOL   H16935309   0.622   3.405   2.365  1.2611 -0.8897  2.7346
   71MOL   H17035310   0.623   3.339   2.130 -0.8955 -0.1765  1.7247
   71MOL   H17135311   0.784   3.319   2.119 -0.2228  0.1819  0.1279
   71MOL   H17235312   0.744   3.130   2.298  0.9365 -0.8111 -1.8184
   71MOL   H17335313   0.572   3.147   2.287 -1.6901 -1.1858 -3.2733
   71MOL   H17435314   0.602   3.084   2.031 -0.1395  0.9453 -0.0222
   71MOL   H17535315   0.773   3.073   2.067  0.4794  0.2215  1.3565
   71MOL   H17635316   0.662   2.959   2.137  0.5193 -0.1100 -2.2695
   71MOL   C17735317   0.650   3.761   2.636  1.2899 -0.4881  0.1489
   71MOL   C17835318   0.531   3.858   2.601 -0.2651  0.3730 -0.3445
   71MOL   O17935319   0.421   3.795   2.665  0.5612 -0.0059 -0.2131
   71MOL   C18035320   0.297   3.852   2.647  0.0355 -0.4497 -0.0242
   71MOL   C18135321   0.184   3.750   2.695 -0.1174 -0.1928 -0.6168
   71MOL   C18235322   0.053   3.779   2.618 -0.4017 -0.0642 -0.4291
   71MOL   C18335323   7.705   3.703   2.649 -0.1146 -0.2108  0.2690
   71MOL   C18435324   7.732   3.553   2.668 -0.5628 -0.4665  0.3280
   71MOL   C18535325   7.600   3.475   2.692  0.0222 -0.0337  0.5062
   71MOL   H18635326   0.610   3.660   2.636  0.2093 -0.0761  1.5000
   71MOL   H18735327   0.681   3.787   2.737 -0.9453  0.8586  0.5245
   71MOL   H18835328   0.514   3.864   2.494 -1.3857  0.4839 -0.1632
   71MOL   H18935329   0.277   3.889   2.547  1.6809  0.7124  0.0674
   71MOL   H19035330   0.277   3.943   2.703 -0.0280 -1.1807  1.1740
   71MOL   H19135331   0.164   3.766   2.801 -1.4478 -2.5323 -0.4831
   71MOL   H19235332   0.208   3.645   2.683  0.4970 -0.3858  2.0070
   71MOL   H19335333   0.024   3.882   2.638  0.2681 -0.0438  0.4251
   71MOL   H19435334   0.064   3.767   2.510  0.9382 -2.2752 -0.0787
   71MOL   H19535335   7.662   3.742   2.741  2.0919 -1.7528  2.0259
   71MOL   H19635336   7.632   3.712   2.569  0.9949  2.9292 -0.4625
   71MOL   H19735337   0.004   3.510   2.582 -0.3017  0.8610 -0.1795
   71MOL   H19835338   0.018   3.534   2.754  3.6849  0.9120 -2.3956
   71MOL   H19935339   7.628   3.370   2.687 -4.7837 -1.3532 -0.2766
   71MOL   H20035340   7.561   3.489   2.793 -3.4688 -1.7968 -0.5493
   71MOL   H20135341   7.526   3.498   2.616 -0.0928 -0.3581  0.5210
   71MOL   C20235342   0.558   4.002   2.665  0.5473  0.3219 -0.7203
   71MOL   C20335343   0.645   4.105   2.588 -0.7176 -0.7759  0.1935
   71MOL   O20435344   0.698   4.193   2.685 -0.3461 -0.0258  0.0767
   71MOL   C20535345   0.838   4.234   2.669 -0.3332  0.6378  0.0327
   71MOL   C20635346   0.877   4.325   2.782 -0.5740  0.0347 -0.0719
   71MOL   C20735347   0.788   4.446   2.794 -0.3890  0.7951 -0.0048
   71MOL   C20835348   0.799   4.514   2.930  0.0514 -0.3722  0.4696
   71MOL   C20935349   0.712   4.633   2.946 -0.3083  0.0518 -0.4129
   71MOL   C21035350   0.696   4.699   3.086  0.2024  0.2598  0.1127
   71MOL   H21135351   0.464   4.055   2.674  1.8351  2.5845 -0.1119
   71MOL   H21235352   0.587   3.976   2.768  1.4465  0.9059 -0.8172
   71MOL   H21335353   0.719   4.056   2.525 -0.2124 -2.5461  2.0738
   71MOL   H21435354   0.866   4.279   2.573  1.3004  1.5271  0.9070
   71MOL   H21535355   0.902   4.146   2.680 -0.8896  0.3595  1.1416
   71MOL   H21635356   0.978   4.367   2.783 -0.1679 -0.8377 -1.7527
   71MOL   H21735357   0.862   4.263   2.871 -1.6556 -0.4847 -0.6108
   71MOL   H21835358   0.816   4.518   2.717  0.1784  0.9722  0.3591
   71MOL   H21935359   0.686   4.413   2.775 -0.4388  1.0975 -0.2776
   71MOL   H22035360   0.763   4.440   3.001 -2.1236 -0.3583 -0.5742
   71MOL   H22135361   0.897   4.555   2.955 -0.8675  1.8179  0.5730
   71MOL   H22235362   0.752   4.714   2.884  1.8251 -0.1957  0.6052
   71MOL   H22335363   0.610   4.616   2.914 -0.6529 -2.4539  1.9023
   71MOL   H22435364   0.677   4.626   3.165 -1.4680 -0.2060 -0.7002
   71MOL   H22535365   0.791   4.751   3.098  1.2251 -1.6489  0.5818
   71MOL   H22635366   0.626   4.782   3.089  0.2215  0.2617  0.4537
   71MOL   C22735367   0.558   4.200   2.497  0.4226  0.7274 -0.4660
   71MOL   C22835368   0.472   4.129   2.389  0.3762  0.5396 -0.2393
   71MOL   O22935369   0.379   4.225   2.344  0.3240  0.6958  0.5404
   71MOL   C23035370   0.262   4.247   2.416  0.5932 -0.0283  0.1547
   71MOL   C23135371   0.148   4.152   2.384 -0.1538 -0.4279  0.4022
   71MOL   C23235372   0.020   4.180   2.464  0.2334  0.6065  0.5902
   71MOL   C23335373   7.675   4.096   2.424  0.4581 -0.4171  0.1529
   71MOL   C23435374   7.542   4.128   2.502  0.4648  0.0740 -0.0056
   71MOL   C23535375   7.562   4.118   2.653 -0.0138  0.2073 -0.8893
   71MOL   H23635376   0.498   4.246   2.576  0.4710  2.3141 -1.3218
   71MOL   H23735377   0.630   4.270   2.454  1.1689  1.6896  2.2041
   71MOL   H23835378   0.417   4.043   2.426  0.7722  0.1198 -0.6172
   71MOL   H23935379   0.234   4.346   2.381 -0.1836 -0.8591 -1.6327
   71MOL   H24035380   0.276   4.253   2.524  2.3027 -2.4347  0.1133
   71MOL   H24135381   0.180   4.054   2.418  0.2125 -1.0534 -1.6803
   71MOL   H24235382   0.135   4.151   2.275  2.5591  0.5702  0.0058
   71MOL   H24335383   0.042   4.173   2.571  1.4095  1.8239  0.4448
   71MOL   H24435384   7.763   4.282   2.451  0.9517  0.7481 -0.2201
   71MOL   H24535385   7.658   4.133   2.323 -0.8975  1.8977  1.1731
   71MOL   H24635386   7.689   3.988   2.418  1.0849 -0.2480 -1.6895
   71MOL   H24735387   7.511   4.227   2.470 -1.7863 -1.0711 -1.5109
   71MOL   H24835388   7.470   4.059   2.460 -0.2531 -0.4967  2.1026
   71MOL   H24935389   7.470   4.129   2.710 -0.2540  0.6732 -1.3576
   71MOL   H25035390   7.610   4.026   2.685  0.6945  0.3965 -1.3997
   71MOL   H25135391   7.632   4.199   2.676 -0.8889  0.7135  0.0352
   71MOL   C25235392   0.546   4.070   2.268  0.1014  0.4396 -0.1259
   71MOL   C25335393   0.459   3.991   2.167  0.1177  0.1577 -0.1505
   71MOL   O25435394   0.441   3.863   2.224  0.3914 -0.4667  0.1196
   71MOL   C25535395   0.317   3.808   2.188 -0.3995 -0.0405 -0.2341
   71MOL   C25635396   0.339   3.662   2.219 -0.7130  0.6336 -0.2701
   71MOL   C25735397   0.329   3.624   2.364 -0.1260  0.0532 -0.0126
   71MOL   C25835398   0.315   3.475   2.379  0.5938 -0.5562 -0.1397
   71MOL   C25935399   0.324   3.416   2.520  0.0794 -0.6070 -0.2051
   71MOL   C26035400   0.319   3.267   2.510 -0.3353  0.7941  0.9688
   71MOL   H26135401   0.600   4.151   2.218  2.3930  0.4694  2.3023
   71MOL   H26235402   0.620   4.004   2.314 -0.5163  0.0709  0.3371
   71MOL   H26335403   0.361   4.039   2.171  0.3864  0.5519  2.4249
   71MOL   H26435404   0.296   3.815   2.081 -2.6797 -0.0568  0.2071
   71MOL   H26535405   0.239   3.843   2.255  0.2900  2.9593 -0.9516
   71MOL   H26635406   0.425   3.623   2.166  0.7118  1.2814  1.5107
   71MOL   H26735407   0.249   3.610   2.187 -1.0575  1.2517 -0.3181
   71MOL   H26835408   0.414   3.657   2.423 -2.4044  1.4108  2.6570
   71MOL   H26935409   0.244   3.675   2.410  0.3781  2.0590 -1.2094
   71MOL   H27035410   0.223   3.452   2.327 -0.3872 -0.6808  1.6047
   71MOL   H27135411   0.394   3.430   2.319 -0.8553 -0.6847 -1.9749
   71MOL   H27235412   0.415   3.460   2.559  0.4258 -1.1756 -0.3682
   71MOL   H27335413   0.238   3.457   2.574 -0.3226 -0.3802 -1.0062
   71MOL   H27435414   0.271   3.244   2.416  0.0183  0.3281  0.9009
   71MOL   H27535415   0.416   3.225   2.485 -1.3882 -0.4486 -1.0775
   71MOL   H27635416   0.261   3.225   2.593 -1.7591  1.3138  0.2522
   71MOL   C27735417   0.510   3.979   2.019  0.0363 -0.0891 -0.6764
   71MOL   C27835418   0.511   4.109   1.937 -0.1954  0.0353  0.0761
   71MOL   O27935419   0.578   4.105   1.814 -0.2817  0.3524 -0.1661
   71MOL   C28035420   0.716   4.128   1.813 -0.3200  0.1182 -0.2368
   71MOL   C28135421   0.778   4.107   1.671  0.2947 -0.1646 -0.3060
   71MOL   C28235422   0.922   4.145   1.643 -0.1633  0.5135 -0.1218
   71MOL   C28335423   0.955   4.149   1.494  0.0757  0.1467 -0.2014
   71MOL   C28435424   1.099   4.174   1.466 -0.1002  0.7578  0.2880
   71MOL   C28535425   1.122   4.208   1.317 -0.1676 -0.1956  0.4193
   71MOL   H28635426   0.614   3.947   2.024  0.6253  1.5487 -2.0140
   71MOL   H28735427   0.461   3.890   1.980 -1.3456  0.8285 -1.0503
   71MOL   H28835428   0.538   4.193   2.001 -0.4746  0.8297 -0.8166
   71MOL   H28935429   0.766   4.064   1.886 -0.0852 -1.0070 -1.3711
   71MOL   H29035430   0.738   4.230   1.843 -0.7658 -0.2598  1.4061
   71MOL   H29135431   0.709   4.158   1.603  0.3821  0.5996  0.1759
   71MOL   H29235432   0.781   3.999   1.662 -2.1194 -0.3907  1.2614
   71MOL   H29335433   0.946   4.246   1.678  1.2255  0.0670  0.2477
   71MOL   H29435434   0.984   4.074   1.698 -1.8144 -0.0458  1.0743
   71MOL   H29535435   0.926   4.048   1.465 -1.0303  0.9304 -1.8844
   71MOL   H29635436   0.885   4.223   1.457  0.1083  0.0417 -0.4764
   71MOL   H29735437   1.154   4.246   1.527  0.7502 -1.0519  1.7217
   71MOL   H29835438   1.152   4.081   1.487 -1.5006 -0.1322 -0.1133
   71MOL   H29935439   1.089   4.307   1.287  2.6605  0.7377  0.2323
   71MOL   H30035440   1.226   4.216   1.288  0.2555 -1.0837  1.6544
   71MOL   H30135441   1.086   4.129   1.251  0.3473  0.2289 -0.3808
   71MOL   C30235442   0.364   4.131   1.897  0.5952 -0.1537  0.1625
   71MOL   C30335443   0.329   4.276   1.859  0.5171  0.3658  0.0938
   71MOL   O30435444   0.192   4.298   1.880 -0.0898  0.1405 -0.8839
   71MOL   C30535445   0.170   4.399   1.978 -0.2816  0.0238  0.8839
   71MOL   C30635446   0.032   4.450   1.997 -0.1688  0.2404  0.4268
   71MOL   C30735447   0.015   4.560   2.113 -0.4633  0.1893  0.4420
   71MOL   C30835448   0.044   4.514   2.254 -0.0416 -0.1323  0.3589
   71MOL   C30935449   7.761   4.592   2.369 -0.3942  0.2406  0.1890
   71MOL   C31035450   7.609   4.609   2.347 -0.2325 -0.4663  0.2722
   71MOL   H31135451   0.341   4.046   1.833  3.1308  0.1252 -1.1877
   71MOL   H31235452   0.303   4.114   1.986 -0.0829  0.9000 -0.0954
   71MOL   H31335453   0.396   4.339   1.918  0.9562  1.0942 -1.1775
   71MOL   H31435454   0.231   4.487   1.953 -2.4046  0.8643 -1.4809
   71MOL   H31535455   0.211   4.362   2.072  1.8224  2.1620  0.8577
   71MOL   H31635456   7.745   4.368   2.027  0.0371  0.1099  0.5229
   71MOL   H31735457   0.014   4.489   1.897  0.0962 -2.1117 -0.5690
   71MOL   H31835458   0.074   4.647   2.084  0.7249 -0.8129 -0.2015
   71MOL   H31935459   7.689   4.589   2.100 -0.4131  0.4079  0.5339
   71MOL   H32035460   0.006   4.412   2.261 -2.3692  0.7743  1.4701
   71MOL   H32135461   0.153   4.510   2.259 -0.0911 -1.7172  0.5195
   71MOL   H32235462   0.011   4.541   2.461 -0.0885 -0.1199 -0.1065
   71MOL   H32335463   0.032   4.689   2.378 -2.0216  1.0657  0.5259
   71MOL   H32435464   7.577   4.672   2.430  1.1512  1.1511 -0.3998
   71MOL   H32535465   7.582   4.669   2.261  0.0992  1.0680  1.2246
   71MOL   H32635466   7.563   4.510   2.345  0.6354 -0.9033  1.3790
   71MOL   C32735467   0.347   4.316   1.716  0.6791 -0.1558  0.0820
   71MOL   C32835468   0.353   4.462   1.687  0.5702 -0.3287 -0.3987
   71MOL   O32935469   0.442   4.495   1.582  0.3552 -0.0283 -0.1405
   71MOL   C33035470   0.583   4.510   1.612  0.5818 -0.8017 -0.7484
   71MOL   C33135471   0.628   4.590   1.487 -0.6903 -0.1113 -0.3650
   71MOL   C33235472   0.643   4.747   1.507  0.9177  0.5547 -0.8108
   71MOL   C33335473   0.696   4.807   1.369 -0.3478 -0.6417  0.3313
   71MOL   C33435474   0.692   4.961   1.371 -0.4529  0.3833 -0.6711
   71MOL   C33535475   0.772   5.024   1.258  0.0663  0.7518  0.0897
   71MOL   H33635476   0.267   4.271   1.656 -0.1280  2.5805 -0.9896
   71MOL   H33735477   0.432   4.262   1.674 -1.0530 -2.7983 -0.1576
   71MOL   H33835478   0.374   4.519   1.777  2.1320 -0.8740 -0.4036
   71MOL   H33935479   0.631   4.415   1.633 -1.2402 -1.1478  2.1609
   71MOL   H34035480   0.592   4.564   1.706  0.4707 -0.5775 -0.8657
   71MOL   H34135481   0.573   4.574   1.395 -1.9481 -0.8629  0.4934
   71MOL   H34235482   0.732   4.559   1.480 -0.0988  1.8306 -0.4241
   71MOL   H34335483   0.546   4.790   1.533  1.5776  0.2548  2.3424
   71MOL   H34435484   0.711   4.763   1.590 -1.0624  1.7932  0.6212
   71MOL   H34535485   0.798   4.776   1.344  0.5757  2.5947 -0.0616
   71MOL   H34635486   0.631   4.779   1.286 -0.9980  3.0875 -0.4877
   71MOL   H34735487   0.592   5.003   1.376 -0.7467 -0.1953 -1.5244
   71MOL   H34835488   0.740   4.990   1.465 -0.1157 -0.1793 -0.6652
   71MOL   H34935489   0.870   4.976   1.250  0.3128  1.3478 -0.6109
   71MOL   H35035490   0.719   4.992   1.168  0.3363  0.0424  0.1801
   71MOL   H35135491   0.786   5.132   1.268 -1.1137  0.6768  2.8413
   71MOL   C35235492   0.218   4.527   1.631  0.3226 -1.0255  0.6348
   71MOL   C35335493   0.221   4.679   1.602 -0.4914  0.6609 -0.2235
   71MOL   O35435494   0.218   4.748   1.726 -0.0972 -0.4390  0.1666
   71MOL   C35535495   0.296   4.873   1.725  0.8766  0.3318  0.0655
   71MOL   C35635496   0.226   4.973   1.820  0.1281 -0.4299  0.6048
   71MOL   C35735497   0.212   4.922   1.962 -0.4769 -0.4162  0.5011
   71MOL   C35835498   0.114   5.010   2.052  0.2057  0.6430  0.2182
   71MOL   C35935499   0.057   4.943   2.184 -0.5861 -0.7518 -0.1308
   71MOL   C36035500   7.736   5.040   2.246  0.0288 -0.4003 -0.3297
   71MOL   H36135501   0.204   4.475   1.537  1.1698  0.4440 -0.3253
   71MOL   H36235502   0.130   4.512   1.693 -0.5454 -0.1280 -0.3845
   71MOL   H36335503   0.310   4.702   1.543  0.1978 -0.1265  0.4852
   71MOL   H36435504   0.303   4.917   1.625  1.2125  0.1151 -0.0046
   71MOL   H36535505   0.397   4.864   1.763  1.3138  2.2140 -0.5486
   71MOL   H36635506   0.131   4.990   1.769  2.1119 -0.0337 -3.1646
   71MOL   H36735507   0.280   5.068   1.814  0.2641 -0.6606 -2.5962
   71MOL   H36835508   0.174   4.819   1.961 -1.2872 -0.1140 -0.9502
   71MOL   H36935509   0.306   4.913   2.015 -0.1495 -0.2959 -0.0603
   71MOL   H37035510   0.147   5.113   2.064  1.9190  0.3863 -2.0020
   71MOL   H37135511   0.024   5.021   1.991 -0.2611 -0.9864  0.5955
   71MOL   H37235512   0.019   4.841   2.178 -1.3425 -0.3455 -2.7282
   71MOL   H37335513   0.139   4.935   2.256 -0.1914  0.7177 -0.3990
   71MOL   H37435514   7.711   5.014   2.349 -0.6066  1.2850 -0.0501
   71MOL   H37535515   7.772   5.142   2.243 -1.3232  0.0959 -0.2826
   71MOL   H37635516   7.649   5.023   2.182 -0.6743  0.9390  0.2526
   71MOL   C37735517   0.110   4.734   1.513 -0.4621  0.1030 -0.2258
   71MOL   C37835518   7.740   4.708   1.555 -0.5675  1.1862  0.3243
   71MOL   O37935519   7.651   4.735   1.456  0.3974  0.3156 -0.2845
   71MOL   C38035520   7.601   4.626   1.384 -0.4628 -0.4863  1.3102
   71MOL   C38135521   7.509   4.666   1.270  0.7278 -0.2986  0.1424
   71MOL   C38235522   7.404   4.771   1.314 -0.3996  0.5432 -0.5370
   71MOL   C38335523   7.307   4.799   1.202 -0.0953  0.1240 -0.2225
   71MOL   C38435524   7.209   4.684   1.197  0.0839  0.1281  0.0701
   71MOL   C38535525   7.139   4.670   1.064  0.5792  0.2663  0.3175
   71MOL   H38635526   0.128   4.841   1.500 -1.7453  0.3298 -0.2098
   71MOL   H38735527   0.114   4.709   1.407 -0.2234 -0.7011 -0.0242
   71MOL   H38835528   7.734   4.603   1.584  0.3542  0.7687 -0.9737
   71MOL   H38935529   7.552   4.549   1.444 -0.4347 -1.2746  0.3386
   71MOL   H39035530   7.694   4.585   1.344 -1.5033 -0.7712 -0.8894
   71MOL   H39135531   7.470   4.585   1.210  0.2951  0.8951 -1.2064
   71MOL   H39235532   7.582   4.715   1.205  1.1402 -1.3421 -0.1843
   71MOL   H39335533   7.347   4.727   1.396  0.8927  1.3694  0.8277
   71MOL   H39435534   7.445   4.863   1.354 -1.3230  0.6899  0.0839
   71MOL   H39535535   7.250   4.888   1.227 -1.0202 -0.4859 -0.1433
   71MOL   H39635536   7.363   4.810   1.109  2.5600  0.1968  1.3416
   71MOL   H39735537   7.255   4.587   1.216  0.3095  0.1800 -0.1987
   71MOL   H39835538   7.136   4.696   1.277 -0.3936  0.6266 -0.4293
   71MOL   H39935539   7.064   4.592   1.074 -0.2257  0.8273 -1.1865
   71MOL   H40035540   7.105   4.771   1.041 -1.4823 -0.8967 -1.9867
   71MOL   H40135541   7.200   4.636   0.980 -1.0421  0.3922 -0.9330
   71MOL   C40235542   7.695   4.795   1.669 -0.4838  0.6305 -0.3405
   71MOL   C40335543   7.550   4.772   1.718  0.3400  0.0611 -0.3384
   71MOL   O40435544   7.497   4.895   1.768  0.1496  0.0344 -0.4398
   71MOL   C40535545   7.431   4.984   1.676 -0.4311 -0.0538 -0.4308
   71MOL   C40635546   7.397   5.099   1.767 -0.8301  0.5099  0.4948
   71MOL   C40735547   7.520   5.165   1.818 -0.4777  0.0344 -0.8972
   71MOL   C40835548   7.495   5.253   1.939 -0.2374  0.1990 -0.2036
   71MOL   C40935549   7.448   5.392   1.921 -0.1730  0.4961  0.0222
   71MOL   C41035550   7.411   5.467   2.047 -0.2251 -0.3185 -0.1523
   71MOL   H41135551   7.709   4.896   1.630 -1.8290  0.7720 -0.4691
   71MOL   H41235552   7.760   4.780   1.755 -1.9418  2.6517  1.1714
   71MOL   H41335553   7.496   4.734   1.631  0.6863  0.4709 -0.7285
   71MOL   H41435554   7.342   4.930   1.646 -1.3952  0.1714  1.9072
   71MOL   H41535555   7.487   5.010   1.586  0.2105  0.9862  0.2569
   71MOL   H41635556   7.334   5.075   1.853  0.3968 -0.6712  1.0771
   71MOL   H41735557   7.335   5.164   1.704 -1.2642  0.5105  0.9142
   71MOL   H41835558   7.595   5.100   1.863  0.5021  1.4156 -0.4923
   71MOL   H41935559   7.575   5.222   1.743 -1.3276  1.4339 -0.4779
   71MOL   H42035560   7.437   5.201   2.016  1.1879  0.7248  1.2610
   71MOL   H42135561   7.593   5.259   1.987  1.0917 -0.8189 -2.7260
   71MOL   H42235562   7.524   5.452   1.871 -0.3555  0.8367  0.1534
   71MOL   H42335563   7.358   5.397   1.859  0.8298 -1.0636 -1.6171
   71MOL   H42435564   7.499   5.464   2.112 -1.5997  1.1124  1.8380
   71MOL   H42535565   7.396   5.568   2.007 -4.0552 -0.8447 -0.1418
   71MOL   H42635566   7.329   5.428   2.106  0.1564  0.3221  0.8076
   71MOL   C42735567   7.556   4.652   1.818  0.0264 -0.1838  0.0398
   71MOL   C42835568   7.423   4.607   1.876  0.1113 -0.4302 -0.2411
   71MOL   O42935569   7.443   4.475   1.929  0.7583 -0.1224 -0.0129
   71MOL   C43035570   7.367   4.367   1.875  0.3267  0.1263  0.1929
   71MOL   C43135571   7.399   4.232   1.946  0.0860 -0.6707  0.0250
   71MOL   C43235572   7.383   4.240   2.102 -0.4235 -0.4016 -0.2351
   71MOL   C43335573   7.244   4.227   2.149 -0.2556  0.0488 -0.0905
   71MOL   C43435574   7.224   4.285   2.288  0.0416  0.1659 -0.0920
   71MOL   C43535575   7.075   4.286   2.337 -0.2529  0.0306  0.3650
   71MOL   H43635576   7.578   4.561   1.761  0.4881  0.9473 -1.6419
   71MOL   H43735577   7.631   4.652   1.896  1.6508  1.8826 -1.4813
   71MOL   H43835578   7.346   4.595   1.800  0.1725 -2.8900  0.0373
   71MOL   H43935579   7.372   4.357   1.766  0.2647  1.0697  0.1041
   71MOL   H44035580   7.265   4.404   1.891  1.1316  2.0917  0.8577
   71MOL   H44135581   7.501   4.204   1.918  0.4571  1.3983 -0.7577
   71MOL   H44235582   7.349   4.146   1.900 -0.5920 -0.4465  0.3443
   71MOL   H44335583   7.442   4.158   2.143 -0.0517 -1.8522 -3.4747
   71MOL   H44435584   7.439   4.329   2.133  0.1331 -1.0630  0.6958
   71MOL   H44535585   7.178   4.288   2.087  1.7069  2.6444  0.2836
   71MOL   H44635586   7.226   4.120   2.136  0.7511  0.0134 -1.3768
   71MOL   H44735587   7.286   4.242   2.367 -1.0959 -0.4686  0.4670
   71MOL   H44835588   7.252   4.390   2.277 -1.6348  0.4379 -2.0870
   71MOL   H44935589   7.055   4.337   2.432  0.4910  0.5133  0.2605
   71MOL   H45035590   7.028   4.348   2.261 -1.2108 -0.0697  0.8617
   71MOL   H45135591   7.017   4.193   2.332 -0.8899  0.5218 -2.0173
   71MOL   C45235592   7.391   4.704   1.987  0.0221  0.6370 -0.3538
   71MOL   C45335593   7.248   4.679   2.040  0.0275 -0.1366  0.9242
   71MOL   O45435594   7.157   4.717   1.939 -0.2259 -0.0855  0.0311
   71MOL   C45535595   7.021   4.680   1.949  0.7413 -0.2711 -0.2516
   71MOL   C45635596   6.928   4.750   1.851  0.2591  0.4047 -0.0974
   71MOL   C45735597   6.793   4.681   1.849  0.3978 -0.2064 -0.2195
   71MOL   C45835598   6.688   4.746   1.768  0.0838 -0.6611 -0.4272
   71MOL   C45935599   6.543   4.689   1.764  0.3319  0.3756  0.1504
   71MOL   C46035600   6.440   4.765   1.682  0.9150 -0.4033 -0.6136
   71MOL   H46135601   7.466   4.696   2.065 -0.0686 -0.6182 -0.3772
   71MOL   H46235602   7.399   4.809   1.958  0.9170  0.8794  0.7738
   71MOL   H46335603   7.214   4.578   2.064 -1.2669  0.3079  1.0431
   71MOL   H46435604   6.979   4.700   2.048 -0.7076 -1.1032 -0.6780
   71MOL   H46535605   7.030   4.572   1.937 -2.3378 -0.2385 -3.6518
   71MOL   H46635606   6.975   4.736   1.753  1.2276 -1.8271  0.6487
   71MOL   H46735607   6.920   4.856   1.871 -2.5299  0.6759 -2.3469
   71MOL   H46835608   6.799   4.577   1.817 -0.0386 -0.8268  1.6311
   71MOL   H46935609   6.748   4.676   1.949  0.6507  0.0570 -0.0921
   71MOL   H47035610   6.691   4.851   1.797 -0.0353  0.1273 -3.1145
   71MOL   H47135611   6.721   4.740   1.664  1.1693  1.0674 -0.1833
   71MOL   H47235612   6.547   4.585   1.731 -1.7708  0.5247 -0.6601
   71MOL   H47335613   6.509   4.679   1.867 -1.0118  0.6278 -0.2584
   71MOL   H47435614   6.462   4.765   1.575 -3.0097  0.5365 -1.5052
   71MOL   H47535615   6.346   4.711   1.688  0.8186 -0.5098 -2.8782
   71MOL   H47635616   6.436   4.870   1.708 -0.1832  0.0847 -2.6646
   71MOL   C47735617   7.221   4.766   2.168  0.5736  0.2744 -0.0390
   71MOL   C47835618   7.200   4.908   2.133 -0.1228  0.2211 -0.3235
   71MOL   O47935619   7.184   4.975   2.256 -0.4250  0.6370  0.1304
   71MOL   C48035620   7.296   5.059   2.280  0.6987  0.5524  0.0738
   71MOL   C48135621   7.263   5.145   2.400 -0.1891  1.0809  0.8695
   71MOL   C48235622   7.155   5.254   2.370 -0.1997 -0.1661 -0.1475
   71MOL   C48335623   7.100   5.319   2.504 -0.2560  0.0792  0.1198
   71MOL   C48435624   7.193   5.415   2.574  0.4331  0.0762 -0.4567
   71MOL   C48535625   7.118   5.477   2.692  0.1157  0.7886 -0.1773
   71MOL   H48635626   7.133   4.724   2.215 -0.3130  2.2072  0.1074
   71MOL   H48735627   7.303   4.755   2.239 -0.6445 -0.5685  1.2467
   71MOL   H48835628   7.266   4.954   2.059 -0.2486  0.4842 -0.2711
   71MOL   H48935629   7.304   5.129   2.197  0.5753  0.6138  0.1138
   71MOL   H49035630   7.384   4.997   2.293  1.1090  0.7606 -1.5859
   71MOL   H49135631   7.354   5.193   2.436  0.4456 -0.1152  0.9001
   71MOL   H49235632   7.231   5.084   2.485 -0.0487 -0.2680 -0.0265
   71MOL   H49335633   7.188   5.334   2.304 -4.8263  1.7664 -0.2842
   71MOL   H49435634   7.073   5.201   2.322 -1.2600  2.1801 -0.9842
   71MOL   H49535635   7.010   5.373   2.475 -0.7036 -0.5704  0.2900
   71MOL   H49635636   7.061   5.244   2.574 -1.0333  0.3067 -0.0612
   71MOL   H49735637   7.287   5.361   2.589  0.4597  0.5360  1.0969
   71MOL   H49835638   7.231   5.491   2.507 -1.5648  0.5843 -1.0232
   71MOL   H49935639   7.089   5.398   2.762  2.7069 -1.4171 -1.5155
   71MOL   H50035640   7.192   5.538   2.745 -0.6638 -0.2060  2.1067
   71MOL   H50135641   7.040   5.542   2.653 -0.1388 -0.1293 -1.2080
   71MOL   H50235642   7.105   4.929   2.082  1.6703  0.1641 -3.8721
   72MOL     C135643   3.612   1.741   4.703 -0.0165 -0.0365 -0.2183
   72MOL     C235644   3.516   1.712   4.820  0.0553 -0.2529  0.2618
   72MOL     O335645   3.558   1.588   4.865  0.3226  0.1675 -0.2807
   72MOL     C435646   3.535   1.569   5.003  0.0377 -0.3921  0.3149
   72MOL     C535647   3.579   1.434   5.049  0.6632  0.0962 -0.4428
   72MOL     C635648   3.592   1.413   5.202 -0.6020  1.4443  0.7541
   72MOL     C735649   3.464   1.433   5.288 -0.5180  0.4708  0.3542
   72MOL     C835650   3.504   1.436   5.442  0.0829  0.2043 -0.3394
   72MOL     C935651   3.396   1.482   5.537  0.0411  0.0688 -0.4586
   72MOL    H1035652   3.586   1.676   4.619 -0.3972 -0.2626  0.0722
   72MOL    H1135653   3.619   1.844   4.669  2.8352 -0.6142 -1.4883
   72MOL    H1235654   3.532   1.793   4.891 -2.4019 -0.6545  1.3269
   72MOL    H1335655   3.426   1.568   5.017 -0.0442  0.1403 -0.2313
   72MOL    H1435656   3.577   1.651   5.062  1.6066 -1.3503  0.5419
   72MOL    H1535657   3.671   1.408   4.998 -0.4793 -2.4683 -1.2497
   72MOL    H1635658   3.499   1.366   5.019 -0.3679  0.7699  0.7161
   72MOL    H1735659   3.634   1.315   5.223 -0.0828  0.6362 -3.4960
   72MOL    H1835660   3.657   1.492   5.240  2.0052 -0.7130  0.9043
   72MOL    H1935661   3.407   1.521   5.261  0.0446  0.2834 -1.5499
   72MOL    H2035662   3.403   1.346   5.263  0.0218  0.3393 -0.5607
   72MOL    H2135663   3.593   1.498   5.454 -0.1861  0.6883 -0.8197
   72MOL    H2235664   3.533   1.337   5.476  0.5549  0.2228 -0.6779
   72MOL    H2335665   3.316   1.408   5.546  0.8146 -0.7725 -0.3984
   72MOL    H2435666   3.435   1.505   5.636 -0.5234  0.3497 -0.3008
   72MOL    H2535667   3.350   1.575   5.503 -0.6442 -1.3558 -3.6028
   72MOL    H2635668   3.714   1.711   4.725  0.0591  1.1621  1.1257
   72MOL    C2735669   3.374   1.695   4.764 -0.2566  0.4279 -0.6273
   72MOL    C2835670   3.323   1.837   4.713 -0.5863  0.7056 -0.1993
   72MOL    O2935671   3.213   1.807   4.636 -0.0176 -0.3026  0.0398
   72MOL    C3035672   3.204   1.866   4.503 -0.1556 -0.0767 -0.9051
   72MOL    C3135673   3.068   1.824   4.453 -0.0411  0.0616 -0.1095
   72MOL    C3235674   3.037   1.858   4.309  0.2910 -0.0008 -0.4608
   72MOL    C3335675   2.921   1.775   4.259  0.4379  0.1847 -0.8241
   72MOL    C3435676   2.966   1.633   4.205 -0.8159  0.0823 -0.4171
   72MOL    C3535677   2.985   1.627   4.052  0.0609 -0.6619 -0.2662
   72MOL    H3635678   3.373   1.632   4.675  0.2967  3.0274 -2.5196
   72MOL    H3735679   3.310   1.659   4.844  1.2780  0.3572  0.5907
   72MOL    H3835680   3.405   1.877   4.655 -0.0586  0.2531  0.2263
   72MOL    H3935681   3.284   1.837   4.435  0.4801  3.0862 -1.5795
   72MOL    H4035682   3.209   1.975   4.504  1.4400 -0.1614  0.1407
   72MOL    H4135683   2.990   1.876   4.509  0.7646  3.3067 -1.8395
   72MOL    H4235684   3.060   1.716   4.460 -2.0421  0.1971  0.0778
   72MOL    H4335685   2.997   1.958   4.292 -0.6147 -0.1726  0.5646
   72MOL    H4435686   3.119   1.840   4.239  0.1127  3.8956 -1.7918
   72MOL    H4535687   2.850   1.749   4.337  1.0013  0.8078 -0.1013
   72MOL    H4635688   2.862   1.819   4.178  0.9852  2.2285 -0.1500
   72MOL    H4735689   3.058   1.595   4.250 -0.3989 -0.6100 -1.8274
   72MOL    H4835690   2.886   1.565   4.232  0.3250 -1.2002 -0.2437
   72MOL    H4935691   3.042   1.713   4.015  0.3801 -0.7164  0.0981
   72MOL    H5035692   3.042   1.536   4.035  0.7096 -0.4818  0.9251
   72MOL    H5135693   2.888   1.621   4.002 -1.0441 -3.1316  2.0703
   72MOL    C5235694   3.297   1.927   4.829  0.5940 -0.6383 -0.3339
   72MOL    C5335695   3.215   2.059   4.802 -0.1396 -0.1101  0.6052
   72MOL    O5435696   3.127   2.088   4.911 -0.2852  0.4320 -0.5531
   72MOL    C5535697   3.007   2.014   4.923  0.2303 -0.0550 -0.2833
   72MOL    C5635698   2.948   2.041   5.064 -0.0269 -0.0919  0.6638
   72MOL    C5735699   2.958   2.192   5.104 -0.7511  0.6080  0.6438
   72MOL    C5835700   2.878   2.225   5.235 -0.0129  0.0813  0.3245
   72MOL    C5935701   2.725   2.227   5.204 -0.1537 -1.0236  0.0125
   72MOL    C6035702   2.647   2.267   5.327 -0.2622  0.2204  0.1434
   72MOL    H6135703   3.390   1.943   4.883  0.7350 -0.4182 -0.6372
   72MOL    H6235704   3.241   1.860   4.894  0.8281 -1.9786 -1.4876
   72MOL    H6335705   3.158   2.039   4.711  0.8713  0.6774 -0.2080
   72MOL    H6435706   3.026   1.911   4.896 -0.1052 -0.2805  0.3386
   72MOL    H6535707   2.930   2.050   4.855 -0.7522 -0.7339  0.4649
   72MOL    H6635708   3.001   1.984   5.140  0.1565  2.4605  2.5270
   72MOL    H6735709   2.846   2.002   5.062 -0.0187 -0.0435 -1.7182
   72MOL    H6835710   3.063   2.220   5.110 -0.7335  0.6989 -0.1201
   72MOL    H6935711   2.911   2.251   5.026 -0.0657 -1.8299 -1.7075
   72MOL    H7035712   2.905   2.148   5.307  1.6146  1.3476  1.1234
   72MOL    H7135713   2.923   2.306   5.292  1.6073 -1.0622  0.7205
   72MOL    H7235714   2.697   2.285   5.115  1.4747  1.8345  1.2884
   72MOL    H7335715   2.692   2.126   5.182 -0.1497 -1.1872  0.7676
   72MOL    H7435716   2.658   2.178   5.388  2.5897 -0.0452 -0.6642
   72MOL    H7535717   2.698   2.349   5.378  0.1372 -0.0404  0.1651
   72MOL    H7635718   2.548   2.299   5.296 -0.6884 -0.7697  0.4843
   72MOL    C7735719   3.301   2.182   4.782  0.0594 -0.2080 -0.0493
   72MOL    C7835720   3.233   2.297   4.716  0.1492 -0.5381  0.4682
   72MOL    O7935721   3.217   2.254   4.580  0.1585  0.0969 -0.1378
   72MOL    C8035722   3.121   2.333   4.509 -0.1223 -0.1919 -0.1899
   72MOL    C8135723   3.055   2.236   4.406 -0.8560 -0.3177  0.1473
   72MOL    C8235724   2.970   2.305   4.297  0.4922 -0.6566 -0.5651
   72MOL    C8335725   2.907   2.199   4.207 -0.1121  0.8437 -0.0014
   72MOL    C8435726   2.827   2.266   4.089  0.0331 -0.1820  0.3147
   72MOL    C8535727   2.766   2.172   3.994  0.1108  0.0234  0.1426
   72MOL    H8635728   3.394   2.158   4.730  1.8466  2.7782  1.6371
   72MOL    H8735729   3.330   2.218   4.881  1.2167 -3.0995  0.7329
   72MOL    H8835730   3.131   2.295   4.756 -0.5187  1.0295 -1.0904
   72MOL    H8935731   3.167   2.417   4.458 -2.1999 -0.6863 -3.0372
   72MOL    H9035732   3.041   2.366   4.576 -0.6711  1.8692 -1.7982
   72MOL    H9135733   3.001   2.155   4.455 -0.5260 -1.3725 -1.2255
   72MOL    H9235734   3.132   2.183   4.351 -0.1170  0.8478  0.0220
   72MOL    H9335735   2.884   2.359   4.338 -0.0519 -1.2249 -0.9526
   72MOL    H9435736   3.023   2.371   4.229  1.5023 -1.4085 -0.5309
   72MOL    H9535737   2.982   2.137   4.159 -0.9231  1.2113 -1.7633
   72MOL    H9635738   2.845   2.126   4.259  2.5704 -0.0997  1.9636
   72MOL    H9735739   2.745   2.325   4.130 -1.2464 -0.9835 -0.9992
   72MOL    H9835740   2.894   2.323   4.026  0.1008 -0.9308 -0.3063
   72MOL    H9935741   2.663   2.145   4.016  0.0769  0.6469  0.7863
   72MOL   H10035742   2.780   2.189   3.887  1.6211  2.9213  0.7586
   72MOL   H10135743   2.817   2.076   4.005  0.2573 -0.0966 -1.4508
   72MOL   C10235744   3.288   2.441   4.738  0.2010 -1.0242  0.2534
   72MOL   C10335745   3.300   2.487   4.886  0.3822  0.1789 -0.1972
   72MOL   O10435746   3.437   2.495   4.911  0.3448  0.1387  0.7904
   72MOL   C10535747   3.464   2.498   5.053  0.2768 -0.2843  0.7055
   72MOL   C10635748   3.619   2.537   5.066 -0.1548  0.3084 -0.0318
   72MOL   C10735749   3.663   2.573   5.205  0.7161  0.7838  0.0224
   72MOL   C10835750   3.669   2.461   5.304 -0.0634  0.2536 -0.6269
   72MOL   C10935751   3.721   2.506   5.439 -0.2159 -0.0441 -0.5300
   72MOL   C11035752   3.714   2.391   5.550 -0.2433 -0.3912 -0.1288
   72MOL   H11135753   3.385   2.450   4.690  0.3266  0.5282  0.7509
   72MOL   H11235754   3.221   2.508   4.684  0.7451 -0.7441 -0.0699
   72MOL   H11335755   3.242   2.435   4.963  0.6913  1.6739  1.0623
   72MOL   H11435756   3.452   2.406   5.110 -0.5133 -1.4176 -1.2464
   72MOL   H11535757   3.401   2.562   5.115  0.9983 -0.1238  1.2835
   72MOL   H11635758   3.641   2.618   4.998  2.5144  0.7852  1.3442
   72MOL   H11735759   3.684   2.454   5.039 -1.6477 -0.6396 -0.8011
   72MOL   H11835760   3.764   2.612   5.193  0.0382  2.3765 -0.5645
   72MOL   H11935761   3.616   2.664   5.243  1.5119  2.5342 -3.0347
   72MOL   H12035762   3.572   2.411   5.315  0.6692 -0.5287  2.7397
   72MOL   H12135763   3.738   2.385   5.266  1.5095 -0.1986  3.0125
   72MOL   H12235764   3.827   2.522   5.419  0.1193 -0.0486  1.2500
   72MOL   H12335765   3.665   2.587   5.486 -1.0854 -1.1147  0.2919
   72MOL   H12435766   3.774   2.305   5.520  0.5475  0.4510 -0.9927
   72MOL   H12535767   3.749   2.436   5.643 -0.1061  2.0318 -1.3188
   72MOL   H12635768   3.613   2.350   5.556  0.8392 -3.2120 -0.3136
   72MOL   C12735769   3.263   2.635   4.891 -0.4231  0.1112  0.0718
   72MOL   C12835770   3.116   2.665   4.903  0.2556  0.4230 -0.4397
   72MOL   O12935771   3.092   2.804   4.899 -0.0037  0.3328 -0.1594
   72MOL   C13035772   3.121   2.871   4.781  0.8493 -0.0142  0.0860
   72MOL   C13135773   3.048   3.012   4.779 -0.2830  0.5795 -0.3536
   72MOL   C13235774   2.896   3.000   4.772  0.4269  0.3261  0.2662
   72MOL   C13335775   2.829   3.135   4.747  0.3571 -0.3031  0.2806
   72MOL   C13435776   2.685   3.113   4.701  0.4961 -0.1679 -0.0671
   72MOL   C13535777   2.611   3.247   4.701 -0.2645  0.0970  0.7095
   72MOL   H13635778   3.307   2.688   4.975 -0.4349 -3.2814  2.3228
   72MOL   H13735779   3.310   2.674   4.801 -0.7869 -0.2167 -0.2629
   72MOL   H13835780   3.067   2.613   4.821  0.3878 -0.0525 -0.2227
   72MOL   H13935781   3.075   2.816   4.698  1.0735  0.5465 -0.4162
   72MOL   H14035782   3.227   2.879   4.759  0.4013  2.1354 -1.4531
   72MOL   H14135783   3.085   3.076   4.699  0.3949  2.1615  1.2096
   72MOL   H14235784   3.078   3.067   4.868  0.2029 -0.2150 -0.0163
   72MOL   H14335785   2.880   2.925   4.694 -1.2028 -0.4880  1.3566
   72MOL   H14435786   2.852   2.944   4.854 -0.5816 -0.3945 -0.7560
   72MOL   H14535787   2.838   3.193   4.839  1.9566 -3.0035  1.9272
   72MOL   H14635788   2.876   3.195   4.670 -2.0930  2.1586  0.6527
   72MOL   H14735789   2.677   3.070   4.601 -0.8677  2.5956 -1.1836
   72MOL   H14835790   2.633   3.043   4.767  0.4530 -0.9499 -0.9182
   72MOL   H14935791   2.670   3.313   4.637  0.5336 -0.5823  0.7313
   72MOL   H15035792   2.513   3.234   4.655  0.1997  0.1502 -0.3006
   72MOL   H15135793   2.614   3.298   4.797 -0.4902  1.8570 -0.2035
   72MOL   C15235794   3.047   2.615   5.033 -0.3771 -0.4662 -0.1345
   72MOL   C15335795   2.895   2.612   5.035  0.2025  0.0465 -0.6024
   72MOL   O15435796   2.844   2.502   4.961 -0.6278  0.2274  0.6019
   72MOL   C15535797   2.732   2.535   4.882  0.2202  0.7965  0.3307
   72MOL   C15635798   2.668   2.408   4.820 -0.4927  0.4311 -0.1218
   72MOL   C15735799   2.781   2.346   4.728 -1.2007 -0.2494 -0.0702
   72MOL   C15835800   2.742   2.214   4.675  0.0738 -0.2054 -0.0844
   72MOL   C15935801   2.639   2.202   4.558  0.6327  0.5945 -0.4666
   72MOL   C16035802   2.599   2.054   4.539  0.4640 -0.5414 -0.1684
   72MOL   H16135803   3.097   2.525   5.069  0.1744 -0.3112 -0.5070
   72MOL   H16235804   3.067   2.683   5.116 -3.9322  0.7119 -0.1593
   72MOL   H16335805   2.858   2.703   4.987  0.2801  1.5775  2.1499
   72MOL   H16435806   2.763   2.616   4.816  0.0674 -0.5213 -1.3803
   72MOL   H16535807   2.656   2.577   4.948 -1.8430 -1.3712 -0.5891
   72MOL   H16635808   2.581   2.441   4.764 -1.4953 -0.9377  0.5935
   72MOL   H16735809   2.635   2.333   4.892  2.7413 -1.3415 -0.3876
   72MOL   H16835810   2.806   2.411   4.645 -1.4885 -0.5175 -0.3655
   72MOL   H16935811   2.869   2.317   4.786 -1.1080 -1.6440 -0.8812
   72MOL   H17035812   2.834   2.164   4.644 -0.0311 -0.8216  0.5854
   72MOL   H17135813   2.699   2.162   4.761 -1.7496  0.2077 -0.7302
   72MOL   H17235814   2.547   2.253   4.585  0.3443  1.6657 -3.2958
   72MOL   H17335815   2.674   2.246   4.465  0.5737  0.9387 -0.3293
   72MOL   H17435816   2.529   2.051   4.456  0.8558 -1.5607 -0.4736
   72MOL   H17535817   2.683   1.990   4.511  0.0278 -0.9740 -0.4794
   72MOL   H17635818   2.548   2.018   4.628 -0.2430 -0.7868 -0.6717
   72MOL   C17735819   2.827   2.603   5.177 -0.3115 -0.5488  0.0261
   72MOL   C17835820   2.846   2.735   5.254  0.2408 -0.4000  0.0511
   72MOL   O17935821   2.753   2.836   5.222 -0.3167  0.4212 -0.5288
   72MOL   C18035822   2.789   2.919   5.112  0.0384  0.4558  0.2372
   72MOL   C18135823   2.723   3.057   5.133 -0.3980  0.5115  0.2283
   72MOL   C18235824   2.792   3.140   5.237  0.5862 -0.1939  0.1065
   72MOL   C18335825   2.762   3.293   5.241  0.2366 -0.6227  0.6370
   72MOL   C18435826   2.812   3.368   5.118 -0.0721  0.4682 -0.0357
   72MOL   C18535827   2.958   3.351   5.090 -0.1665  0.3879  0.4173
   72MOL   H18635828   2.719   2.590   5.166 -0.2734 -1.2343  0.4113
   72MOL   H18735829   2.876   2.519   5.227  0.9090 -0.0666 -0.3671
   72MOL   H18835830   2.945   2.780   5.248  0.2997 -0.4301  0.6853
   72MOL   H18935831   2.738   2.882   5.023 -0.3642  0.3906  0.4945
   72MOL   H19035832   2.895   2.913   5.089  0.1980 -1.3634  1.2978
   72MOL   H19135833   2.618   3.058   5.162 -0.1935  0.3227  0.9882
   72MOL   H19235834   2.723   3.103   5.034 -2.0860  0.0471  0.0152
   72MOL   H19335835   2.752   3.095   5.328 -0.1013 -0.6151 -0.3954
   72MOL   H19435836   2.898   3.123   5.223  0.3818  1.0815 -3.4643
   72MOL   H19535837   2.656   3.317   5.254  1.0864  4.0778 -0.3375
   72MOL   H19635838   2.814   3.340   5.324  0.4700 -0.8682  0.6295
   72MOL   H19735839   2.765   3.348   5.022  1.5656 -3.5920 -0.1104
   72MOL   H19835840   2.794   3.470   5.150 -0.3456  0.3251  0.2677
   72MOL   H19935841   2.998   3.251   5.075 -0.2428  0.3693  0.3452
   72MOL   H20035842   2.986   3.413   5.005  1.0838  0.0725  0.5812
   72MOL   H20135843   3.002   3.384   5.185 -1.4699  0.7488  0.9053
   72MOL   C20235844   2.838   2.716   5.408  0.1100  0.2829  0.0845
   72MOL   C20335845   2.940   2.616   5.469 -0.0804  0.4712 -0.2045
   72MOL   O20435846   2.916   2.610   5.613 -0.4654  0.1221  0.0404
   72MOL   C20535847   2.809   2.518   5.635 -0.3824 -0.0256 -0.2985
   72MOL   C20635848   2.743   2.563   5.766  0.3293 -0.5784 -0.4117
   72MOL   C20735849   2.643   2.670   5.747 -0.6872 -0.4835 -0.9637
   72MOL   C20835850   2.579   2.704   5.885  0.3201 -0.0578 -0.2202
   72MOL   C20935851   2.514   2.849   5.884  0.0828  0.2811  0.6327
   72MOL   C21035852   2.381   2.857   5.806  0.1983  0.1531  0.0641
   72MOL   H21135853   2.855   2.810   5.461  0.1513 -0.0692  0.7057
   72MOL   H21235854   2.737   2.682   5.430  0.7503 -3.4868 -2.4993
   72MOL   H21335855   2.917   2.526   5.412  1.2174  2.1992 -3.6246
   72MOL   H21435856   2.853   2.419   5.631 -2.2440 -0.9261  0.9373
   72MOL   H21535857   2.730   2.512   5.559 -0.6592  1.3567 -0.1490
   72MOL   H21635858   2.823   2.590   5.834  0.2318 -1.6160  0.1305
   72MOL   H21735859   2.710   2.464   5.800  2.5265 -1.2755 -0.2468
   72MOL   H21835860   2.691   2.758   5.706  0.4019 -1.0851 -0.9920
   72MOL   H21935861   2.567   2.643   5.674 -0.1288  2.7894 -2.8341
   72MOL   H22035862   2.500   2.633   5.909 -1.1241  0.8928 -2.0353
   72MOL   H22135863   2.657   2.701   5.960 -1.8924 -0.3732  2.1305
   72MOL   H22235864   2.487   2.888   5.982  0.8001 -3.6256  2.4435
   72MOL   H22335865   2.586   2.924   5.848 -0.1409  0.4399  0.5138
   72MOL   H22435866   2.372   2.956   5.761  0.7586  0.2309  0.1316
   72MOL   H22535867   2.378   2.781   5.727  2.7658  0.9681 -0.8571
   72MOL   H22635868   2.300   2.828   5.873 -0.7813 -0.1499 -1.2154
   72MOL   C22735869   3.088   2.666   5.457 -0.9895  0.0938 -1.2051
   72MOL   C22835870   3.188   2.554   5.503  0.1013  0.1282 -0.5008
   72MOL   O22935871   3.192   2.456   5.405  0.4756 -0.4174  0.1567
   72MOL   C23035872   3.257   2.334   5.448 -0.5989  0.4781  0.3387
   72MOL   C23135873   3.235   2.221   5.341  0.4231 -0.1400 -0.2284
   72MOL   C23235874   3.328   2.106   5.353 -0.2675 -0.0597 -0.3530
   72MOL   C23335875   3.284   1.979   5.272 -0.1512  0.5542  0.0866
   72MOL   C23435876   3.370   1.854   5.291 -0.1110  0.3645  0.5855
   72MOL   C23535877   3.501   1.861   5.227 -0.6363  0.0567  0.7000
   72MOL   H23635878   3.104   2.705   5.357 -0.1642 -2.5141 -2.1463
   72MOL   H23735879   3.086   2.749   5.528  0.8368 -1.4192  0.7030
   72MOL   H23835880   3.166   2.519   5.604  1.5143  0.4524 -0.0652
   72MOL   H23935881   3.208   2.308   5.542 -0.7486  0.2063  0.1835
   72MOL   H24035882   3.365   2.348   5.459 -0.6517  1.6519 -0.5532
   72MOL   H24135883   3.268   2.273   5.251  0.9318 -3.4897 -2.0737
   72MOL   H24235884   3.130   2.191   5.343  0.4491 -0.1897  0.4618
   72MOL   H24335885   3.431   2.131   5.331 -0.5494  1.1349 -0.3559
   72MOL   H24435886   3.320   2.080   5.459  2.8035 -1.2731 -0.3697
   72MOL   H24535887   3.185   1.956   5.312 -0.0506  1.5553  0.9291
   72MOL   H24635888   3.266   1.999   5.166  1.5723 -1.2256 -0.5604
   72MOL   H24735889   3.386   1.833   5.396  0.8574  0.3395  0.4347
   72MOL   H24835890   3.319   1.771   5.242  0.2075  0.6309 -0.2013
   72MOL   H24935891   3.562   1.936   5.277 -0.8774  1.1335 -0.5962
   72MOL   H25035892   3.560   1.769   5.225 -3.1981 -1.6227 -0.1433
   72MOL   H25135893   3.492   1.889   5.122  1.8616 -3.1153 -0.4545
   72MOL   C25235894   3.330   2.614   5.517  0.0523  0.3524 -0.1571
   72MOL   C25335895   3.356   2.703   5.642 -0.3975 -0.0473  0.3219
   72MOL   O25435896   3.498   2.742   5.637 -0.3634 -0.2301  0.5551
   72MOL   C25535897   3.524   2.850   5.552  0.4445  1.0855  0.4607
   72MOL   C25635898   3.667   2.891   5.549 -1.4917 -0.6201 -0.0856
   72MOL   C25735899   3.712   2.992   5.437  0.0851 -0.4249  0.3928
   72MOL   C25835900   3.655   3.129   5.456  0.4785 -0.2645 -0.2860
   72MOL   C25935901   3.705   3.235   5.356  0.6819  0.1787 -0.7027
   72MOL   C26035902   3.644   3.373   5.389  0.0150 -0.7095  0.3948
   72MOL   H26135903   3.412   2.543   5.523  0.7607  1.1700  0.0089
   72MOL   H26235904   3.347   2.674   5.428  1.2819  1.3751  0.7378
   72MOL   H26335905   3.290   2.790   5.645 -0.9824 -0.5184  1.4633
   72MOL   H26435906   3.466   2.937   5.583 -0.7606  0.4224  0.0714
   72MOL   H26535907   3.487   2.832   5.451 -1.1891  3.2659  0.6382
   72MOL   H26635908   3.739   2.810   5.542 -0.5080  0.2092  0.2170
   72MOL   H26735909   3.693   2.922   5.650  0.6213 -2.8706  0.0922
   72MOL   H26835910   3.819   3.004   5.453 -0.3436  3.2447  0.7577
   72MOL   H26935911   3.708   2.958   5.334  1.3811  0.8347 -0.0784
   72MOL   H27035912   3.546   3.131   5.457  0.4805  2.8796 -1.0402
   72MOL   H27135913   3.679   3.164   5.557 -2.0586  0.2518  0.1815
   72MOL   H27235914   3.813   3.241   5.354  0.7206  0.3944  1.1690
   72MOL   H27335915   3.671   3.210   5.256 -0.4720  0.1946 -0.3306
   72MOL   H27435916   3.686   3.446   5.320  1.5055  0.2261  2.2337
   72MOL   H27535917   3.536   3.384   5.383  0.2204  0.1668 -2.0028
   72MOL   H27635918   3.671   3.415   5.486  2.2609 -0.7784 -0.1648
   72MOL   C27735919   3.345   2.627   5.768 -0.2194 -0.5126  0.2451
   72MOL   C27835920   3.252   2.679   5.876 -0.1909  0.5174 -0.0423
   72MOL   O27935921   3.223   2.580   5.976  0.2222  0.1963  0.0961
   72MOL   C28035922   3.095   2.518   5.953 -0.1950  0.0508  0.2398
   72MOL   C28135923   3.092   2.382   6.032  0.1811 -0.6267 -0.0208
   72MOL   C28235924   2.941   2.321   6.032 -0.6599 -0.1428  0.4176
   72MOL   C28335925   2.839   2.401   6.114 -0.7030  0.1238 -0.4543
   72MOL   C28435926   2.724   2.311   6.160 -0.0531  0.5856  0.3231
   72MOL   C28535927   2.638   2.259   6.041  0.0529  0.3924  0.3455
   72MOL   H28635928   3.309   2.525   5.756 -0.7472 -0.2905 -0.0657
   72MOL   H28735929   3.438   2.603   5.820 -1.7450 -3.1347  1.8264
   72MOL   H28835930   3.165   2.716   5.822  0.2191  0.9083 -0.4351
   72MOL   H28935931   3.088   2.488   5.849  1.8760 -0.1093  0.1392
   72MOL   H29035932   3.004   2.574   5.977 -0.0259  0.4181  0.0229
   72MOL   H29135933   3.119   2.390   6.137 -2.6440 -1.9273  0.8491
   72MOL   H29235934   3.154   2.305   5.986  1.2110 -0.8224  1.6480
   72MOL   H29335935   2.899   2.302   5.933 -0.5407 -0.3401  0.4052
   72MOL   H29435936   2.946   2.221   6.074  2.5017  0.4964  1.7008
   72MOL   H29535937   2.883   2.443   6.205  0.1569 -0.3181 -0.6628
   72MOL   H29635938   2.796   2.486   6.060 -2.6711 -2.1159 -2.5021
   72MOL   H29735939   2.759   2.231   6.225  0.0264 -0.2107 -0.6861
   72MOL   H29835940   2.660   2.371   6.225 -1.6408  2.0928 -2.5298
   72MOL   H29935941   2.570   2.337   6.005  1.9345  1.4484 -0.9772
   72MOL   H30035942   2.702   2.211   5.967  1.1978  0.3710  1.3514
   72MOL   H30135943   2.567   2.186   6.079 -0.4864  0.7362  0.0100
   72MOL   C30235944   3.301   2.789   5.963 -0.1986 -0.2526  0.1063
   72MOL   C30335945   3.308   2.934   5.907 -0.1212  0.3437  0.0944
   72MOL   O30435946   3.391   3.012   5.991 -0.5480  0.3910 -0.1889
   72MOL   C30535947   3.519   3.060   5.948 -0.2803  0.2737 -0.2917
   72MOL   C30635948   3.563   3.155   6.056 -0.1908  0.2292  0.2230
   72MOL   C30735949   3.494   3.292   6.056  0.6913  0.2876 -0.0373
   72MOL   C30835950   3.532   3.373   6.182 -0.1735  0.2560  0.9473
   72MOL   C30935951   3.420   3.453   6.255  0.0926 -0.3623  0.2244
   72MOL   C31035952   3.359   3.567   6.169 -0.4238  0.3240 -0.1115
   72MOL   H31135953   3.241   2.794   6.054  1.5228 -0.0761  1.2555
   72MOL   H31235954   3.386   2.753   6.022  0.0446  0.0032 -0.0852
   72MOL   H31335955   3.353   2.925   5.808 -1.4707  1.6549 -0.6631
   72MOL   H31435956   3.528   3.103   5.848  1.1931 -1.8902 -1.1189
   72MOL   H31535957   3.588   2.976   5.956  2.1686  2.3319  1.0367
   72MOL   H31635958   3.672   3.163   6.050 -0.1389 -0.9579 -0.5517
   72MOL   H31735959   3.546   3.102   6.149  0.4994 -0.5729 -0.0916
   72MOL   H31835960   3.493   3.355   5.968 -4.0086  1.3758  0.6574
   72MOL   H31935961   3.387   3.273   6.057  0.9555 -1.4025 -1.2406
   72MOL   H32035962   3.588   3.315   6.256 -1.5857 -2.5407 -0.0857
   72MOL   H32135963   3.601   3.452   6.153  2.2782 -1.4820  1.8263
   72MOL   H32235964   3.341   3.386   6.290 -1.7595  1.7110  0.1140
   72MOL   H32335965   3.468   3.489   6.346 -1.9536  0.4359  1.0290
   72MOL   H32435966   3.362   3.543   6.063  1.8615 -0.5413  0.1392
   72MOL   H32535967   3.260   3.589   6.211 -0.7187 -2.8980  0.9903
   72MOL   H32635968   3.405   3.664   6.186  0.0950  0.0584 -0.0114
   72MOL   C32735969   3.170   3.009   5.905 -0.0269  0.8254  0.1239
   72MOL   C32835970   3.129   3.069   5.771 -0.4065 -0.2167  0.3625
   72MOL   O32935971   2.991   3.107   5.771 -0.0573  0.4597  0.1094
   72MOL   C33035972   2.901   3.017   5.703  0.2782  0.3783 -0.5397
   72MOL   C33135973   2.765   3.082   5.699  0.0716  0.1585  0.0436
   72MOL   C33235974   2.751   3.214   5.618  0.3602 -0.4048 -0.3850
   72MOL   C33335975   2.612   3.287   5.606 -0.1378 -0.2918 -0.8865
   72MOL   C33435976   2.589   3.355   5.742  0.0607  0.5476  0.3147
   72MOL   C33535977   2.479   3.453   5.750 -0.3050 -0.8428  0.1525
   72MOL   H33635978   3.172   3.075   5.991  0.6383 -0.7517  1.3579
   72MOL   H33735979   3.088   2.939   5.922  0.7301 -0.1156 -0.0054
   72MOL   H33835980   3.155   2.994   5.696  1.7021 -0.4129  1.2666
   72MOL   H33935981   2.905   2.928   5.766  2.0900 -0.9532 -2.4698
   72MOL   H34035982   2.938   2.992   5.604 -0.9760 -0.2974 -0.8475
   72MOL   H34135983   2.733   3.120   5.796  2.6980  1.4920  0.4258
   72MOL   H34235984   2.698   3.005   5.660  0.2829  1.0150 -2.0854
   72MOL   H34335985   2.828   3.275   5.665  0.7012 -0.8818 -0.3334
   72MOL   H34435986   2.779   3.193   5.515  0.3703 -2.6209  0.0503
   72MOL   H34535987   2.619   3.362   5.527  0.2871  0.2441 -0.3445
   72MOL   H34635988   2.535   3.215   5.579 -0.2760 -0.9455  1.1917
   72MOL   H34735989   2.550   3.271   5.799 -0.2185  1.1314  0.9896
   72MOL   H34835990   2.676   3.406   5.786 -0.3486 -0.3425  2.1973
   72MOL   H34935991   2.396   3.416   5.689 -1.0605 -1.1974  1.3896
   72MOL   H35035992   2.429   3.448   5.846  0.4397  0.2427  0.5979
   72MOL   H35135993   2.503   3.558   5.732  2.9525 -1.9611 -2.5531
   72MOL   C35235994   3.213   3.202   5.742  0.3150 -0.1188  0.5652
   72MOL   C35335995   3.194   3.259   5.597 -0.0898  0.2078 -0.1937
   72MOL   O35435996   3.227   3.154   5.508 -0.3139  0.3235 -0.5206
   72MOL   C35535997   3.144   3.147   5.391 -0.2350  0.0135 -0.5425
   72MOL   C35635998   3.181   3.024   5.307  0.7957  0.2693  0.2454
   72MOL   C35735999   3.317   3.038   5.238 -0.1137 -0.0909  0.7645
   72MOL   C35836000   3.349   2.903   5.163  0.3102 -0.1364 -0.6810
   72MOL   C35936001   3.483   2.897   5.086 -0.5619 -0.3776  0.2194
   72MOL   C36036002   3.480   2.954   4.944 -0.1210  0.4556 -0.1491
   72MOL   H36136003   3.183   3.269   5.821  2.0689  2.7822 -1.1461
   72MOL   H36236004   3.318   3.183   5.762  0.4154  1.2731  1.3619
   72MOL   H36336005   3.090   3.289   5.584 -0.2045 -0.4259 -0.7580
   72MOL   H36436006   3.152   3.236   5.329  1.2397 -0.0030 -0.4083
   72MOL   H36536007   3.042   3.132   5.425 -0.3356  1.8976  0.0511
   72MOL   H36636008   3.116   3.008   5.220 -1.8227 -0.8147  2.3517
   72MOL   H36736009   3.175   2.933   5.365 -1.4295  0.4678  0.3863
   72MOL   H36836010   3.327   3.124   5.171  2.4381 -1.0915 -0.2178
   72MOL   H36936011   3.390   3.069   5.313  1.4617  0.2086 -0.8503
   72MOL   H37036012   3.354   2.828   5.242 -0.1424 -0.3440 -0.8496
   72MOL   H37136013   3.275   2.880   5.087 -2.8654  0.1180  2.2440
   72MOL   H37236014   3.560   2.948   5.143  0.0252  0.9355 -1.7123
   72MOL   H37336015   3.517   2.794   5.088 -0.9786 -0.5589 -1.7033
   72MOL   H37436016   3.402   2.894   4.898 -2.1714  0.9256  2.5870
   72MOL   H37536017   3.442   3.056   4.948 -0.0427  0.4473  0.9200
   72MOL   H37636018   3.580   2.943   4.902  0.0347  0.2859  0.2644
   72MOL   C37736019   3.304   3.365   5.568 -0.6435  0.0356 -0.2599
   72MOL   C37836020   3.281   3.495   5.637 -0.7284 -0.1118  0.2472
   72MOL   O37936021   3.150   3.533   5.608  0.5230  0.7440 -0.7182
   72MOL   C38036022   3.065   3.563   5.718 -0.2644  0.4240 -0.5908
   72MOL   C38136023   2.925   3.595   5.668 -0.1987  0.1861 -0.4081
   72MOL   C38236024   2.907   3.740   5.605 -0.7819 -0.2000 -0.1195
   72MOL   C38336025   2.785   3.764   5.518  0.1698  0.0963 -0.4815
   72MOL   C38436026   2.664   3.782   5.604 -0.0679  0.7490 -0.4291
   72MOL   C38536027   2.538   3.834   5.531 -0.3848  0.0805 -0.0928
   72MOL   H38636028   3.394   3.313   5.600  1.0143  2.0700 -1.4596
   72MOL   H38736029   3.310   3.395   5.463  2.4837 -1.0686 -0.4536
   72MOL   H38836030   3.289   3.493   5.746 -0.3626 -1.5182  0.1907
   72MOL   H38936031   3.113   3.632   5.788 -0.7581  0.0288  0.1426
   72MOL   H39036032   3.060   3.472   5.779 -0.9761  0.4353 -0.6365
   72MOL   H39136033   2.852   3.594   5.750 -0.9869 -0.7958 -1.1103
   72MOL   H39236034   2.892   3.522   5.594  0.0539 -0.9960  0.6100
   72MOL   H39336035   2.920   3.824   5.673 -0.6649 -0.6248  0.3855
   72MOL   H39436036   2.989   3.741   5.534 -1.0129  1.5172 -0.3736
   72MOL   H39536037   2.803   3.853   5.458  4.0074 -0.3258 -0.0836
   72MOL   H39636038   2.770   3.686   5.444  1.7922 -0.7906  0.1033
   72MOL   H39736039   2.644   3.688   5.654 -0.6209  0.4748 -1.1499
   72MOL   H39836040   2.672   3.855   5.684 -2.1095  1.6724 -1.0399
   72MOL   H39936041   2.557   3.790   5.433 -0.4884 -1.9272  0.7585
   72MOL   H40036042   2.437   3.818   5.569 -0.8861  1.1068 -0.9901
   72MOL   H40136043   2.549   3.942   5.524 -1.1647 -0.0066 -3.5731
   72MOL   C40236044   3.379   3.607   5.585  0.0430  0.8169 -0.0448
   72MOL   C40336045   3.402   3.737   5.669  0.1345 -0.0036  0.1602
   72MOL   O40436046   3.454   3.838   5.590  0.4014 -0.1903 -0.1709
   72MOL   C40536047   3.353   3.922   5.538  0.4314  0.2240 -0.6371
   72MOL   C40636048   3.430   4.035   5.474  0.0237 -0.5614  0.0657
   72MOL   C40736049   3.516   4.121   5.576  0.1518 -0.8160 -0.1776
   72MOL   C40836050   3.545   4.264   5.520 -0.0013  0.6838 -0.5220
   72MOL   C40936051   3.639   4.342   5.616 -0.8927 -0.0351  0.4672
   72MOL   C41036052   3.667   4.488   5.582 -0.0135  0.4462  0.2494
   72MOL   H41136053   3.341   3.646   5.490 -0.4228 -1.6073 -0.8836
   72MOL   H41236054   3.478   3.568   5.561  0.7791  2.3430  0.4774
   72MOL   H41336055   3.305   3.769   5.707  0.3259 -1.2627  1.7611
   72MOL   H41436056   3.282   3.968   5.606  1.8824  1.1757  0.2664
   72MOL   H41536057   3.302   3.869   5.458  0.6630  1.4219 -1.5779
   72MOL   H41636058   3.348   4.092   5.429  1.1462  1.4677  0.5155
   72MOL   H41736059   3.492   4.004   5.391  1.8538  0.6177  0.9641
   72MOL   H41836060   3.473   4.118   5.676 -1.0861  0.2642 -0.6534
   72MOL   H41936061   3.612   4.074   5.598  0.3229 -0.4523 -0.1582
   72MOL   H42036062   3.592   4.247   5.423  1.0856  2.4258 -0.3260
   72MOL   H42136063   3.461   4.332   5.506  1.0879  1.8013 -1.7685
   72MOL   H42236064   3.590   4.343   5.713  0.0580 -3.3925  1.0568
   72MOL   H42336065   3.730   4.284   5.632 -1.1294 -0.5897 -0.1702
   72MOL   H42436066   3.733   4.525   5.660  1.2729  0.3389 -0.7785
   72MOL   H42536067   3.711   4.493   5.482  0.2742  0.1423  0.3639
   72MOL   H42636068   3.575   4.546   5.574 -2.1561 -2.7131  1.0757
   72MOL   C42736069   3.494   3.721   5.784  0.6943 -0.2844 -0.4282
   72MOL   C42836070   3.479   3.841   5.884  0.2705 -0.2365 -0.3303
   72MOL   O42936071   3.353   3.827   5.953 -0.1947 -0.4752  0.1803
   72MOL   C43036072   3.295   3.948   6.011  0.2143 -0.2599 -0.4985
   72MOL   C43136073   3.152   3.960   5.961  0.6515 -0.6502  0.1060
   72MOL   C43236074   3.136   3.999   5.815 -0.2019 -0.6166 -0.1490
   72MOL   C43336075   3.006   4.070   5.785 -0.2989 -0.0555 -0.5110
   72MOL   C43436076   2.989   4.101   5.626  0.0243 -0.2120  0.3403
   72MOL   C43536077   3.073   4.223   5.582  0.1107 -0.3145 -0.1914
   72MOL   H43636078   3.478   3.625   5.832  0.8137  0.4061  1.0191
   72MOL   H43736079   3.592   3.714   5.737  0.3823 -1.6597 -0.8986
   72MOL   H43836080   3.486   3.936   5.830 -0.3770  0.5898  0.9992
   72MOL   H43936081   3.338   4.044   5.982 -0.4611  0.7543  1.7875
   72MOL   H44036082   3.305   3.938   6.119  0.8546  0.1248 -0.5138
   72MOL   H44136083   3.107   4.040   6.020 -1.2778 -0.3348 -1.7244
   72MOL   H44236084   3.093   3.870   5.980 -0.9248 -0.0963 -1.9880
   72MOL   H44336085   3.216   4.065   5.782 -3.5233  3.3342 -0.7788
   72MOL   H44436086   3.133   3.909   5.755  1.3117  0.4083 -1.7995
   72MOL   H44536087   2.909   4.025   5.806 -0.1813  0.6682  1.6456
   72MOL   H44636088   3.001   4.161   5.844  2.0615  0.7138 -1.4437
   72MOL   H44736089   3.013   4.002   5.587  1.0950 -0.9271  2.7480
   72MOL   H44836090   2.884   4.125   5.609  0.4261 -0.8873 -3.4349
   72MOL   H44936091   3.176   4.189   5.569 -0.6728 -1.6977 -3.0538
   72MOL   H45036092   3.034   4.265   5.490  0.0062  0.2069  0.0848
   72MOL   H45136093   3.075   4.310   5.648  0.4914 -0.8615  0.5307
   72MOL   C45236094   3.579   3.828   6.001  0.5411 -0.3829  0.1960
   72MOL   C45336095   3.722   3.881   5.960 -0.2769  0.4127 -0.0272
   72MOL   O45436096   3.822   3.866   6.062  0.5031  0.1066  0.3743
   72MOL   C45536097   3.906   3.750   6.043  0.1466 -0.2097 -0.2785
   72MOL   C45636098   3.976   3.705   6.164 -0.3949  0.8559  0.0063
   72MOL   C45736099   4.130   3.682   6.133 -0.1059 -0.2921  0.0315
   72MOL   C45836100   4.208   3.655   6.265 -0.4528  0.2665 -0.0681
   72MOL   C45936101   4.361   3.628   6.244  0.2187 -0.5601 -0.5470
   72MOL   C46036102   4.389   3.488   6.186  0.5960  0.2178  0.9685
   72MOL   H46136103   3.543   3.871   6.094 -0.2079 -0.6720  0.0379
   72MOL   H46236104   3.597   3.722   6.023 -0.7091 -1.2233 -2.5924
   72MOL   H46336105   3.752   3.832   5.868  3.1028  1.8657  0.2345
   72MOL   H46436106   3.983   3.769   5.968  0.4603  0.4428  0.2050
   72MOL   H46536107   3.851   3.666   6.002  1.3361 -1.3944  0.5249
   72MOL   H46636108   3.922   3.631   6.224  0.6648  0.4141  0.4200
   72MOL   H46736109   3.968   3.781   6.242  1.4560  1.4995 -0.4223
   72MOL   H46836110   4.153   3.611   6.054 -2.8743  0.3062 -1.3574
   72MOL   H46936111   4.170   3.775   6.094 -1.5272  0.4352  0.2890
   72MOL   H47036112   4.198   3.744   6.327 -0.7351 -0.6930  1.2850
   72MOL   H47136113   4.165   3.568   6.314 -0.6679  0.4042 -0.0115
   72MOL   H47236114   4.401   3.706   6.178  0.1435 -1.0634 -1.1895
   72MOL   H47336115   4.414   3.631   6.339  1.5957  0.0870 -1.3140
   72MOL   H47436116   4.339   3.473   6.090  1.2997  1.0094  0.4679
   72MOL   H47536117   4.496   3.484   6.167  0.4687  1.3746 -0.1027
   72MOL   H47636118   4.347   3.414   6.253 -0.4507 -0.9247 -0.8849
   72MOL   C47736119   3.727   4.030   5.923  0.1342  0.2792  0.1490
   72MOL   C47836120   3.864   4.098   5.887  0.3095 -0.5433  0.3770
   72MOL   O47936121   3.839   4.234   5.856 -0.3115 -0.2889 -0.2719
   72MOL   C48036122   3.954   4.307   5.833  0.0366  0.2786 -0.1412
   72MOL   C48136123   4.001   4.385   5.958 -0.4657  0.5514 -1.0746
   72MOL   C48236124   4.115   4.496   5.938  0.4480 -0.3434  0.2141
   72MOL   C48336125   4.079   4.612   5.847 -0.1484 -0.6560 -0.7478
   72MOL   C48436126   4.198   4.696   5.812  0.0283 -0.4643  0.1461
   72MOL   C48536127   4.254   4.770   5.936 -0.1245  0.2850  0.1609
   72MOL   H48636128   3.662   4.054   5.840  1.3401 -0.5097 -1.0412
   72MOL   H48736129   3.681   4.069   6.014 -1.9418  1.2549 -1.2728
   72MOL   H48836130   3.930   4.096   5.973 -0.3122  2.7422  1.0200
   72MOL   H48936131   3.928   4.388   5.765  1.0412 -1.1086 -2.2412
   72MOL   H49036132   4.032   4.251   5.781 -0.1162 -1.3640  1.3525
   72MOL   H49136133   4.046   4.316   6.029 -1.0621  1.0380 -0.2067
   72MOL   H49236134   3.923   4.443   6.008  1.8237  1.9514  0.9920
   72MOL   H49336135   4.132   4.534   6.038  1.5372 -0.0432 -0.0758
   72MOL   H49436136   4.211   4.453   5.907  0.0391 -0.0763 -1.4851
   72MOL   H49536137   4.039   4.567   5.755 -0.9964  0.6178 -1.0172
   72MOL   H49636138   3.990   4.661   5.887 -0.2519 -1.7533  0.4121
   72MOL   H49736139   4.270   4.640   5.753  0.3091  0.2959 -0.2370
   72MOL   H49836140   4.161   4.772   5.744  1.7444  1.1567  0.9646
   72MOL   H49936141   4.173   4.834   5.971  0.2999  0.6728  0.4471
   72MOL   H50036142   4.286   4.698   6.011  1.1129 -1.1312 -1.6853
   72MOL   H50136143   4.332   4.841   5.906 -1.1216  0.7081 -1.5263
   72MOL   H50236144   3.910   4.038   5.809 -0.1493 -1.8058  1.0761
   73MOL     C136145   1.004   1.096   1.485 -0.6706 -0.6556 -0.3234
   73MOL     C236146   1.106   1.150   1.582 -0.0535  0.0577 -0.2661
   73MOL     O336147   1.063   1.134   1.719  0.2027 -1.0798  0.3096
   73MOL     C436148   1.072   1.001   1.762 -0.3710  0.7758 -0.1359
   73MOL     C536149   1.028   1.006   1.908  0.1151  0.1841 -0.7959
   73MOL     C636150   1.124   1.082   2.002 -0.3650 -0.1428 -0.0609
   73MOL     C736151   1.090   1.076   2.155 -0.1578  0.0536 -0.2403
   73MOL     C836152   1.197   1.144   2.246  0.2045  0.2996 -0.5243
   73MOL     C936153   1.181   1.100   2.390  0.2925 -0.5640 -0.5270
   73MOL    H1036154   1.040   1.016   1.421  0.0801 -0.9068  0.4092
   73MOL    H1136155   0.920   1.050   1.538  0.1920 -1.4656  0.3621
   73MOL    H1236156   1.200   1.095   1.578 -0.9283 -1.4815  0.0183
   73MOL    H1336157   1.174   0.963   1.761 -0.3203  0.9348 -0.8840
   73MOL    H1436158   1.016   0.921   1.714  0.6642 -0.9545  1.4539
   73MOL    H1536159   1.011   0.905   1.945 -1.6686  0.2364 -1.4291
   73MOL    H1636160   0.927   1.045   1.907 -0.4876 -1.1556  1.8297
   73MOL    H1736161   1.217   1.030   1.977 -1.1038 -1.3156 -0.4428
   73MOL    H1836162   1.134   1.187   1.976  1.7827 -0.0784  0.8589
   73MOL    H1936163   0.986   1.105   2.170  0.6200  2.3141  1.0732
   73MOL    H2036164   1.096   0.971   2.184 -2.3921  0.1011  0.5013
   73MOL    H2136165   1.180   1.252   2.247  0.1698  0.2974 -0.7111
   73MOL    H2236166   1.298   1.125   2.209  0.3787 -0.3416  0.2675
   73MOL    H2336167   1.249   1.163   2.448  1.0853 -0.3141 -1.7089
   73MOL    H2436168   1.083   1.111   2.437  0.5224  0.2440 -0.2293
   73MOL    H2536169   1.216   0.998   2.405 -1.0756 -1.1651 -1.2868
   73MOL    H2636170   0.968   1.175   1.419 -0.1579 -0.7631 -0.7391
   73MOL    C2736171   1.134   1.298   1.553 -0.3959 -0.2953 -0.4437
   73MOL    C2836172   1.262   1.344   1.625  0.4864 -0.6446 -0.7150
   73MOL    O2936173   1.368   1.273   1.555 -0.4134 -0.1291  0.0937
   73MOL    C3036174   1.490   1.245   1.622 -0.6681  0.1242 -0.7284
   73MOL    C3136175   1.498   1.100   1.665 -0.1337  0.5725 -0.4745
   73MOL    C3236176   1.605   1.077   1.771 -0.0773  0.3322  0.6738
   73MOL    C3336177   1.597   0.942   1.832 -0.4478  0.1657 -0.4526
   73MOL    C3436178   1.705   0.927   1.934  0.4285  0.3653 -0.6566
   73MOL    C3536179   1.719   0.783   1.992  0.4652 -1.0607  0.1570
   73MOL    H3636180   1.131   1.328   1.448 -2.1228  1.4888  0.0871
   73MOL    H3736181   1.056   1.352   1.605  2.5195  1.2560  2.5246
   73MOL    H3836182   1.261   1.313   1.730 -2.8951  0.8688 -0.2261
   73MOL    H3936183   1.490   1.313   1.707  2.2572  0.2626 -0.7985
   73MOL    H4036184   1.581   1.275   1.569 -1.0923 -3.3501 -3.6508
   73MOL    H4136185   1.511   1.037   1.577 -0.4047 -0.4895  0.2434
   73MOL    H4236186   1.399   1.069   1.699 -0.8928 -1.0902 -4.0115
   73MOL    H4336187   1.706   1.101   1.738 -0.5001 -0.2737 -1.1245
   73MOL    H4436188   1.594   1.138   1.861  0.2459 -0.5757  1.3401
   73MOL    H4536189   1.502   0.907   1.873  0.1773 -1.2262 -0.1319
   73MOL    H4636190   1.626   0.874   1.752 -0.8425 -0.5691  0.0198
   73MOL    H4736191   1.801   0.961   1.894  1.0208 -0.6332 -0.1114
   73MOL    H4836192   1.686   0.987   2.022 -0.7608 -0.8516 -0.0632
   73MOL    H4936193   1.732   0.707   1.915  0.0741 -0.9064 -0.0657
   73MOL    H5036194   1.799   0.772   2.065  0.2719 -0.9856  0.3853
   73MOL    H5136195   1.621   0.769   2.039  0.0573  3.2609  0.7824
   73MOL    C5236196   1.289   1.492   1.614  0.3977  0.3850  0.3029
   73MOL    C5336197   1.188   1.581   1.686  0.3458 -0.6038 -0.0115
   73MOL    O5436198   1.201   1.563   1.832  0.6513  0.4221  0.3338
   73MOL    C5536199   1.096   1.499   1.892  0.2365 -0.6587 -0.2634
   73MOL    C5636200   1.112   1.521   2.043 -0.2442  0.6188  0.4189
   73MOL    C5736201   1.081   1.665   2.085 -0.2646  0.3887 -0.3542
   73MOL    C5836202   1.064   1.682   2.236 -0.4252  0.3010 -0.5438
   73MOL    C5936203   1.059   1.832   2.297  0.3202 -0.2697  0.5200
   73MOL    C6036204   0.960   1.841   2.415 -0.5451  0.6254  0.7289
   73MOL    H6136205   1.301   1.523   1.510 -1.9048  1.0030  0.1943
   73MOL    H6236206   1.390   1.518   1.647 -0.4613  1.5466  2.0573
   73MOL    H6336207   1.090   1.554   1.645  0.6406  0.5078 -1.5271
   73MOL    H6436208   1.089   1.394   1.863 -1.9265 -0.0896 -1.8965
   73MOL    H6536209   0.998   1.540   1.867  0.1178  0.4265  1.8667
   73MOL    H6636210   1.213   1.491   2.072 -1.4637 -1.3140  2.8972
   73MOL    H6736211   1.052   1.451   2.102  1.1304  0.3234  1.4911
   73MOL    H6836212   1.141   1.743   2.038  1.0533 -0.6864 -0.5145
   73MOL    H6936213   0.985   1.693   2.043  0.6573  1.9104 -1.5454
   73MOL    H7036214   0.969   1.634   2.257 -0.4371  0.6817  0.2736
   73MOL    H7136215   1.137   1.625   2.293 -1.6563 -0.4755  0.2808
   73MOL    H7236216   1.160   1.861   2.326  0.4649  0.8055 -1.0068
   73MOL    H7336217   1.010   1.900   2.228 -3.2861 -2.5392  0.7079
   73MOL    H7436218   0.950   1.943   2.450 -1.6255  0.2329  1.5634
   73MOL    H7536219   0.861   1.807   2.385  0.1551 -0.0126 -0.9795
   73MOL    H7636220   0.975   1.781   2.505 -0.7364  0.1451  0.4464
   73MOL    C7736221   1.226   1.725   1.663 -0.5505 -0.2097 -1.0484
   73MOL    C7836222   1.124   1.827   1.709 -0.5715 -0.7596 -0.2424
   73MOL    O7936223   1.013   1.805   1.624  0.5011  0.0340  0.6076
   73MOL    C8036224   0.887   1.849   1.676 -0.6245  0.2487 -0.0106
   73MOL    C8136225   0.782   1.780   1.585 -0.2382 -0.9022 -0.3841
   73MOL    C8236226   0.641   1.761   1.645  0.1780 -0.3971  0.1726
   73MOL    C8336227   0.529   1.730   1.547 -0.7367 -0.3551  0.2993
   73MOL    C8436228   0.402   1.704   1.624  0.4678  0.1652  0.5450
   73MOL    C8536229   0.330   1.816   1.693 -0.0408 -0.8389 -0.7527
   73MOL    H8636230   1.236   1.731   1.555 -2.6066  0.8076 -1.1900
   73MOL    H8736231   1.326   1.746   1.703 -1.4588  0.1944  1.0801
   73MOL    H8836232   1.096   1.808   1.813 -1.3865 -2.9639 -0.8396
   73MOL    H8936233   0.889   1.958   1.678 -0.7369  0.2640 -0.7010
   73MOL    H9036234   0.862   1.824   1.780  0.0472  0.3087  0.1633
   73MOL    H9136235   0.816   1.681   1.554 -2.3373 -0.8466 -3.0132
   73MOL    H9236236   0.793   1.836   1.492 -0.6606  0.6053  0.4484
   73MOL    H9336237   0.643   1.692   1.729  2.4380 -0.6055 -0.0266
   73MOL    H9436238   0.613   1.855   1.694 -0.7246 -1.6515  2.1373
   73MOL    H9536239   0.519   1.812   1.476 -2.0491 -0.5548  0.2459
   73MOL    H9636240   0.569   1.645   1.491  1.0529  0.6998 -0.0614
   73MOL    H9736241   0.322   1.672   1.558  1.6517  0.8571 -1.2450
   73MOL    H9836242   0.422   1.625   1.697  0.5701 -1.0691 -0.8123
   73MOL    H9936243   0.227   1.788   1.716  0.2318 -0.0100  1.6018
   73MOL   H10036244   0.376   1.835   1.790 -0.7096 -0.3783 -0.5158
   73MOL   H10136245   0.326   1.902   1.626  1.9058 -0.8084 -0.8518
   73MOL   C10236246   1.169   1.973   1.697 -0.0680  0.6543 -0.2522
   73MOL   C10336247   1.294   2.014   1.774  0.3230 -0.8433  0.0140
   73MOL   O10436248   1.329   2.154   1.735 -0.3573 -0.3002 -0.3380
   73MOL   C10536249   1.468   2.181   1.728  0.4873 -0.1287 -0.1540
   73MOL   C10636250   1.473   2.333   1.679 -0.9812 -0.0139  0.3948
   73MOL   C10736251   1.606   2.414   1.694  0.1342 -0.1147 -0.9585
   73MOL   C10836252   1.589   2.558   1.652  0.6772  0.5011  0.0863
   73MOL   C10936253   1.708   2.649   1.686  0.2213 -0.2246  0.5644
   73MOL   C11036254   1.724   2.681   1.837 -0.4224 -0.4035 -0.2273
   73MOL   H11136255   1.197   1.994   1.594  1.0680  1.4749  0.2151
   73MOL   H11236256   1.088   2.044   1.709 -0.8888 -0.2646 -0.3360
   73MOL   H11336257   1.379   1.952   1.745  0.3803 -0.9557  0.4103
   73MOL   H11436258   1.523   2.114   1.662 -0.4887 -1.0920 -0.0128
   73MOL   H11536259   1.506   2.185   1.830 -0.4558 -0.9452  0.2369
   73MOL   H11636260   1.392   2.396   1.715 -0.6919  0.9866 -0.6690
   73MOL   H11736261   1.450   2.327   1.573 -0.8243 -0.4626  0.3853
   73MOL   H11836262   1.633   2.408   1.800  1.5958 -2.5670 -1.4131
   73MOL   H11936263   1.688   2.366   1.640  0.2557  0.6609 -1.4573
   73MOL   H12036264   1.557   2.563   1.548 -0.5929 -0.4101  0.4272
   73MOL   H12136265   1.504   2.605   1.702  1.2020  0.8329  0.6693
   73MOL   H12236266   1.800   2.600   1.653  0.4589  0.0812  0.7665
   73MOL   H12336267   1.705   2.740   1.627 -0.0880 -0.8147 -0.3411
   73MOL   H12436268   1.801   2.758   1.845 -0.4429 -0.5744  1.6779
   73MOL   H12536269   1.639   2.711   1.898  0.1679 -0.0277  0.4241
   73MOL   H12636270   1.756   2.597   1.897  0.6831 -0.2180 -0.5339
   73MOL   C12736271   1.281   2.016   1.931  0.7919 -0.5531  0.1786
   73MOL   C12836272   1.404   1.968   2.013 -0.9933 -0.2439 -0.6469
   73MOL   O12936273   1.420   1.835   1.973 -0.1553 -0.9509 -0.9503
   73MOL   C13036274   1.545   1.798   1.933 -0.4832  0.4953  0.6878
   73MOL   C13136275   1.538   1.644   1.920 -0.2521  0.6623  0.0389
   73MOL   C13236276   1.520   1.558   2.047 -0.3418  0.1309 -0.1763
   73MOL   C13336277   1.507   1.404   2.018  0.1370 -0.1399  0.2880
   73MOL   C13436278   1.477   1.311   2.131  0.7091 -0.2983  0.4054
   73MOL   C13536279   1.581   1.306   2.242 -0.4541 -0.0701  0.1463
   73MOL   H13636280   1.244   2.116   1.955  2.1980 -0.2035  0.9083
   73MOL   H13736281   1.206   1.942   1.958  0.0183 -0.1337 -0.7485
   73MOL   H13836282   1.484   2.040   1.998  0.4757 -1.2400  1.9770
   73MOL   H13936283   1.615   1.811   2.015 -0.5303  2.3848  0.4500
   73MOL   H14036284   1.571   1.852   1.842 -3.1075  1.0516  0.1995
   73MOL   H14136285   1.626   1.609   1.867 -0.7751  2.5233 -2.1127
   73MOL   H14236286   1.457   1.613   1.853  0.3449 -1.8851  0.4194
   73MOL   H14336287   1.605   1.581   2.111 -0.0837  1.1509 -0.8678
   73MOL   H14436288   1.428   1.586   2.098  0.4647 -1.4764  2.2124
   73MOL   H14536289   1.420   1.397   1.954 -1.1042  1.2596  1.7798
   73MOL   H14636290   1.599   1.373   1.968  1.2284  1.9322  0.9505
   73MOL   H14736291   1.377   1.332   2.168  1.5818 -0.0965  2.7845
   73MOL   H14836292   1.473   1.214   2.083 -2.1073 -0.2350  0.4682
   73MOL   H14936293   1.560   1.231   2.319  0.4050  1.2447  1.6926
   73MOL   H15036294   1.678   1.281   2.200 -0.3345  2.1073 -0.9244
   73MOL   H15136295   1.606   1.400   2.291 -2.3511  0.1026  0.7972
   73MOL   C15236296   1.373   1.974   2.162  0.0156 -0.4555  0.7748
   73MOL   C15336297   1.499   1.966   2.245 -0.2679  0.2214  0.5535
   73MOL   O15436298   1.588   2.073   2.223  0.3393 -0.3734 -0.0787
   73MOL   C15536299   1.729   2.053   2.214 -0.3382  0.4008 -0.3276
   73MOL   C15636300   1.802   2.183   2.189 -0.3788 -0.3501 -0.3838
   73MOL   C15736301   1.786   2.262   2.325 -0.1533 -0.0066  0.3073
   73MOL   C15836302   1.874   2.388   2.328 -0.4027 -0.1337 -0.6021
   73MOL   C15936303   1.858   2.465   2.463  0.3127 -0.7658 -0.0186
   73MOL   C16036304   1.960   2.572   2.486 -0.1786  0.1387 -0.9501
   73MOL   H16136305   1.348   2.080   2.157  0.5719 -0.3509  0.1719
   73MOL   H16236306   1.299   1.899   2.189  1.5434 -2.2751  0.0186
   73MOL   H16336307   1.554   1.878   2.211  1.1437  0.9986  0.7697
   73MOL   H16436308   1.741   1.996   2.122  1.8730 -0.7402  0.6289
   73MOL   H16536309   1.767   2.008   2.306  0.2037  1.5740  0.0217
   73MOL   H16636310   1.761   2.241   2.106 -1.0736 -0.0254  0.1803
   73MOL   H16736311   1.909   2.169   2.178 -0.3934 -1.6850  0.9568
   73MOL   H16836312   1.680   2.285   2.338 -0.0258 -0.5156  2.4452
   73MOL   H16936313   1.803   2.209   2.419  1.5844  0.4718  0.2725
   73MOL   H17036314   1.981   2.371   2.319 -0.5784 -0.3635 -2.5752
   73MOL   H17136315   1.854   2.454   2.243  0.3636  0.6648 -0.1687
   73MOL   H17236316   1.756   2.504   2.458  0.5193 -0.5418 -3.3404
   73MOL   H17336317   1.870   2.392   2.543 -1.6405 -2.1029 -0.9115
   73MOL   H17436318   1.950   2.649   2.410 -1.8535  2.4964  1.5498
   73MOL   H17536319   1.972   2.602   2.591 -0.5564  0.9001 -1.1214
   73MOL   H17636320   2.058   2.526   2.470 -0.2247 -0.4120  0.3013
   73MOL   C17736321   1.471   1.958   2.395 -0.4069  0.9266 -0.2058
   73MOL   C17836322   1.365   2.059   2.446  0.6104 -0.4570  0.0207
   73MOL   O17936323   1.339   2.026   2.582  0.0712  0.1732  0.4097
   73MOL   C18036324   1.221   1.961   2.608  0.0360  0.8305 -0.6373
   73MOL   C18136325   1.230   1.932   2.766  0.8198  1.1453  0.4657
   73MOL   C18236326   1.092   1.923   2.836 -0.8817 -0.1790  0.0501
   73MOL   C18336327   1.092   1.906   2.990  0.0118  0.7521  0.0050
   73MOL   C18436328   0.954   1.864   3.032  0.3574  0.1459 -0.1626
   73MOL   C18536329   0.964   1.777   3.157  0.9913  0.4159  0.3613
   73MOL   H18636330   1.439   1.857   2.417 -0.0097  0.8478  0.0303
   73MOL   H18736331   1.568   1.959   2.446 -0.9448  0.2108  0.8552
   73MOL   H18836332   1.272   2.043   2.392  0.1524  0.3937  0.5400
   73MOL   H18936333   1.211   1.870   2.548  1.4265  0.1022  0.2023
   73MOL   H19036334   1.136   2.029   2.597 -0.4025  0.3184 -0.4687
   73MOL   H19136335   1.293   2.003   2.819 -0.7989  0.7111  3.0026
   73MOL   H19236336   1.290   1.843   2.786  0.6855  1.8426  4.3111
   73MOL   H19336337   1.021   1.997   2.801 -2.2014 -1.8406 -0.8769
   73MOL   H19436338   1.055   1.827   2.798  2.2566 -1.8863  1.0911
   73MOL   H19536339   1.163   1.825   3.009  0.6062  1.7976  2.4761
   73MOL   H19636340   1.131   1.985   3.054 -0.3321 -0.3126  1.5573
   73MOL   H19736341   0.895   1.951   3.062 -1.6267 -1.0488 -0.5388
   73MOL   H19836342   0.904   1.802   2.958  1.2258 -1.0810  0.2653
   73MOL   H19936343   1.038   1.700   3.137 -0.7893 -0.7835 -1.9059
   73MOL   H20036344   0.987   1.837   3.245 -0.1882  1.5774 -0.1000
   73MOL   H20136345   0.869   1.724   3.170  0.9921 -0.6615 -3.2688
   73MOL   C20236346   1.418   2.205   2.438 -0.0786  0.0155  0.7495
   73MOL   C20336347   1.302   2.317   2.449 -0.0986 -0.4622  0.2854
   73MOL   O20436348   1.347   2.446   2.394 -0.1079 -0.4551 -0.1060
   73MOL   C20536349   1.339   2.444   2.255  0.0536 -0.3865 -0.1453
   73MOL   C20636350   1.356   2.582   2.200  0.1027 -0.7198  0.1130
   73MOL   C20736351   1.247   2.682   2.245  1.0560  0.1954  0.4724
   73MOL   C20836352   1.209   2.799   2.147  0.1471 -0.7148  0.3399
   73MOL   C20936353   1.318   2.884   2.090  0.0734  0.2374 -0.3548
   73MOL   C21036354   1.296   2.939   1.946 -0.1023 -0.7948  0.6519
   73MOL   H21136355   1.504   2.224   2.501 -0.5086 -0.7654  1.5927
   73MOL   H21236356   1.451   2.223   2.336 -2.3681 -3.4679 -0.7083
   73MOL   H21336357   1.216   2.299   2.384  0.3410  1.3103 -0.8289
   73MOL   H21436358   1.248   2.401   2.212 -1.2852  0.2685  1.9482
   73MOL   H21536359   1.429   2.393   2.221  1.9503  2.0364  1.0772
   73MOL   H21636360   1.354   2.581   2.091  0.7771  0.6739  0.0624
   73MOL   H21736361   1.451   2.625   2.234 -0.3439  1.1636 -0.9694
   73MOL   H21836362   1.152   2.632   2.258 -0.8013  3.2783 -0.7068
   73MOL   H21936363   1.257   2.712   2.350 -0.4411 -0.0603  0.6898
   73MOL   H22036364   1.146   2.761   2.066 -2.1394  1.4166  1.0437
   73MOL   H22136365   1.144   2.871   2.197 -0.4481 -1.5662  0.8031
   73MOL   H22236366   1.346   2.959   2.164  1.9362 -1.0858  0.3166
   73MOL   H22336367   1.409   2.824   2.088  1.4783  2.2915  0.3529
   73MOL   H22436368   1.257   2.872   1.870  0.0747  1.5627 -1.5992
   73MOL   H22536369   1.218   3.014   1.957 -0.1521 -0.4291 -1.8563
   73MOL   H22636370   1.368   3.004   1.896 -1.5818  0.1133 -0.3439
   73MOL   C22736371   1.260   2.338   2.592 -0.1849  0.2440  1.1371
   73MOL   C22836372   1.142   2.439   2.602 -0.3834 -0.5817  0.0540
   73MOL   O22936373   1.016   2.381   2.575 -0.8499  0.5741  0.5665
   73MOL   C23036374   0.939   2.455   2.487 -0.0942 -0.0423 -0.5475
   73MOL   C23136375   0.813   2.370   2.468 -0.1699  0.0880  0.8936
   73MOL   C23236376   0.829   2.240   2.378  0.0484 -0.2403 -0.1079
   73MOL   C23336377   0.848   2.264   2.228  0.2504 -0.1867  0.8046
   73MOL   C23436378   0.907   2.136   2.157 -0.4548  0.2245 -0.6679
   73MOL   C23536379   0.898   2.123   2.007 -0.2803  0.3561 -0.2102
   73MOL   H23636380   1.234   2.239   2.629 -2.2238 -0.0787 -1.0135
   73MOL   H23736381   1.349   2.369   2.646  0.6640  0.0119 -0.1045
   73MOL   H23836382   1.166   2.518   2.531  1.3423 -2.9684 -2.1074
   73MOL   H23936383   0.988   2.491   2.397 -0.2038 -0.2320 -0.6845
   73MOL   H24036384   0.905   2.536   2.551  0.8887 -0.3664  0.4008
   73MOL   H24136385   0.728   2.429   2.432 -0.4962  0.2698  1.9557
   73MOL   H24236386   0.796   2.338   2.571 -0.4021  0.3541  0.9380
   73MOL   H24336387   0.908   2.171   2.405  0.3643 -0.1472 -0.7991
   73MOL   H24436388   0.735   2.187   2.396 -0.3602 -1.2272 -4.6766
   73MOL   H24536389   0.748   2.288   2.192 -0.5832  0.3842  3.4059
   73MOL   H24636390   0.901   2.355   2.201 -0.1781 -0.8645 -2.5723
   73MOL   H24736391   1.013   2.123   2.181 -0.3844 -1.3243 -1.7542
   73MOL   H24836392   0.850   2.050   2.193 -0.3305 -0.5278 -2.2003
   73MOL   H24936393   0.942   2.216   1.974  0.9905 -1.1847 -3.0458
   73MOL   H25036394   0.961   2.044   1.965  0.5267  0.0267  1.5564
   73MOL   H25136395   0.796   2.120   1.968 -0.7565  1.2312  0.9358
   73MOL   C25236396   1.127   2.498   2.744  0.0403  0.1995  0.1507
   73MOL   C25336397   1.247   2.564   2.825  0.3244 -0.2519  0.2651
   73MOL   O25436398   1.191   2.628   2.942  0.4405 -0.4343 -0.1056
   73MOL   C25536399   1.205   2.550   3.059  0.2317 -0.8081 -1.0372
   73MOL   C25636400   1.156   2.633   3.185 -0.0557 -0.0701  0.1565
   73MOL   C25736401   1.146   2.541   3.315 -0.3224  0.1573  0.3149
   73MOL   C25836402   1.066   2.599   3.436 -0.7937  0.0399 -0.6430
   73MOL   C25936403   1.103   2.743   3.463 -0.5213 -0.0238 -0.6610
   73MOL   C26036404   1.035   2.802   3.586  0.4440  0.3457  0.1363
   73MOL   H26136405   1.057   2.579   2.727  1.0298  1.1234  0.4294
   73MOL   H26236406   1.079   2.425   2.810 -1.3342 -1.3588 -2.5164
   73MOL   H26336407   1.317   2.486   2.856  0.6712  0.3348  1.0013
   73MOL   H26436408   1.307   2.513   3.065  0.4052 -0.5815 -2.4209
   73MOL   H26536409   1.143   2.460   3.050 -0.1536 -0.8780  1.8110
   73MOL   H26636410   1.059   2.679   3.163  0.5967  1.7485  1.0044
   73MOL   H26736411   1.233   2.705   3.211  0.0433 -0.2253  0.2958
   73MOL   H26836412   1.098   2.447   3.290  1.0525 -0.5977  0.4773
   73MOL   H26936413   1.246   2.527   3.355 -0.7071 -0.1980  1.1756
   73MOL   H27036414   0.960   2.585   3.418 -1.0173 -0.0464  0.7017
   73MOL   H27136415   1.088   2.535   3.521  2.7589 -0.4108 -1.8115
   73MOL   H27236416   1.211   2.762   3.466 -0.2824 -1.3285 -0.7978
   73MOL   H27336417   1.069   2.794   3.374  0.2092 -0.8569 -1.4244
   73MOL   H27436418   1.053   2.910   3.587 -0.4503  0.4885  1.6782
   73MOL   H27536419   0.927   2.785   3.588  0.3429  0.9891  0.1556
   73MOL   H27636420   1.082   2.778   3.681 -1.2488  1.3157  1.2469
   73MOL   C27736421   1.318   2.675   2.741 -0.1567  0.2412 -0.1356
   73MOL   C27836422   1.448   2.722   2.798 -0.1514  0.1524 -0.2817
   73MOL   O27936423   1.537   2.608   2.789 -0.1788  0.1207  0.4184
   73MOL   C28036424   1.642   2.602   2.882 -0.4093 -0.5720  0.6319
   73MOL   C28136425   1.776   2.543   2.827 -0.2431 -0.1336 -0.0472
   73MOL   C28236426   1.885   2.509   2.926 -0.3069 -0.1928  0.2363
   73MOL   C28336427   2.019   2.458   2.879 -0.8608  0.2817  0.2372
   73MOL   C28436428   2.105   2.402   2.995  0.5653 -0.1243 -0.1228
   73MOL   C28536429   2.239   2.339   2.957  0.8174  0.4999 -0.2616
   73MOL   H28636430   1.329   2.635   2.640 -1.5937  1.1027 -0.6612
   73MOL   H28736431   1.255   2.764   2.731  0.6985  1.0049  1.1388
   73MOL   H28836432   1.431   2.749   2.902 -0.1502 -1.1648  0.0698
   73MOL   H28936433   1.613   2.544   2.970 -0.2552 -0.3521  0.8296
   73MOL   H29036434   1.658   2.705   2.913 -1.4911  1.1049 -4.0170
   73MOL   H29136435   1.817   2.611   2.752  0.3417 -0.4322 -0.0017
   73MOL   H29236436   1.749   2.454   2.771  0.2598 -0.1121 -0.3300
   73MOL   H29336437   1.889   2.582   3.007 -0.1331  1.9426 -1.6480
   73MOL   H29436438   1.838   2.416   2.959 -1.6247  0.4704  0.2742
   73MOL   H29536439   2.004   2.379   2.806 -0.9061 -0.4304  1.0194
   73MOL   H29636440   2.075   2.533   2.822 -1.1732  0.1256 -0.2768
   73MOL   H29736441   2.116   2.475   3.075 -0.4242  0.3574 -0.4160
   73MOL   H29836442   2.050   2.322   3.044 -1.5349  0.9294 -0.6963
   73MOL   H29936443   2.291   2.418   2.903  0.1596  1.3895  0.4026
   73MOL   H30036444   2.299   2.319   3.046  2.5225  0.4611 -1.3939
   73MOL   H30136445   2.228   2.252   2.893  1.8572 -0.4652  0.8377
   73MOL   C30236446   1.506   2.834   2.711 -0.5529 -0.1450  0.7421
   73MOL   C30336447   1.415   2.962   2.701 -0.3117 -0.2580  0.5111
   73MOL   O30436448   1.496   3.066   2.647 -0.5311  0.3417 -0.1589
   73MOL   C30536449   1.493   3.076   2.501  0.2326  0.0254  0.2679
   73MOL   C30636450   1.563   3.210   2.471  0.5356 -0.0865  0.0786
   73MOL   C30736451   1.548   3.252   2.322 -0.6395 -0.6288 -0.4531
   73MOL   C30836452   1.667   3.343   2.284 -0.2868 -0.5306 -0.1904
   73MOL   C30936453   1.644   3.490   2.336  0.0059 -0.2479 -0.3347
   73MOL   C31036454   1.737   3.599   2.278 -0.4667 -0.0851 -0.5414
   73MOL   H31136455   1.609   2.858   2.741  0.2656 -0.0243 -1.9958
   73MOL   H31236456   1.516   2.794   2.610  0.3661 -1.5081  1.3647
   73MOL   H31336457   1.335   2.950   2.627 -0.1655 -0.0855  0.3241
   73MOL   H31436458   1.391   3.089   2.464  0.2245 -0.3289  0.1642
   73MOL   H31536459   1.536   2.990   2.450 -1.1113 -0.5248  0.0430
   73MOL   H31636460   1.668   3.204   2.498  0.0508 -1.6545  1.6636
   73MOL   H31736461   1.518   3.287   2.533  0.2415  1.6501 -2.2089
   73MOL   H31836462   1.559   3.161   2.263 -0.4851 -0.9662  0.0892
   73MOL   H31936463   1.456   3.303   2.295 -1.1103 -2.6342 -2.8182
   73MOL   H32036464   1.766   3.312   2.317  0.1653  1.2359  0.1970
   73MOL   H32136465   1.669   3.345   2.175 -0.1947  0.2651 -0.1812
   73MOL   H32236466   1.547   3.524   2.300 -0.8581 -0.6053  1.6385
   73MOL   H32336467   1.644   3.476   2.444  3.3383  0.1754 -0.2176
   73MOL   H32436468   1.716   3.630   2.176 -0.3295 -1.1983 -0.9164
   73MOL   H32536469   1.733   3.691   2.336  0.5091 -2.4690  3.5592
   73MOL   H32636470   1.843   3.574   2.291 -0.6054  0.8741  2.9030
   73MOL   C32736471   1.350   3.012   2.835 -0.4111 -0.1285  0.6334
   73MOL   C32836472   1.234   3.110   2.819  0.2880 -0.0379  0.0282
   73MOL   O32936473   1.110   3.080   2.885  0.0727  0.5552  0.0953
   73MOL   C33036474   1.021   2.985   2.826 -0.1478  0.1777  1.0695
   73MOL   C33136475   0.927   2.916   2.925 -0.7037 -0.2685  0.5087
   73MOL   C33236476   0.836   2.809   2.868 -0.3799 -0.8715 -0.1856
   73MOL   C33336477   0.747   2.745   2.972  0.5271 -0.0268  0.0051
   73MOL   C33436478   0.688   2.604   2.930 -0.7244 -0.2235 -0.2286
   73MOL   C33536479   0.555   2.614   2.852 -0.0013 -0.2801  0.3721
   73MOL   H33636480   1.428   3.058   2.895 -1.3104  0.5487  1.2936
   73MOL   H33736481   1.306   2.935   2.898  0.4274 -1.0697  0.0894
   73MOL   H33836482   1.211   3.127   2.714 -1.9213 -0.8088  0.3645
   73MOL   H33936483   1.075   2.904   2.776 -0.7471  0.8187 -0.6590
   73MOL   H34036484   0.963   3.034   2.748  1.0379  0.0750  0.0978
   73MOL   H34136485   0.868   2.992   2.977 -1.1406  2.0988 -3.2686
   73MOL   H34236486   0.993   2.868   2.997 -1.9261  0.3556  2.0688
   73MOL   H34336487   0.773   2.842   2.785  0.0803  3.5039  1.0683
   73MOL   H34436488   0.897   2.729   2.829 -0.0193 -0.7788  0.1846
   73MOL   H34536489   0.806   2.726   3.062 -1.0137  0.3884  1.1113
   73MOL   H34636490   0.662   2.803   3.008  0.6801 -1.2767  2.4494
   73MOL   H34736491   0.770   2.549   2.883  0.2551  0.4016  0.7554
   73MOL   H34836492   0.670   2.539   3.016 -1.4785 -0.2805 -0.4195
   73MOL   H34936493   0.571   2.657   2.752 -2.0568 -0.8161 -0.2189
   73MOL   H35036494   0.491   2.527   2.842 -0.0866 -0.0864 -0.9324
   73MOL   H35136495   0.484   2.684   2.897 -1.4652 -2.1009  0.9223
   73MOL   C35236496   1.277   3.245   2.875  0.7688 -0.3903  0.8098
   73MOL   C35336497   1.181   3.353   2.847 -0.1659 -0.5446  0.8302
   73MOL   O35436498   1.184   3.376   2.708  0.0235 -0.5956  0.0621
   73MOL   C35536499   1.052   3.389   2.644  1.1790 -0.4938  0.6993
   73MOL   C35636500   1.073   3.439   2.499  0.3688 -1.0090  0.5284
   73MOL   C35736501   1.119   3.339   2.396 -0.2889  0.8657  0.6216
   73MOL   C35836502   1.166   3.397   2.263 -0.0877  0.2638 -0.0941
   73MOL   C35936503   1.185   3.279   2.161  0.2642  0.3497 -0.1365
   73MOL   C36036504   1.204   3.343   2.026 -0.3622  0.2763  0.5416
   73MOL   H36136505   1.298   3.228   2.981 -0.3953  0.1986  1.1446
   73MOL   H36236506   1.372   3.269   2.829  1.2174 -3.1372  0.1668
   73MOL   H36336507   1.080   3.327   2.879  0.1150 -0.3182  1.9098
   73MOL   H36436508   1.006   3.475   2.693  0.4575  0.5302 -1.7160
   73MOL   H36536509   0.998   3.295   2.638 -1.8036  1.2890 -1.6692
   73MOL   H36636510   1.123   3.535   2.488 -1.3092 -0.2647 -0.6847
   73MOL   H36736511   0.972   3.472   2.476  1.2796  2.0557  0.7495
   73MOL   H36836512   1.190   3.275   2.449  0.4990 -1.0495 -2.5972
   73MOL   H36936513   1.031   3.278   2.375  0.9552 -0.5559 -0.5944
   73MOL   H37036514   1.089   3.456   2.213  0.6794  0.3933 -1.1280
   73MOL   H37136515   1.262   3.448   2.271  0.6340 -1.0289 -0.3939
   73MOL   H37236516   1.264   3.213   2.198  0.1748  0.7848  0.8613
   73MOL   H37336517   1.100   3.212   2.150 -2.3526  3.4652  0.3174
   73MOL   H37436518   1.266   3.433   2.035 -2.0837  1.5628 -0.1556
   73MOL   H37536519   1.232   3.266   1.954  1.8315  2.1296 -0.6644
   73MOL   H37636520   1.110   3.390   1.997  0.0977  0.5166 -0.6229
   73MOL   C37736521   1.225   3.496   2.897  0.1473 -0.1855  0.5341
   73MOL   C37836522   1.230   3.518   3.053  0.0049  0.2029 -0.7903
   73MOL   O37936523   1.344   3.466   3.124  0.4426 -0.3886 -0.8337
   73MOL   C38036524   1.474   3.531   3.111 -0.1726 -0.2204  0.7207
   73MOL   C38136525   1.569   3.488   3.230  0.6857 -0.5449 -0.1871
   73MOL   C38236526   1.604   3.338   3.231  0.1969 -0.1599  1.0207
   73MOL   C38336527   1.707   3.293   3.132 -0.0697  0.7121 -0.7801
   73MOL   C38436528   1.642   3.209   3.013  0.5636 -0.0256 -0.5058
   73MOL   C38536529   1.745   3.194   2.895  0.1377 -0.2385 -0.0839
   73MOL   H38636530   1.318   3.528   2.851 -1.0917  2.3613 -0.2501
   73MOL   H38736531   1.158   3.576   2.867 -1.0395 -1.4603 -0.3124
   73MOL   H38836532   1.245   3.626   3.056 -0.1205  0.1948  0.3835
   73MOL   H38936533   1.461   3.639   3.113 -0.8471 -0.2521 -0.8214
   73MOL   H39036534   1.514   3.488   3.019 -0.6238 -3.8928  2.1507
   73MOL   H39136535   1.513   3.515   3.320  0.0134 -0.7493 -0.5352
   73MOL   H39236536   1.660   3.547   3.235  1.0802 -1.2653  1.8934
   73MOL   H39336537   1.658   3.323   3.324  1.3084  0.2673  0.4492
   73MOL   H39436538   1.513   3.277   3.231  0.6531 -0.8601  0.1460
   73MOL   H39536539   1.771   3.376   3.101  0.5488  0.7078  0.4624
   73MOL   H39636540   1.769   3.221   3.186  0.6597  0.9040 -1.3464
   73MOL   H39736541   1.604   3.116   3.054  0.4168  0.2534  0.0002
   73MOL   H39836542   1.559   3.271   2.976  0.9677  0.1671 -1.0896
   73MOL   H39936543   1.744   3.279   2.827  2.6748 -1.5631 -1.8663
   73MOL   H40036544   1.847   3.178   2.931 -0.3827  1.2551  2.1989
   73MOL   H40136545   1.708   3.111   2.836 -1.6206  0.5005 -0.0404
   73MOL   C40236546   1.105   3.475   3.132 -0.5423 -0.4838  0.1018
   73MOL   C40336547   0.981   3.547   3.079 -0.0344  0.7087 -0.0294
   73MOL   O40436548   1.000   3.690   3.105  0.2250 -0.3694 -1.0810
   73MOL   C40536549   0.965   3.773   2.994  0.5214 -0.5212 -0.2462
   73MOL   C40636550   1.023   3.911   3.014  0.0303  0.0268  0.2046
   73MOL   C40736551   1.172   3.920   2.981  1.2995 -0.4423 -0.0776
   73MOL   C40836552   1.238   4.043   3.044  0.1133 -0.1920  0.1443
   73MOL   C40936553   1.390   4.029   3.025 -0.0703  0.0268  0.7149
   73MOL   C41036554   1.479   4.145   3.084  0.4590 -0.2201  0.1572
   73MOL   H41136555   1.121   3.497   3.238  2.0870 -0.8559 -0.1862
   73MOL   H41236556   1.098   3.368   3.111  0.9340 -0.3868 -0.9229
   73MOL   H41336557   0.970   3.521   2.974 -0.1912 -3.7647  0.9826
   73MOL   H41436558   0.858   3.769   2.973  0.3581  3.2881 -0.4633
   73MOL   H41536559   1.020   3.724   2.914  0.7113  1.4203 -1.3375
   73MOL   H41636560   1.013   3.927   3.121  1.4670 -1.1072  0.5197
   73MOL   H41736561   0.962   3.985   2.962 -1.0414 -0.9666  0.0162
   73MOL   H41836562   1.224   3.833   3.021  2.0413  0.0588  0.0685
   73MOL   H41936563   1.190   3.920   2.873 -0.2287  0.1419 -0.3449
   73MOL   H42036564   1.214   4.135   2.990  0.5615 -0.8088 -1.1439
   73MOL   H42136565   1.205   4.059   3.146  1.1670  1.4083  0.2483
   73MOL   H42236566   1.421   3.937   3.074  2.0304  1.4894  2.1502
   73MOL   H42336567   1.417   4.011   2.921 -1.0748  0.9982  0.2761
   73MOL   H42436568   1.584   4.135   3.059  0.1767 -1.4391 -0.5939
   73MOL   H42536569   1.435   4.237   3.046 -0.6714 -0.3826  1.0280
   73MOL   H42636570   1.480   4.142   3.193  0.1629 -0.0466  0.1674
   73MOL   C42736571   0.858   3.512   3.167  0.4625  0.0671 -0.2483
   73MOL   C42836572   0.730   3.499   3.078 -0.0473  0.0655 -0.0645
   73MOL   O42936573   0.746   3.399   2.974  0.6798  0.0948  0.7465
   73MOL   C43036574   0.730   3.450   2.842 -0.5111  0.0244  0.2110
   73MOL   C43136575   0.713   3.324   2.743 -0.2428  0.2077 -0.9019
   73MOL   C43236576   0.585   3.232   2.771  0.1057  0.4991 -0.0210
   73MOL   C43336577   0.591   3.111   2.681  0.4467 -0.3679  0.2427
   73MOL   C43436578   0.472   3.015   2.679  0.4942  0.3650 -0.1805
   73MOL   C43536579   0.470   2.910   2.565  0.0575 -0.5385 -0.3884
   73MOL   H43636580   0.882   3.414   3.208  1.3106  1.1308  1.8675
   73MOL   H43736581   0.845   3.581   3.250  1.0488 -1.7711  1.3924
   73MOL   H43836582   0.702   3.600   3.048 -0.4063 -0.1110 -0.3332
   73MOL   H43936583   0.820   3.504   2.810 -0.6391  0.8254  1.1833
   73MOL   H44036584   0.648   3.520   2.825  0.8346  0.5032 -5.5153
   73MOL   H44136585   0.801   3.261   2.751 -0.5987 -0.1859 -0.0957
   73MOL   H44236586   0.714   3.357   2.639  0.2491  1.3658 -0.5306
   73MOL   H44336587   0.580   3.197   2.874 -1.3908  0.6956 -0.0064
   73MOL   H44436588   0.499   3.292   2.741  0.4274  1.6500  1.2601
   73MOL   H44536589   0.610   3.157   2.584 -0.6956 -0.6062 -0.1024
   73MOL   H44636590   0.679   3.055   2.711  0.3206 -0.0028  1.3325
   73MOL   H44736591   0.480   2.954   2.769  0.3554  0.9166  0.2040
   73MOL   H44836592   0.378   3.070   2.683  0.2600 -0.0169 -0.3484
   73MOL   H44936593   0.444   2.960   2.472 -2.4416 -0.6739  0.2130
   73MOL   H45036594   0.565   2.859   2.550  0.7097  1.1297 -2.1105
   73MOL   H45136595   0.382   2.846   2.576 -0.3756  0.0764 -0.2375
   73MOL   C45236596   0.622   3.442   3.165 -0.5689 -0.0821  0.1103
   73MOL   C45336597   0.482   3.446   3.095 -0.1252  0.0357 -0.2509
   73MOL   O45436598   0.441   3.578   3.125 -0.0942 -0.0347  0.1434
   73MOL   C45536599   0.354   3.632   3.025 -0.4485  0.1328  0.0288
   73MOL   C45636600   0.353   3.784   3.041 -0.5708 -0.6728 -0.5391
   73MOL   C45736601   0.494   3.847   3.023 -0.1963  0.1937  0.4961
   73MOL   C45836602   0.504   3.995   3.047 -0.2027  0.7359 -0.5147
   73MOL   C45936603   0.654   4.025   3.053 -0.0467  0.0924 -0.0214
   73MOL   C46036604   0.686   4.160   3.108 -0.9769  0.2640 -0.0340
   73MOL   H46136605   0.631   3.340   3.203 -0.4687 -0.9648 -2.2452
   73MOL   H46236606   0.607   3.499   3.257 -0.1702  0.1963  0.0021
   73MOL   H46336607   0.503   3.433   2.989  1.0900 -0.2920  0.0206
   73MOL   H46436608   0.255   3.589   3.043  1.1803 -4.0559 -0.4920
   73MOL   H46536609   0.385   3.597   2.927  1.0182 -2.1377  1.2560
   73MOL   H46636610   0.306   3.819   3.133  1.0334 -1.5425  0.6354
   73MOL   H46736611   0.287   3.833   2.971 -0.8444 -0.3028 -0.0228
   73MOL   H46836612   0.564   3.789   3.083  1.6322  0.8145 -0.9772
   73MOL   H46936613   0.527   3.840   2.920  1.2287  0.7080  0.8997
   73MOL   H47036614   0.460   4.063   2.974  0.4429 -0.0295 -1.6363
   73MOL   H47136615   0.456   4.015   3.143  1.8506  0.9383  0.5005
   73MOL   H47236616   0.706   3.950   3.112  1.4118  1.4867  0.5046
   73MOL   H47336617   0.696   4.027   2.952 -0.2813 -2.2011 -0.1737
   73MOL   H47436618   0.655   4.236   3.036  2.8069  2.6498  0.7022
   73MOL   H47536619   0.648   4.170   3.209  1.2131 -1.7809  1.0401
   73MOL   H47636620   0.794   4.175   3.115 -0.7585 -1.9246  1.6118
   73MOL   C47736621   0.386   3.332   3.155  0.0861  0.3948  0.0901
   73MOL   C47836622   0.381   3.202   3.077  0.1442  0.3191 -0.2284
   73MOL   O47936623   0.276   3.123   3.132 -0.5981  0.1708 -0.0604
   73MOL   C48036624   0.253   2.999   3.064 -0.3762  0.4079  0.1304
   73MOL   C48136625   0.131   2.950   3.127 -0.0869  0.2727 -0.3002
   73MOL   C48236626   0.150   2.879   3.261 -0.0108 -0.2474 -0.2579
   73MOL   C48336627   0.024   2.816   3.324  0.1041  0.0832 -0.4216
   73MOL   C48436628   0.043   2.780   3.477  0.3647 -0.9461  0.2430
   73MOL   C48536629   7.692   2.751   3.548 -0.4243 -0.0092 -0.5933
   73MOL   H48636630   0.376   3.317   3.263 -0.2378 -2.7240 -0.3364
   73MOL   H48736631   0.295   3.384   3.125  1.3644  2.4797 -0.3500
   73MOL   H48836632   0.375   3.226   2.970 -1.1790  1.2826  0.0421
   73MOL   H48936633   0.334   2.928   3.083 -2.2834 -1.6340  0.8285
   73MOL   H49036634   0.244   3.012   2.956  0.0799  1.0443  0.1631
   73MOL   H49136635   0.071   2.888   3.060 -1.3955  1.4454 -0.2393
   73MOL   H49236636   0.076   3.040   3.153 -0.2080 -0.0247  0.4942
   73MOL   H49336637   0.228   2.803   3.251  1.5399  1.1255  1.1951
   73MOL   H49436638   0.184   2.949   3.337  0.4368  0.3712 -1.0275
   73MOL   H49536639   7.736   2.901   3.307 -0.1238  0.2889  1.3986
   73MOL   H49636640   7.768   2.729   3.268  0.7124 -1.2628  1.2562
   73MOL   H49736641   0.100   2.687   3.484  0.8768 -0.5421  1.5156
   73MOL   H49836642   0.097   2.847   3.543  0.9604  0.7833 -1.9318
   73MOL   H49936643   7.647   2.654   3.525 -2.1070  0.1353  1.8062
   73MOL   H50036644   7.709   2.748   3.656  0.4580  1.5400 -0.6839
   73MOL   H50136645   7.618   2.830   3.540  0.2934  0.6629 -0.6495
   73MOL   H50236646   0.471   3.141   3.084  0.3569  0.5950 -0.5378
   74MOL     C136647   0.489   4.232   7.663  0.5965 -0.5173 -0.5199
   74MOL     C236648   0.506   4.303   0.024  0.2859 -0.1826  0.0502
   74MOL     O336649   0.469   4.198   0.118  0.1605 -0.2500 -0.0167
   74MOL     C436650   0.577   4.121   0.171  0.1360  0.0203  0.1936
   74MOL     C536651   0.523   4.008   0.262  0.5262 -0.1836  0.1781
   74MOL     C636652   0.624   3.907   0.315 -0.3372  0.4502 -0.4716
   74MOL     C736653   0.570   3.838   0.439  0.1008 -0.4595 -0.6349
   74MOL     C836654   0.682   3.767   0.525  0.0728 -0.2803 -0.2591
   74MOL     C936655   0.621   3.696   0.645 -0.5357  0.4045 -0.1759
   74MOL    H1036656   0.387   4.195   7.656 -0.4526  2.0755  0.5118
   74MOL    H1136657   0.523   4.296   7.581  1.0312  0.4418  0.4040
   74MOL    H1236658   0.612   4.324   0.038  1.2563 -2.3225 -3.4951
   74MOL    H1336659   0.646   4.191   0.218 -1.2389  0.9923  0.7916
   74MOL    H1436660   0.641   4.069   0.099 -1.4112  0.8437 -1.8119
   74MOL    H1536661   0.434   3.957   0.226 -0.7527  1.5559  0.8196
   74MOL    H1636662   0.480   4.070   0.341 -1.3516 -1.7770  0.4282
   74MOL    H1736663   0.658   3.830   0.246  0.0577 -0.7423  1.0387
   74MOL    H1836664   0.717   3.952   0.351  0.2774 -0.4023 -0.9973
   74MOL    H1936665   0.518   3.909   0.503 -0.0070 -0.5360 -0.6365
   74MOL    H2036666   0.487   3.769   0.423 -0.3778 -0.9878  3.5667
   74MOL    H2136667   0.758   3.837   0.560  0.4373 -1.2009  0.8536
   74MOL    H2236668   0.737   3.687   0.476  0.8033 -0.7307  1.2462
   74MOL    H2336669   0.693   3.680   0.725 -3.0319  2.7662  2.6294
   74MOL    H2436670   0.541   3.748   0.696 -3.6090 -3.8041 -0.4787
   74MOL    H2536671   0.570   3.603   0.619 -1.3708 -0.0611  3.0170
   74MOL    H2636672   0.552   4.143   7.651  0.4181 -0.4280 -2.2227
   74MOL    C2736673   0.427   4.426   0.054  0.4348  0.0329 -0.6589
   74MOL    C2836674   0.456   4.481   0.198 -0.3939  0.3966  0.4215
   74MOL    O2936675   0.595   4.466   0.240  0.8660 -0.4161 -0.0436
   74MOL    C3036676   0.640   4.507   0.369  0.1343  0.0141 -0.1077
   74MOL    C3136677   0.780   4.456   0.398  0.5390 -0.7208 -0.8645
   74MOL    C3236678   0.854   4.546   0.498 -0.2220  0.1895  0.8275
   74MOL    C3336679   1.002   4.506   0.509  0.1043  0.0836 -0.1256
   74MOL    C3436680   1.074   4.565   0.630  0.1287 -0.2232  0.1476
   74MOL    C3536681   1.232   4.557   0.626  0.4105  0.1582  0.3986
   74MOL    H3636682   0.459   4.501   7.760 -1.0012  2.4518  1.1064
   74MOL    H3736683   0.321   4.412   0.031  0.2537 -0.7419  0.6047
   74MOL    H3836684   0.396   4.422   0.268 -0.6873  0.5179  0.2746
   74MOL    H3936685   0.576   4.477   0.452  0.6472 -0.7872  0.0096
   74MOL    H4036686   0.649   4.615   0.368  1.2458 -0.0616 -2.8292
   74MOL    H4136687   0.837   4.447   0.305  0.5464  1.2906 -1.0768
   74MOL    H4236688   0.775   4.355   0.440 -1.8731 -0.3815 -0.3006
   74MOL    H4336689   0.861   4.650   0.467 -1.6495 -0.0758 -0.4470
   74MOL    H4436690   0.798   4.543   0.592 -0.4855 -1.7823  0.6372
   74MOL    H4536691   1.015   4.398   0.519 -2.4650 -0.4513 -2.0258
   74MOL    H4636692   1.061   4.541   0.424 -0.9594  2.1824 -0.0235
   74MOL    H4736693   1.059   4.673   0.627 -1.6232 -0.4678 -0.7772
   74MOL    H4836694   1.028   4.530   0.722  0.6285 -0.0204  0.4764
   74MOL    H4936695   1.279   4.607   0.711  1.0334 -2.1495  1.4416
   74MOL    H5036696   1.269   4.455   0.624 -0.7858 -0.3532  2.6232
   74MOL    H5136697   1.265   4.600   0.531 -0.0032 -1.1002 -0.3228
   74MOL    C5236698   0.398   4.628   0.213 -0.3417 -0.5010  0.5383
   74MOL    C5336699   0.251   4.647   0.170 -0.5139 -0.7974  0.1708
   74MOL    O5436700   0.185   4.555   0.250  0.1042  0.1881  0.2647
   74MOL    C5536701   0.058   4.516   0.203  0.7606 -0.2407  0.1289
   74MOL    C5636702   7.751   4.437   0.314  0.2790 -0.4477  0.5494
   74MOL    C5736703   7.611   4.406   0.284 -0.9553  0.0192  0.2387
   74MOL    C5836704   7.523   4.353   0.396 -0.4648  0.3105  0.2644
   74MOL    C5936705   7.594   4.232   0.464 -0.3021  0.3609 -0.0622
   74MOL    C6036706   7.496   4.140   0.553  0.4898 -1.0266 -0.2941
   74MOL    H6136707   0.458   4.691   0.147  1.7406 -0.9466  1.9638
   74MOL    H6236708   0.409   4.672   0.312 -2.5453  0.7502  0.2598
   74MOL    H6336709   0.257   4.627   0.063  0.2560 -3.9079  0.7667
   74MOL    H6436710   0.068   4.465   0.107  0.1257  1.0600 -0.6405
   74MOL    H6536711   0.006   4.609   0.179  0.2622  0.0098  2.0762
   74MOL    H6636712   7.745   4.494   0.407 -1.3825  2.0913 -1.0715
   74MOL    H6736713   0.026   4.343   0.331 -1.4615 -1.5283  0.1772
   74MOL    H6836714   7.566   4.500   0.252  0.2727  0.5685  0.0561
   74MOL    H6936715   7.594   4.355   0.189  0.9379  0.1615 -0.1996
   74MOL    H7036716   7.502   4.434   0.465 -3.0917 -0.4505  0.4090
   74MOL    H7136717   7.428   4.321   0.352 -0.1494 -1.5283  0.8571
   74MOL    H7236718   7.624   4.164   0.384  2.0840  1.3252 -0.0324
   74MOL    H7336719   7.686   4.261   0.514 -0.8971 -1.3203  2.0919
   74MOL    H7436720   7.417   4.091   0.496  0.0442 -1.1738  0.4411
   74MOL    H7536721   7.556   4.065   0.604 -0.7271  0.1122  2.8944
   74MOL    H7636722   7.457   4.203   0.632  2.6109  0.7361 -0.6051
   74MOL    C7736723   0.197   4.800   0.191 -0.1431  0.3392  0.1942
   74MOL    C7836724   0.252   4.912   0.096  0.4397 -0.4836  0.2163
   74MOL    O7936725   0.391   4.933   0.122  0.6158 -0.6865 -0.0990
   74MOL    C8036726   0.423   5.019   0.235  0.0557  0.2642 -0.1662
   74MOL    C8136727   0.578   5.034   0.258 -0.1100 -0.0127  0.0004
   74MOL    C8236728   0.645   4.905   0.305  0.2977  0.2507 -0.1365
   74MOL    C8336729   0.796   4.920   0.297 -0.2732  0.0779 -0.0909
   74MOL    C8436730   0.849   5.006   0.412  0.6360 -0.2477  0.3299
   74MOL    C8536731   0.999   5.024   0.397 -0.3799  0.2910 -0.1082
   74MOL    H8636732   0.204   4.819   0.298  0.4464  0.0166  0.2150
   74MOL    H8736733   0.090   4.803   0.173 -0.4568 -0.3128  1.8414
   74MOL    H8836734   0.242   4.865   7.776  0.7717  0.2143 -0.1507
   74MOL    H8936735   0.384   4.976   0.327 -1.1827  0.0133 -0.7969
   74MOL    H9036736   0.371   5.115   0.231  0.5185  0.5341  0.3065
   74MOL    H9136737   0.598   5.097   0.344 -0.3044 -0.9294  0.7338
   74MOL    H9236738   0.626   5.088   0.176 -0.5128 -1.6272 -1.3403
   74MOL    H9336739   0.595   4.880   0.398  1.9509 -0.6869  0.5249
   74MOL    H9436740   0.630   4.810   0.253  1.2160  0.2878 -0.4900
   74MOL    H9536741   0.837   4.820   0.304  0.7177  0.3363 -2.0701
   74MOL    H9636742   0.818   4.960   0.198 -1.9823  1.4614  0.0362
   74MOL    H9736743   0.796   5.100   0.394 -1.1981 -0.9193  1.9982
   74MOL    H9836744   0.826   4.963   0.510  1.9910 -0.3154  0.6198
   74MOL    H9936745   1.052   4.939   0.353 -0.9053 -1.2255  2.1219
   74MOL   H10036746   1.025   5.111   0.337  0.1784  1.1626  1.3659
   74MOL   H10136747   1.032   5.045   0.499  2.2087  0.4942 -0.9530
   74MOL   C10236748   0.161   5.043   0.100  0.1188 -0.3189 -0.4127
   74MOL   C10336749   0.184   5.151   7.768  0.2231 -0.7839  0.1653
   74MOL   O10436750   0.144   5.083   7.650  0.0064  0.7212  0.3446
   74MOL   C10536751   0.242   5.061   7.546 -0.7017 -0.3017  0.6147
   74MOL   C10636752   0.161   5.002   7.427  0.5135  0.7851  0.4234
   74MOL   C10736753   0.098   4.859   7.459 -0.3528 -0.2941 -0.2720
   74MOL   C10836754   0.196   4.743   7.456 -0.2767 -0.5719  0.0587
   74MOL   C10936755   0.122   4.614   7.488  0.3363  0.3749 -0.2440
   74MOL   C11036756   0.218   4.488   7.497 -0.0817  0.2339 -0.1973
   74MOL   H11136757   0.057   5.013   0.094  0.5222 -2.4225  2.0931
   74MOL   H11236758   0.168   5.098   0.195 -0.9996  1.2232 -1.2068
   74MOL   H11336759   0.286   5.189   7.771 -0.5788  1.3113  1.6037
   74MOL   H11436760   0.317   4.987   7.573 -0.7151  0.1072  1.7926
   74MOL   H11536761   0.294   5.148   7.506 -0.4632  0.8226  3.2614
   74MOL   H11636762   0.211   4.995   7.330  0.8454 -0.2260  0.6554
   74MOL   H11736763   0.081   5.071   7.400  0.3774  0.3752 -0.2483
   74MOL   H11836764   0.068   4.875   7.562 -0.0494  2.2769 -0.5500
   74MOL   H11936765   0.013   4.846   7.392  0.1553  1.2730 -1.2585
   74MOL   H12036766   0.230   4.747   7.352  0.4916 -1.0418  0.2940
   74MOL   H12136767   0.282   4.765   7.519  0.5610 -0.0300 -1.2464
   74MOL   H12236768   0.080   4.629   7.587 -0.1641 -4.9726  0.5232
   74MOL   H12336769   0.043   4.588   7.416 -0.0775 -0.1112  0.3792
   74MOL   H12436770   0.309   4.504   7.554  0.8947 -1.7950 -1.1529
   74MOL   H12536771   0.170   4.405   7.549  0.7760 -1.3359 -1.8666
   74MOL   H12636772   0.257   4.456   7.401 -0.1464 -2.4170  0.6251
   74MOL   C12736773   0.093   5.279   7.778 -0.4484  0.2193 -0.0645
   74MOL   C12836774   0.124   5.407   7.687  0.2336  0.0009 -0.2347
   74MOL   O12936775   0.240   5.452   7.756  0.4294  0.1154 -0.3386
   74MOL   C13036776   0.313   5.540   7.676 -0.0393 -0.3990 -0.2955
   74MOL   C13136777   0.455   5.537   7.741 -0.5154  0.2398  0.3848
   74MOL   C13236778   0.523   5.402   7.703 -1.1015  1.1656  0.6767
   74MOL   C13336779   0.663   5.397   7.769  0.0297 -0.0711 -0.0427
   74MOL   C13436780   0.665   5.393   0.148  0.2250  0.0880  0.3708
   74MOL   C13536781   0.800   5.416   0.203 -0.3411  0.0351  0.3749
   74MOL   H13636782   7.769   5.246   7.768 -0.5800  0.3217  0.9242
   74MOL   H13736783   0.098   5.310   0.104 -0.6359 -1.0081  0.3143
   74MOL   H13836784   0.140   5.374   7.584  0.7875  2.8773 -1.1110
   74MOL   H13936785   0.279   5.640   7.703 -0.8555 -0.7656  0.0504
   74MOL   H14036786   0.319   5.525   7.568  3.2443 -3.3757  0.2128
   74MOL   H14136787   0.445   5.529   0.071 -1.3992  0.3806  0.3172
   74MOL   H14236788   0.522   5.619   7.714  2.1189 -2.2763 -1.1050
   74MOL   H14336789   0.459   5.322   7.740  1.3385 -0.9490  0.4444
   74MOL   H14436790   0.535   5.383   7.597 -1.8340 -0.9100  0.9393
   74MOL   H14536791   0.711   5.303   7.743 -2.4790 -0.8726 -1.9652
   74MOL   H14636792   0.724   5.477   7.726 -2.7490  1.9961 -0.2679
   74MOL   H14736793   0.601   5.474   0.184  0.0078  0.7369 -1.4286
   74MOL   H14836794   0.617   5.304   0.189 -2.9647  1.0252 -1.1105
   74MOL   H14936795   0.848   5.319   0.217 -0.2266  0.0169 -0.1546
   74MOL   H15036796   0.859   5.488   0.146 -1.4267  0.9803  0.4364
   74MOL   H15136797   0.784   5.459   0.302 -0.2336 -0.5048  0.6290
   74MOL   C15236798   0.005   5.508   7.706  0.7662 -0.2514 -0.1644
   74MOL   C15336799   7.650   5.477   7.631 -0.0319 -0.5786 -0.6253
   74MOL   O15436800   7.553   5.537   7.710 -0.0832  0.3400 -0.1397
   74MOL   C15536801   7.461   5.442   7.760  0.9694 -0.6093 -0.3946
   74MOL   C15636802   7.352   5.519   0.057  0.5183 -0.1598 -0.2381
   74MOL   C15736803   7.234   5.427   0.089  0.1405  0.1970  0.2241
   74MOL   C15836804   7.123   5.491   0.167 -0.3535 -0.8658  0.1165
   74MOL   C15936805   7.007   5.396   0.206 -0.0988  0.2920 -0.6268
   74MOL   C16036806   6.911   5.446   0.322  0.2963 -0.6413  0.4995
   74MOL   H16136807   7.762   5.530   0.032 -0.5401 -0.2753 -0.4151
   74MOL   H16236808   0.051   5.603   7.678  2.2922 -0.4540  1.5930
   74MOL   H16336809   7.641   5.369   7.624  3.0363 -1.1732  2.9908
   74MOL   H16436810   7.523   5.377   0.044  1.3972  1.9699  2.0205
   74MOL   H16536811   7.423   5.379   7.680 -0.7936 -0.5477  0.3658
   74MOL   H16636812   7.317   5.597   7.767  0.6963 -0.6943 -0.9457
   74MOL   H16736813   7.397   5.561   0.147  0.4283 -1.3673  0.3816
   74MOL   H16836814   7.200   5.381   7.774 -0.1003  1.5544 -0.3580
   74MOL   H16936815   7.276   5.344   0.146 -1.3724 -2.2036 -2.0362
   74MOL   H17036816   7.167   5.537   0.256 -1.9540  0.9787  0.0119
   74MOL   H17136817   7.083   5.571   0.104  0.2249  0.0446  0.8840
   74MOL   H17236818   6.950   5.395   0.113 -3.2362 -0.3461  1.2475
   74MOL   H17336819   7.050   5.298   0.225  0.6739  0.9815  1.3636
   74MOL   H17436820   6.835   5.374   0.352 -2.2052  1.3861 -0.7166
   74MOL   H17536821   6.975   5.471   0.407  2.5440  0.4312 -1.4563
   74MOL   H17636822   6.852   5.535   0.301 -0.0838 -1.1601 -0.6389
   74MOL   C17736823   7.632   5.546   7.495 -0.0008  0.2965  0.3348
   74MOL   C17836824   7.724   5.502   7.372  0.0761 -0.4895 -0.0592
   74MOL   O17936825   0.082   5.541   7.388  0.0546 -0.1381  0.1280
   74MOL   C18036826   0.139   5.602   7.268  0.3326 -0.6345  0.0893
   74MOL   C18136827   0.274   5.657   7.316 -0.2078  0.2152  0.5853
   74MOL   C18236828   0.337   5.738   7.203 -0.0452  0.0513  0.0004
   74MOL   C18336829   0.477   5.787   7.233  0.0247  0.8331 -0.5618
   74MOL   C18436830   0.506   5.906   7.152 -0.5229 -0.2161 -0.0200
   74MOL   C18536831   0.656   5.949   7.142  0.4685  0.1471  0.2918
   74MOL   H18636832   7.525   5.544   7.476  0.5821 -1.3803 -3.0999
   74MOL   H18736833   7.650   5.652   7.514 -4.3301  1.1413  0.1573
   74MOL   H18836834   7.697   5.551   7.279 -1.4880  0.4385  0.8566
   74MOL   H18936835   0.068   5.682   7.248  0.9076 -0.1105  0.1287
   74MOL   H19036836   0.141   5.535   7.182 -1.4933  0.3702 -0.7599
   74MOL   H19136837   0.335   5.570   7.344  0.3820  0.7283  0.9114
   74MOL   H19236838   0.261   5.712   7.409 -0.2952 -2.9435  2.5097
   74MOL   H19336839   0.333   5.687   7.107 -0.3151  2.8962 -1.5543
   74MOL   H19436840   0.266   5.820   7.190 -0.6674 -0.6188 -0.8574
   74MOL   H19536841   0.485   5.812   7.339  0.9106 -2.3559  0.1898
   74MOL   H19636842   0.553   5.711   7.216 -0.5358  0.2935 -0.6503
   74MOL   H19736843   0.454   5.900   7.056  1.7521  1.3812 -1.4054
   74MOL   H19836844   0.448   5.987   7.194  1.6776 -0.0663  2.8937
   74MOL   H19936845   0.710   5.922   7.233  0.2402 -0.6075  0.2118
   74MOL   H20036846   0.714   5.898   7.065 -4.4148 -3.7375 -1.0949
   74MOL   H20136847   0.669   6.055   7.121 -1.0907  0.2614 -0.1985
   74MOL   C20236848   7.723   5.347   7.345 -0.0196  0.4715 -0.6352
   74MOL   C20336849   7.610   5.295   7.255  0.0162  0.9679 -0.4839
   74MOL   O20436850   7.490   5.327   7.319 -0.0098  0.0161  0.2051
   74MOL   C20536851   7.380   5.377   7.239  0.2061  0.2989  0.8699
   74MOL   C20636852   7.278   5.427   7.331  0.1825  0.2706  0.4614
   74MOL   C20736853   7.176   5.506   7.259 -0.6182  0.0534  0.2943
   74MOL   C20836854   7.049   5.546   7.333 -0.1935  0.7785  0.2006
   74MOL   C20936855   6.950   5.437   7.352 -0.0807  0.3165  0.3232
   74MOL   C21036856   6.810   5.489   7.388  0.7940 -0.4858 -0.0815
   74MOL   H21136857   0.034   5.318   7.289 -0.8305  0.6411 -2.0108
   74MOL   H21236858   7.721   5.286   7.436 -1.5145 -1.0143 -1.6447
   74MOL   H21336859   7.625   5.356   7.165  2.5620  0.6892 -0.3093
   74MOL   H21436860   7.344   5.298   7.173 -1.2285  1.4502  0.2501
   74MOL   H21536861   7.413   5.454   7.170  3.7379 -1.2124  0.7558
   74MOL   H21636862   7.318   5.497   7.405 -1.0160  2.7198 -1.1487
   74MOL   H21736863   7.222   5.346   7.377 -0.3020 -0.0864 -0.7506
   74MOL   H21836864   7.226   5.601   7.240 -0.9791  1.2043  4.5734
   74MOL   H21936865   7.156   5.456   7.164  0.5464 -0.7429  0.4595
   74MOL   H22036866   7.071   5.598   7.426  0.5024 -1.8906  1.5895
   74MOL   H22136867   7.000   5.624   7.276 -2.4653  0.3755  1.5693
   74MOL   H22236868   6.950   5.368   7.268 -0.4823  0.7695 -0.0449
   74MOL   H22336869   6.983   5.373   7.434 -1.1885 -0.6636  0.0042
   74MOL   H22436870   6.775   5.557   7.310 -2.3909 -0.3438  1.3899
   74MOL   H22536871   6.742   5.404   7.385 -0.3992  0.4957 -1.0564
   74MOL   H22636872   6.808   5.527   7.490  0.4834 -1.9288  0.4614
   74MOL   C22736873   7.604   5.144   7.215 -0.0357  0.1267 -0.3367
   74MOL   C22836874   7.666   5.109   7.081  0.7104 -0.3966  0.0707
   74MOL   O22936875   7.604   5.168   6.973 -0.0376  0.2139 -0.3915
   74MOL   C23036876   7.482   5.114   6.937  0.1433  0.2496  0.2123
   74MOL   C23136877   7.411   5.229   6.863  0.6761  0.4027 -0.2751
   74MOL   C23236878   7.272   5.185   6.811  0.1514 -0.5463 -0.0741
   74MOL   C23336879   7.186   5.296   6.746  0.1200  0.4652 -0.5372
   74MOL   C23436880   7.056   5.240   6.685 -0.8353  0.8363  0.0305
   74MOL   C23536881   6.948   5.339   6.644  0.5878 -0.0449  0.2936
   74MOL   H23636882   7.635   5.082   7.300 -0.0789  1.4762  0.6723
   74MOL   H23736883   7.500   5.112   7.210  0.4477 -1.3962 -1.2180
   74MOL   H23836884   7.653   5.001   7.073 -2.5846 -0.0894  0.4118
   74MOL   H23936885   7.421   5.082   7.021 -1.8298  0.6359 -1.0286
   74MOL   H24036886   7.516   5.035   6.870  2.4179  1.0679  0.3525
   74MOL   H24136887   7.466   5.255   6.772  0.8337 -1.1170 -0.6244
   74MOL   H24236888   7.401   5.324   6.916  0.1613  0.4943 -0.5386
   74MOL   H24336889   7.273   5.107   6.736 -1.2607  1.5908 -2.4088
   74MOL   H24436890   7.214   5.145   6.893  0.9003  1.2013  1.3502
   74MOL   H24536891   7.155   5.366   6.824 -0.4104 -1.6562  1.2129
   74MOL   H24636892   7.243   5.359   6.677  1.0799 -1.2492 -1.3541
   74MOL   H24736893   7.097   5.181   6.602 -0.1034  0.6404  0.5242
   74MOL   H24836894   7.005   5.172   6.753  1.3236  0.1328  1.0179
   74MOL   H24936895   6.896   5.392   6.724  0.4504  0.7011 -0.2806
   74MOL   H25036896   6.994   5.413   6.578  2.3669 -2.4754 -1.2954
   74MOL   H25136897   6.877   5.283   6.583  1.1612 -2.5406  1.8468
   74MOL   C25236898   0.037   5.146   7.071 -0.8054  0.0452 -0.2249
   74MOL   C25336899   0.114   5.083   6.957 -0.2795 -0.4722 -0.0729
   74MOL   O25436900   0.172   4.968   7.007 -0.3643  0.0816  0.0738
   74MOL   C25536901   0.103   4.847   7.026  0.2033  0.7981 -0.2464
   74MOL   C25636902   0.184   4.722   7.049  0.6535 -0.4966 -0.0602
   74MOL   C25736903   0.282   4.693   6.932  0.2316 -0.1652  0.5133
   74MOL   C25836904   0.341   4.553   6.949  0.0744 -0.4121  0.0679
   74MOL   C25936905   0.456   4.523   6.855 -0.2693  0.0990  0.2748
   74MOL   C26036906   0.495   4.369   6.834  0.4052  0.3948 -0.1396
   74MOL   H26136907   0.048   5.254   7.065 -2.2513  0.1445 -1.4096
   74MOL   H26236908   0.081   5.120   7.168  0.6944 -1.5419 -1.3203
   74MOL   H26336909   0.048   5.063   6.872  0.4825 -2.5619 -0.2176
   74MOL   H26436910   0.027   4.825   6.950 -0.3866  0.1940  0.5059
   74MOL   H26536911   0.043   4.855   7.116  0.4938 -0.0777  0.0355
   74MOL   H26636912   0.116   4.638   7.065 -0.0840 -0.1988 -1.5565
   74MOL   H26736913   0.255   4.737   7.130  0.3314  1.1865 -0.0596
   74MOL   H26836914   0.237   4.697   6.833  0.7571  0.9980  0.3001
   74MOL   H26936915   0.371   4.756   6.930  0.3027 -0.3125 -3.1286
   74MOL   H27036916   0.388   4.538   7.046  0.7328 -2.1377 -0.4916
   74MOL   H27136917   0.267   4.475   6.932  0.4400 -0.1754 -2.7925
   74MOL   H27236918   0.430   4.561   6.756 -0.7307 -2.7336 -0.7311
   74MOL   H27336919   0.551   4.573   6.876 -0.6882  0.5401  1.1228
   74MOL   H27436920   0.533   4.348   6.734 -1.9538  1.2500 -1.2489
   74MOL   H27536921   0.569   4.332   6.905 -0.9262  1.2937  1.7522
   74MOL   H27636922   0.406   4.308   6.852 -0.5739  2.6194  2.9830
   74MOL   C27736923   0.221   5.178   6.920  0.6337  0.3357 -0.2876
   74MOL   C27836924   0.298   5.133   6.793  0.1732 -0.7184 -0.1494
   74MOL   O27936925   0.199   5.114   6.687 -0.3758 -0.0012  0.0415
   74MOL   C28036926   0.228   4.998   6.608  0.1189  0.4460 -0.7019
   74MOL   C28136927   0.176   5.008   6.460 -0.6491  0.0309 -0.3286
   74MOL   C28236928   0.024   5.031   6.456  0.8921 -0.3001 -0.2724
   74MOL   C28336929   7.745   5.082   6.326  0.6594 -0.1490  0.2737
   74MOL   C28436930   7.759   4.973   6.217 -0.0930  0.1746  0.1787
   74MOL   C28536931   7.698   4.990   6.076 -0.0597  0.0628 -0.2228
   74MOL   H28636932   0.180   5.275   6.891  0.5684  0.5361  0.4567
   74MOL   H28736933   0.287   5.194   7.006 -0.4834  0.2275  0.5918
   74MOL   H28836934   0.353   5.042   6.818  2.5367  0.0823 -2.3157
   74MOL   H28936935   0.197   4.912   6.668 -0.2751  2.4580  2.0746
   74MOL   H29036936   0.336   4.985   6.599 -0.1052 -0.6836 -2.0109
   74MOL   H29136937   0.196   4.913   6.412 -0.5992  0.2737 -0.7951
   74MOL   H29236938   0.230   5.086   6.405 -0.8967  0.6135  0.2451
   74MOL   H29336939   7.749   4.943   6.492  0.8528 -0.1463  0.0430
   74MOL   H29436940   7.763   5.103   6.528  0.0476 -0.3311 -0.6994
   74MOL   H29536941   7.636   5.084   6.340  0.6393  4.2034  0.1222
   74MOL   H29636942   0.005   5.180   6.300 -3.6861  1.4417 -0.7050
   74MOL   H29736943   0.088   4.956   6.208  0.6153  4.1899  0.2957
   74MOL   H29836944   7.716   4.881   6.257  0.0715 -0.6492 -1.4964
   74MOL   H29936945   7.707   4.894   6.025  0.9078 -0.2946  0.5946
   74MOL   H30036946   7.591   5.012   6.080 -0.1255 -0.2426 -0.2375
   74MOL   H30136947   7.738   5.073   6.018 -0.6558  1.4905  1.3697
   74MOL   C30236948   0.408   5.232   6.739  0.6647 -0.0127  0.4342
   74MOL   C30336949   0.537   5.234   6.827 -0.3123  0.3625  0.8380
   74MOL   O30436950   0.609   5.350   6.791  0.2967 -0.0978  0.8755
   74MOL   C30536951   0.585   5.466   6.875  0.0981  0.5324  0.5841
   74MOL   C30636952   0.634   5.589   6.816 -0.6398  0.4413  0.2677
   74MOL   C30736953   0.788   5.597   6.822 -0.0676  0.3918 -0.5193
   74MOL   C30836954   0.859   5.705   6.733 -0.1758 -0.2007  0.3109
   74MOL   C30936955   0.840   5.695   6.579  0.1940 -0.5866  0.3092
   74MOL   C31036956   0.895   5.818   6.513 -0.5099 -0.1249 -0.1226
   74MOL   H31136957   0.439   5.219   6.635  0.6219  1.0866  0.2763
   74MOL   H31236958   0.357   5.328   6.738 -0.3901 -0.4956  3.2930
   74MOL   H31336959   0.504   5.227   6.931  0.8631 -0.6310  1.1677
   74MOL   H31436960   0.629   5.450   6.974 -0.5932  0.6065  0.9050
   74MOL   H31536961   0.479   5.484   6.891  0.0890 -0.0283  1.2048
   74MOL   H31636962   0.594   5.677   6.867  0.2258  0.3235  1.1602
   74MOL   H31736963   0.597   5.598   6.714 -1.9903  2.4872  0.8999
   74MOL   H31836964   0.829   5.610   6.922  1.9852 -1.7716 -1.0099
   74MOL   H31936965   0.831   5.499   6.801 -0.7832  0.4366 -2.2660
   74MOL   H32036966   0.820   5.801   6.767 -0.4763 -0.3349  0.3533
   74MOL   H32136967   0.966   5.703   6.751  0.2474 -0.3266 -2.0301
   74MOL   H32236968   0.901   5.613   6.540  1.4374 -0.0692  1.1333
   74MOL   H32336969   0.735   5.679   6.554 -0.0452  0.0782  0.8755
   74MOL   H32436970   0.842   5.912   6.534  0.3440  0.3015  0.1216
   74MOL   H32536971   0.996   5.840   6.546 -0.9949  0.5660  0.9352
   74MOL   H32636972   0.887   5.815   6.404  3.9335 -0.6386 -0.5086
   74MOL   C32736973   0.634   5.115   6.805 -0.3237 -0.0506  0.7715
   74MOL   C32836974   0.744   5.095   6.913 -0.6004  0.3402 -0.1329
   74MOL   O32936975   0.810   4.973   6.899  0.4242  0.4167  0.0284
   74MOL   C33036976   0.745   4.854   6.949  0.9902  0.6730  0.5324
   74MOL   C33136977   0.783   4.734   6.865 -1.0430  0.1001 -0.1383
   74MOL   C33236978   0.724   4.734   6.720  0.3370  0.4170 -0.1331
   74MOL   C33336979   0.761   4.609   6.640  0.0123  0.3304  0.0116
   74MOL   C33436980   0.675   4.602   6.509  0.2731 -0.1018  0.0714
   74MOL   C33536981   0.705   4.709   6.403  0.1326  0.6119  0.3784
   74MOL   H33636982   0.697   5.128   6.717 -0.7236  1.5797  0.7012
   74MOL   H33736983   0.574   5.024   6.801 -1.4654  0.7285 -0.4893
   74MOL   H33836984   0.705   5.087   7.015  0.5277 -0.7420  0.2285
   74MOL   H33936985   0.639   4.877   6.952  1.0532  0.8359  1.8390
   74MOL   H34036986   0.781   4.830   7.050 -2.7782 -2.4801  1.2186
   74MOL   H34136987   0.741   4.646   6.914 -1.7380  0.0947 -0.7299
   74MOL   H34236988   0.892   4.735   6.870 -1.0105 -0.0632 -0.7845
   74MOL   H34336989   0.615   4.740   6.717  0.0857 -2.6439  0.8507
   74MOL   H34436990   0.761   4.822   6.667  0.8726  0.3487  0.1297
   74MOL   H34536991   0.864   4.599   6.605 -0.6473  1.2807 -2.2948
   74MOL   H34636992   0.755   4.518   6.700 -0.2055  0.8554  0.7793
   74MOL   H34736993   0.686   4.502   6.468 -2.5288 -0.8318  0.9816
   74MOL   H34836994   0.569   4.615   6.534  0.6272 -0.3680  1.7781
   74MOL   H34936995   0.644   4.798   6.422 -2.0515 -0.9199  0.6837
   74MOL   H35036996   0.810   4.738   6.401  0.1420  0.6162 -3.3718
   74MOL   H35136997   0.686   4.673   6.302  0.0846  0.9806  0.2544
   74MOL   C35236998   0.856   5.201   6.913  0.0563  0.7094  0.2605
   74MOL   C35336999   0.963   5.191   7.023 -0.7110  0.3004 -0.0323
   74MOL   O35437000   0.911   5.218   7.150  0.2351 -0.0567  0.1355
   74MOL   C35537001   0.908   5.102   7.231  0.1582  0.0159 -0.7269
   74MOL   C35637002   0.826   5.138   7.352 -0.3731  0.0085 -0.0544
   74MOL   C35737003   0.819   5.025   7.459  0.2054 -0.5087 -0.0360
   74MOL   C35837004   0.712   5.065   7.562  0.3422 -0.4539 -0.3732
   74MOL   C35937005   0.699   4.968   7.685 -0.0177  0.2451 -0.5954
   74MOL   C36037006   0.641   4.827   7.651 -0.1546 -0.2639  0.3855
   74MOL   H36137007   0.904   5.190   6.816 -1.4022 -1.9494 -0.2081
   74MOL   H36237008   0.820   5.304   6.904 -1.5604 -0.0311 -2.2855
   74MOL   H36337009   1.013   5.094   7.013  0.6614  0.4838  3.8163
   74MOL   H36437010   1.005   5.064   7.263 -1.2234 -1.2825  2.0331
   74MOL   H36537011   0.864   5.016   7.180 -1.5072 -0.1295  0.9121
   74MOL   H36637012   0.725   5.148   7.312 -0.7338 -1.1590  0.5173
   74MOL   H36737013   0.863   5.230   7.397 -0.1673  0.2640 -0.7442
   74MOL   H36837014   0.790   4.927   7.419  0.1277  0.3646 -2.1569
   74MOL   H36937015   0.913   5.007   7.511  1.0470  0.3794 -1.2322
   74MOL   H37037016   0.741   5.162   7.603  0.1273  0.0526 -1.3989
   74MOL   H37137017   0.614   5.068   7.514  0.4727  0.1377 -0.5987
   74MOL   H37237018   0.793   4.957   7.739 -1.0402 -0.2728  1.1162
   74MOL   H37337019   0.633   5.011   7.759  0.3162 -0.8326  0.3426
   74MOL   H37437020   0.547   4.839   7.597 -0.0160  0.6685  0.3322
   74MOL   H37537021   0.709   4.764   7.593  2.0734  0.4096  2.1979
   74MOL   H37637022   0.614   4.759   7.730 -2.3346 -0.2131 -0.2776
   74MOL   C37737023   1.058   5.308   7.006 -0.2696 -0.2990  0.3456
   74MOL   C37837024   1.203   5.284   7.052 -0.5422  0.8755  0.8390
   74MOL   O37937025   1.260   5.403   7.115  0.0478 -0.3078  0.2694
   74MOL   C38037026   1.216   5.420   7.248 -0.1191  0.5707 -0.0806
   74MOL   C38137027   1.231   5.562   7.298 -0.6211 -0.3439  0.1022
   74MOL   C38237028   1.374   5.614   7.295 -0.4174  0.1812  0.0996
   74MOL   C38337029   1.380   5.766   7.333 -0.5757 -0.4599  0.1979
   74MOL   C38437030   1.525   5.815   7.315  0.6467  0.4797 -0.8372
   74MOL   C38537031   1.559   5.848   7.177 -0.6008 -0.1864  0.2892
   74MOL   H38637032   1.062   5.332   6.900  1.1256  1.4234  0.7589
   74MOL   H38737033   1.023   5.395   7.062  0.2818  0.8895 -1.1269
   74MOL   H38837034   1.201   5.212   7.135 -1.2810  0.1577  0.2017
   74MOL   H38937035   1.272   5.355   7.315 -1.4560  0.8037  1.2843
   74MOL   H39037036   1.113   5.384   7.252 -0.0610  0.3473 -0.4932
   74MOL   H39137037   1.199   5.564   7.402  0.8067 -1.1105  0.5818
   74MOL   H39237038   1.185   5.642   7.239  1.8689  0.0962 -1.3177
   74MOL   H39337039   1.444   5.551   7.350 -0.8803 -0.8945 -0.5134
   74MOL   H39437040   1.403   5.603   7.190 -0.2300 -1.3346  0.2925
   74MOL   H39537041   1.309   5.826   7.275  0.7220  1.2656  0.3398
   74MOL   H39637042   1.341   5.783   7.433  1.0747 -1.6966  1.0725
   74MOL   H39737043   1.547   5.905   7.371 -1.5806  0.7520 -0.3400
   74MOL   H39837044   1.592   5.734   7.344 -0.5263  0.3588  1.6256
   74MOL   H39937045   1.493   5.929   7.144 -0.1631  0.8473  1.9019
   74MOL   H40037046   1.663   5.878   7.172 -1.6841  3.8247  0.0171
   74MOL   H40137047   1.548   5.765   7.107 -1.7491  0.6965 -0.6319
   74MOL   C40237048   1.288   5.236   6.937  0.1066 -1.1423 -0.5587
   74MOL   C40337049   1.265   5.090   6.884 -0.2518  0.5411 -0.1563
   74MOL   O40437050   1.266   5.014   7.005 -0.1667  0.2773 -0.3069
   74MOL   C40537051   1.214   4.883   7.004 -0.1848 -0.5065 -0.1445
   74MOL   C40637052   1.256   4.795   7.132 -0.8437 -0.5732 -0.3585
   74MOL   C40737053   1.195   4.850   7.262 -0.2741  0.4322  0.0292
   74MOL   C40837054   1.246   4.777   7.392  0.3588  0.0845 -0.3427
   74MOL   C40937055   1.164   4.813   7.520 -0.0137  0.0390  0.3953
   74MOL   C41037056   1.033   4.730   7.533 -0.3271 -0.3084 -0.3280
   74MOL   H41137057   1.392   5.248   6.968  0.1692  0.0937 -1.1808
   74MOL   H41237058   1.272   5.305   6.854 -1.7027 -0.7021  0.1259
   74MOL   H41337059   1.169   5.086   6.831 -0.8302  1.4041  0.8035
   74MOL   H41437060   1.233   4.820   6.917  0.4985  2.0159 -1.8795
   74MOL   H41537061   1.106   4.897   7.004 -0.2941 -1.2153 -1.4741
   74MOL   H41637062   1.364   4.779   7.126 -0.4633  0.4183  2.8794
   74MOL   H41737063   1.228   4.692   7.114 -0.6903 -1.0065  1.7457
   74MOL   H41837064   1.224   4.955   7.260 -1.0758  0.6805  0.9342
   74MOL   H41937065   1.086   4.846   7.261 -0.2455 -0.0548 -1.3138
   74MOL   H42037066   1.238   4.669   7.375  1.5705 -0.5458  2.7361
   74MOL   H42137067   1.350   4.791   7.420 -0.3637  2.4825  1.2396
   74MOL   H42237068   1.235   4.784   7.597 -0.4597 -0.7819  0.5047
   74MOL   H42337069   1.172   4.921   7.535  1.2872  0.3249 -2.0955
   74MOL   H42437070   1.047   4.625   7.558  0.8351  0.2251  1.2988
   74MOL   H42537071   0.965   4.761   7.612  1.1863 -0.1644  0.9484
   74MOL   H42637072   0.968   4.748   7.447 -1.6076  0.0112  0.6918
   74MOL   C42737073   1.376   5.035   6.802 -0.4045  0.0851  0.0882
   74MOL   C42837074   1.361   5.086   6.656 -0.2595 -0.0828  0.5670
   74MOL   O42937075   1.483   5.103   6.593 -0.0275  0.3558  0.1320
   74MOL   C43037076   1.542   5.236   6.595  0.4628 -0.4315  0.1151
   74MOL   C43137077   1.670   5.225   6.514 -0.3018 -0.3246  1.0448
   74MOL   C43237078   1.735   5.358   6.468 -0.4125  0.2671 -0.3526
   74MOL   C43337079   1.878   5.328   6.396  0.0188 -0.6011  0.4561
   74MOL   C43437080   1.948   5.457   6.353  0.0629  0.6739 -0.2302
   74MOL   C43537081   2.041   5.425   6.238 -0.0959 -0.3949 -0.0380
   74MOL   H43637082   1.471   5.079   6.831 -0.2755  1.7639 -2.6488
   74MOL   H43737083   1.384   4.927   6.812  0.8141  0.1793  0.3111
   74MOL   H43837084   1.321   5.187   6.664  0.3692  0.3607 -1.6725
   74MOL   H43937085   1.562   5.265   6.698 -0.1373  0.7883 -0.1026
   74MOL   H44037086   1.480   5.311   6.545  0.6827  0.1083  0.6443
   74MOL   H44137087   1.639   5.171   6.424 -2.9866 -0.1310  1.7931
   74MOL   H44237088   1.742   5.160   6.564 -0.4908 -1.9452 -0.7296
   74MOL   H44337089   1.674   5.400   6.388  0.1736  0.7264 -0.5593
   74MOL   H44437090   1.736   5.435   6.545 -1.6726 -0.2450  0.1940
   74MOL   H44537091   1.941   5.267   6.461  1.2679  0.4600  0.2755
   74MOL   H44637092   1.859   5.263   6.311 -2.2261 -0.0573  0.5171
   74MOL   H44737093   1.879   5.541   6.343 -0.4824  0.0694 -1.5976
   74MOL   H44837094   2.013   5.495   6.432 -1.7383  0.7114  1.2717
   74MOL   H44937095   1.990   5.409   6.142 -0.7434  1.1580  0.0269
   74MOL   H45037096   2.094   5.519   6.227  0.3873 -0.5244  1.1613
   74MOL   H45137097   2.102   5.339   6.265 -2.6508 -2.6642 -1.2722
   74MOL   C45237098   1.282   4.983   6.577 -0.1604 -0.5266  0.3757
   74MOL   C45337099   1.233   5.026   6.431  0.6638  1.0693  0.4703
   74MOL   O45437100   1.092   5.033   6.420 -0.2174  0.6402  0.4066
   74MOL   C45537101   1.032   5.142   6.490  0.3013 -0.6711  0.4949
   74MOL   C45637102   0.896   5.186   6.444 -0.2599  0.5241  0.0476
   74MOL   C45737103   0.836   5.308   6.514  0.9717 -0.1719 -0.0046
   74MOL   C45837104   0.726   5.369   6.420 -1.1066  0.8895  0.3425
   74MOL   C45937105   0.787   5.427   6.292  0.3036 -0.3792 -0.3933
   74MOL   C46037106   0.684   5.525   6.233  0.1156  0.1536 -0.0872
   74MOL   H46137107   1.346   4.897   6.558 -1.1732 -0.7284 -2.5414
   74MOL   H46237108   1.194   4.941   6.627 -0.4387 -1.4057 -0.8190
   74MOL   H46337109   1.277   5.122   6.404  1.9552  0.3981  0.1376
   74MOL   H46437110   1.094   5.230   6.509 -0.1528 -0.6292  1.8592
   74MOL   H46537111   1.028   5.102   6.592 -1.1909 -1.1639  0.2473
   74MOL   H46637112   0.831   5.100   6.455  0.4107 -0.3318 -2.4589
   74MOL   H46737113   0.898   5.196   6.336 -1.1749  1.8405  0.1334
   74MOL   H46837114   0.780   5.279   6.603  1.2911  2.2286  1.0004
   74MOL   H46937115   0.912   5.369   6.563 -0.0255  0.9017  0.2295
   74MOL   H47037116   0.642   5.303   6.396 -1.7062  1.7836 -0.0231
   74MOL   H47137117   0.676   5.451   6.472 -2.6621  0.0079  0.2814
   74MOL   H47237118   0.881   5.482   6.293  0.2884 -0.3498  0.7001
   74MOL   H47337119   0.792   5.339   6.228 -0.2045 -0.3767 -0.4390
   74MOL   H47437120   0.655   5.602   6.306 -0.3271  0.2872 -0.4014
   74MOL   H47537121   0.728   5.569   6.144 -0.2431  1.0959  0.1876
   74MOL   H47637122   0.589   5.485   6.197  1.0225 -2.2341  0.1275
   74MOL   C47737123   1.286   4.917   6.329 -0.0660 -0.0318 -0.2405
   74MOL   C47837124   1.441   4.934   6.303 -0.1052 -0.1980  0.2743
   74MOL   O47937125   1.491   4.810   6.250  0.0034 -0.0840 -0.6394
   74MOL   C48037126   1.569   4.733   6.343 -0.1662  0.1381  0.3210
   74MOL   C48137127   1.706   4.797   6.354  0.5150  0.4371 -0.2131
   74MOL   C48237128   1.780   4.811   6.220 -0.4231 -0.1085 -0.3081
   74MOL   C48337129   1.933   4.820   6.235  0.3871  0.6671  0.9320
   74MOL   C48437130   1.987   4.860   6.100 -0.5439  0.7635  0.1402
   74MOL   C48537131   2.130   4.911   6.109 -0.2013  0.4258 -0.4418
   74MOL   H48637132   1.270   4.813   6.356 -5.5601  0.6007 -0.5704
   74MOL   H48737133   1.229   4.927   6.236 -1.1078  0.5874  0.4542
   74MOL   H48837134   1.477   5.002   6.227 -0.6216 -0.3126 -0.0755
   74MOL   H48937135   1.582   4.633   6.303 -0.9188  0.9319 -1.9726
   74MOL   H49037136   1.510   4.731   6.435 -0.2862  3.2757  0.3755
   74MOL   H49137137   1.767   4.737   6.422 -1.9615 -1.1509  0.6774
   74MOL   H49237138   1.708   4.894   6.403  0.0452  0.4194 -0.1565
   74MOL   H49337139   1.764   4.719   6.164  1.0649 -0.5335 -0.0681
   74MOL   H49437140   1.744   4.899   6.166 -4.7827 -0.7653  1.3180
   74MOL   H49537141   1.970   4.892   6.307  3.3266  0.6247 -0.4729
   74MOL   H49637142   1.963   4.720   6.268 -0.5886  0.6938  1.9523
   74MOL   H49737143   1.982   4.773   6.034 -0.8030  0.2014  0.9001
   74MOL   H49837144   1.928   4.938   6.051 -1.3406 -0.3700 -0.7420
   74MOL   H49937145   2.206   4.840   6.143 -0.8125  0.1933  0.4309
   74MOL   H50037146   2.168   4.948   6.013 -0.9237 -2.7717 -2.0192
   74MOL   H50137147   2.136   4.997   6.176 -1.7932 -1.9509  2.8577
   74MOL   H50237148   1.501   4.953   6.392 -0.4503 -1.0957  0.7138
   75MOL     C137149   2.573   2.789   6.543 -0.1229  0.0586  0.2202
   75MOL     C237150   2.601   2.727   6.405 -0.0457  0.5408 -0.2602
   75MOL     O337151   2.732   2.789   6.377  0.3648 -0.4398 -0.2361
   75MOL     C437152   2.832   2.691   6.343  0.5760  0.2109  0.1204
   75MOL     C537153   2.970   2.758   6.362  0.7594 -0.0093 -0.6653
   75MOL     C637154   3.094   2.668   6.329  0.4295  0.0354  0.4544
   75MOL     C737155   3.221   2.754   6.357  0.4775 -0.3462  0.0508
   75MOL     C837156   3.361   2.695   6.332  0.3966  0.4926 -0.0107
   75MOL     C937157   3.475   2.782   6.385  0.5230 -0.2994  0.6855
   75MOL    H1037158   2.661   2.783   6.607  0.1273  1.5875  0.0577
   75MOL    H1137159   2.559   2.897   6.532 -1.8115 -0.1720 -0.0537
   75MOL    H1237160   2.601   2.619   6.396  0.7662  0.6587 -1.8103
   75MOL    H1337161   2.823   2.663   6.238 -2.8078 -1.0747  0.6994
   75MOL    H1437162   2.827   2.596   6.395  2.3975 -0.9465 -1.7645
   75MOL    H1537163   2.971   2.792   6.466 -1.4149  0.4259 -0.7634
   75MOL    H1637164   2.967   2.851   6.305 -0.6027  0.5005  0.2167
   75MOL    H1737165   3.095   2.575   6.386  1.8175 -0.0328  0.3166
   75MOL    H1837166   3.086   2.639   6.224  0.0527  0.0030  0.4911
   75MOL    H1937167   3.212   2.851   6.308 -0.9444 -0.8281 -0.6472
   75MOL    H2037168   3.212   2.783   6.461  1.6295  0.8454 -0.1733
   75MOL    H2137169   3.373   2.654   6.232 -0.9650 -1.5256  0.6183
   75MOL    H2237170   3.352   2.601   6.387  1.5124 -1.4131 -2.9606
   75MOL    H2337171   3.481   2.859   6.309  0.0379 -1.8897 -1.0085
   75MOL    H2437172   3.460   2.828   6.483  1.1965  1.2145  0.0848
   75MOL    H2537173   3.573   2.734   6.385  0.4892 -0.4047 -1.3824
   75MOL    H2637174   2.490   2.753   6.603 -0.3019 -1.0128 -0.6570
   75MOL    C2737175   2.505   2.772   6.290  0.2909  0.2825  0.1970
   75MOL    C2837176   2.349   2.749   6.317  0.7522 -0.2105  0.1829
   75MOL    O2937177   2.276   2.804   6.207  0.6124 -0.6022  0.1894
   75MOL    C3037178   2.222   2.932   6.230  0.0393 -0.8219 -0.3999
   75MOL    C3137179   2.142   2.991   6.109 -0.0915 -0.3766 -0.4914
   75MOL    C3237180   2.126   3.141   6.122  0.3271  0.4895 -0.3899
   75MOL    C3337181   2.044   3.199   6.005 -0.1526  0.4458  0.3961
   75MOL    C3437182   2.030   3.353   6.004 -0.3603 -0.9488  0.4077
   75MOL    C3537183   1.942   3.407   6.111 -0.6681  0.9104  0.0280
   75MOL    H3637184   2.528   2.873   6.254 -0.0448 -0.6785 -2.8805
   75MOL    H3737185   2.519   2.714   6.199 -0.0433  1.3922 -0.5795
   75MOL    H3837186   2.327   2.803   6.410 -1.0517  0.8970 -0.8488
   75MOL    H3937187   2.305   2.999   6.251 -1.4822  0.9115  0.1695
   75MOL    H4037188   2.151   2.934   6.312 -1.6288  0.8426 -1.8577
   75MOL    H4137189   2.049   2.937   6.094  0.0189 -0.6487 -0.2024
   75MOL    H4237190   2.202   2.975   6.019  0.5292  0.9420 -0.3197
   75MOL    H4337191   2.089   3.171   6.220  0.7427  0.6454 -0.2768
   75MOL    H4437192   2.227   3.180   6.107  0.0759  0.9131 -0.9646
   75MOL    H4537193   2.077   3.164   5.907 -1.5608  0.8394 -0.2302
   75MOL    H4637194   1.944   3.158   6.008  0.4050 -1.1579 -1.6966
   75MOL    H4737195   2.130   3.391   6.021  0.2537 -1.5171 -1.6939
   75MOL    H4837196   2.005   3.397   5.907 -3.7212  1.5285  2.2615
   75MOL    H4937197   1.933   3.515   6.119  1.0651  0.9976  0.7996
   75MOL    H5037198   1.847   3.354   6.103  1.9688 -4.5127  2.1283
   75MOL    H5137199   1.980   3.383   6.210  2.2934  1.5082 -0.9401
   75MOL    C5237200   2.310   2.603   6.323  0.3806 -0.4116  0.0907
   75MOL    C5337201   2.161   2.580   6.365 -0.3059 -0.5846  0.0921
   75MOL    O5437202   2.138   2.438   6.350 -0.2246 -0.3950  0.1263
   75MOL    C5537203   2.052   2.408   6.238  0.1092  0.8947  0.2449
   75MOL    C5637204   2.017   2.263   6.245  0.0602  0.0032  0.6030
   75MOL    C5737205   1.863   2.245   6.217  0.5552 -0.1843 -0.0961
   75MOL    C5837206   1.836   2.229   6.065 -0.3063 -0.6198 -0.1190
   75MOL    C5937207   1.877   2.096   5.992  0.0712  0.4869 -0.4678
   75MOL    C6037208   1.818   2.086   5.850  0.4253  0.9881  0.4084
   75MOL    H6137209   2.382   2.547   6.383  0.2654  1.5178  2.0746
   75MOL    H6237210   2.328   2.569   6.221  1.8785 -0.0485  0.2074
   75MOL    H6337211   2.098   2.636   6.296 -0.0541  0.3754  0.6295
   75MOL    H6437212   2.096   2.436   6.142 -3.3331  2.1177 -1.0567
   75MOL    H6537213   1.960   2.466   6.244 -0.5567  0.0066 -1.1205
   75MOL    H6637214   2.043   2.230   6.346 -3.1761  1.2694  1.9001
   75MOL    H6737215   2.082   2.199   6.185 -1.4631 -0.9549 -0.0395
   75MOL    H6837216   1.845   2.149   6.265 -2.4355  1.5446  2.4026
   75MOL    H6937217   1.786   2.307   6.263 -0.9241 -1.4503 -0.8620
   75MOL    H7037218   1.728   2.244   6.069 -0.3151 -0.8357  0.5569
   75MOL    H7137219   1.877   2.309   6.004  1.2933 -0.7099  0.8181
   75MOL    H7237220   1.985   2.079   5.997  0.1741  1.3641  0.4551
   75MOL    H7337221   1.837   2.010   6.047  0.8213 -0.1785 -0.9509
   75MOL    H7437222   1.822   1.984   5.813 -4.5647  0.7882  0.1218
   75MOL    H7537223   1.711   2.105   5.857  0.3218  1.4493 -1.9164
   75MOL    H7637224   1.864   2.151   5.776  1.5787  0.1878  0.4067
   75MOL    C7737225   2.128   2.605   6.516 -1.0759  0.5918  0.5434
   75MOL    C7837226   1.985   2.621   6.550  0.3337  0.1998 -0.0208
   75MOL    O7937227   1.945   2.741   6.484  0.1625  0.1456 -0.2096
   75MOL    C8037228   1.808   2.756   6.435  0.1946 -0.6848 -1.1669
   75MOL    C8137229   1.788   2.680   6.308 -0.2261 -0.0429  0.3585
   75MOL    C8237230   1.673   2.733   6.223  0.1787 -0.2836 -0.3307
   75MOL    C8337231   1.646   2.657   6.095  0.5628 -0.7519  0.0637
   75MOL    C8437232   1.610   2.514   6.120 -0.1733  0.2736  0.0843
   75MOL    C8537233   1.557   2.456   5.990  0.4682 -0.4322 -0.5836
   75MOL    H8637234   2.172   2.697   6.553 -1.1908  1.4959 -1.4986
   75MOL    H8737235   2.173   2.522   6.570 -0.9589  0.1233 -0.2742
   75MOL    H8837236   1.923   2.541   6.510 -0.8422  1.2077 -0.2681
   75MOL    H8937237   1.774   2.858   6.419 -1.2992 -1.0619 -0.4770
   75MOL    H9037238   1.735   2.729   6.511 -0.2488 -1.5677 -1.8998
   75MOL    H9137239   1.777   2.572   6.313 -2.3213  0.1757  0.5112
   75MOL    H9237240   1.873   2.685   6.239 -1.5131 -0.0374 -1.2713
   75MOL    H9337241   1.581   2.739   6.282 -0.5330 -0.4844 -1.4137
   75MOL    H9437242   1.691   2.837   6.196 -0.1781 -0.3373 -0.7915
   75MOL    H9537243   1.575   2.719   6.040  0.3119  0.6912  1.9805
   75MOL    H9637244   1.737   2.658   6.034  1.3472 -1.2126  1.2236
   75MOL    H9737245   1.703   2.464   6.148  0.2801  0.3439 -1.2516
   75MOL    H9837246   1.532   2.506   6.196 -0.4609 -1.3361 -0.3599
   75MOL    H9937247   1.631   2.487   5.917  1.5490 -2.0168 -0.1883
   75MOL   H10037248   1.557   2.347   5.980 -0.3607 -0.4169 -0.7925
   75MOL   H10137249   1.460   2.497   5.963  1.4469  1.7349 -0.8551
   75MOL   C10237250   1.957   2.631   6.702 -0.1712 -0.0429  0.3542
   75MOL   C10337251   1.996   2.518   6.797  0.1200  0.6883 -0.1421
   75MOL   O10437252   1.984   2.559   6.934 -0.3967 -0.2117 -0.2922
   75MOL   C10537253   2.101   2.626   6.984 -0.3210  0.0525 -0.1666
   75MOL   C10637254   2.080   2.632   7.139 -0.5692  0.1527  0.2900
   75MOL   C10737255   1.948   2.686   7.190 -0.5221 -0.1035  0.6519
   75MOL   C10837256   1.959   2.718   7.338  0.1959 -0.0747  0.1782
   75MOL   C10937257   1.830   2.791   7.380 -0.4710  0.1272 -0.3475
   75MOL   C11037258   1.831   2.824   7.525 -0.6700  0.5580 -0.6475
   75MOL   H11137259   2.007   2.722   6.736  4.1653 -1.0127 -2.8795
   75MOL   H11237260   1.851   2.655   6.703 -0.3074 -0.5428 -1.0228
   75MOL   H11337261   2.100   2.499   6.772  0.5104  0.5188  1.5695
   75MOL   H11437262   2.093   2.726   6.939 -1.1116  0.0904  0.0570
   75MOL   H11537263   2.196   2.588   6.945 -0.0112  0.0402  0.5851
   75MOL   H11637264   2.168   2.691   7.165  0.5019 -1.7061  0.9552
   75MOL   H11737265   2.109   2.542   7.194 -2.0800 -0.0524  0.7967
   75MOL   H11837266   1.916   2.776   7.137  0.2557  0.1659  0.6316
   75MOL   H11937267   1.871   2.609   7.185 -0.4144 -0.1695  0.0127
   75MOL   H12037268   1.966   2.629   7.401 -1.0023 -0.7412 -0.6094
   75MOL   H12137269   2.045   2.781   7.358 -0.3560  1.3962 -1.9062
   75MOL   H12237270   1.825   2.885   7.324  0.9489  0.9705  0.9057
   75MOL   H12337271   1.740   2.744   7.341  0.6639 -1.8760 -0.6361
   75MOL   H12437272   1.872   2.742   7.583 -1.3719 -0.1484 -1.1355
   75MOL   H12537273   1.893   2.913   7.537 -0.2679  0.0678  1.0253
   75MOL   H12637274   1.731   2.829   7.567  0.6831 -0.0688  2.7981
   75MOL   C12737275   1.934   2.373   6.787 -0.4423  0.3907  0.4553
   75MOL   C12837276   2.031   2.262   6.820  0.3115  0.5327  0.0011
   75MOL   O12937277   1.978   2.137   6.791  0.7834 -0.2178 -0.0484
   75MOL   C13037278   1.987   2.093   6.654  0.4927 -0.1834 -0.7679
   75MOL   C13137279   1.894   1.976   6.638 -0.3512  0.4245 -0.5920
   75MOL   C13237280   1.747   2.015   6.664  0.4295 -0.2401  0.6655
   75MOL   C13337281   1.638   1.909   6.632 -0.1393 -0.1470  0.0563
   75MOL   C13437282   1.628   1.801   6.736 -0.5843 -0.0144 -0.0422
   75MOL   C13537283   1.505   1.709   6.721  0.1026 -0.2791  0.2506
   75MOL   H13637284   1.845   2.358   6.847 -0.5285  0.0117  0.2294
   75MOL   H13737285   1.906   2.352   6.684  1.8063 -1.5280  0.1758
   75MOL   H13837286   2.125   2.277   6.767  0.5306 -1.7922 -0.2988
   75MOL   H13937287   2.091   2.066   6.635  0.8014 -2.1085  3.0896
   75MOL   H14037288   1.958   2.169   6.581  2.7185  2.7088  1.2487
   75MOL   H14137289   1.922   1.891   6.700 -2.5552 -0.9478 -1.4293
   75MOL   H14237290   1.909   1.941   6.535  2.1566  0.2181 -0.1966
   75MOL   H14337291   1.730   2.058   6.763 -1.5523 -1.6539  0.9560
   75MOL   H14437292   1.724   2.095   6.593 -0.0149 -0.6082  0.3975
   75MOL   H14537293   1.546   1.968   6.624  1.8625  3.1960  0.6357
   75MOL   H14637294   1.652   1.868   6.532  1.6656  0.6602 -0.0442
   75MOL   H14737295   1.716   1.737   6.743 -0.4122  0.0227 -1.7523
   75MOL   H14837296   1.620   1.852   6.832  0.9787  0.8662 -0.3772
   75MOL   H14937297   1.494   1.638   6.803 -0.4077 -0.6583 -0.1395
   75MOL   H15037298   1.413   1.767   6.720 -0.3457 -0.9670  0.6832
   75MOL   H15137299   1.513   1.639   6.638  2.2496  0.2857 -0.0433
   75MOL   C15237300   2.083   2.256   6.969 -0.2054 -0.2590  0.1198
   75MOL   C15337301   2.173   2.137   7.008 -0.0590 -0.1074  0.6632
   75MOL   O15437302   2.291   2.127   6.936 -0.4248  0.1631 -0.1990
   75MOL   C15537303   2.314   2.000   6.881  0.5467 -0.2010 -0.1592
   75MOL   C15637304   2.462   1.985   6.858 -0.3454 -0.3761 -0.3422
   75MOL   C15737305   2.539   1.979   6.993  0.1046 -0.1265 -0.2444
   75MOL   C15837306   2.684   1.918   6.976  0.4532  0.5141 -0.8762
   75MOL   C15937307   2.757   1.913   7.114  0.1575 -0.2934 -0.3568
   75MOL   C16037308   2.895   1.855   7.108  0.2560 -0.2206  0.1189
   75MOL   H16137309   2.141   2.343   7.001  0.9521 -0.4329 -1.4158
   75MOL   H16237310   1.996   2.253   7.034 -0.3842  1.5470 -0.0149
   75MOL   H16337311   2.105   2.053   6.994  0.0970 -0.2740  0.8888
   75MOL   H16437312   2.266   1.988   6.784 -1.9711  1.4498  0.8349
   75MOL   H16537313   2.285   1.924   6.954 -2.8063  1.7774  0.6728
   75MOL   H16637314   2.500   2.061   6.790  3.5328 -1.6565  0.2423
   75MOL   H16737315   2.484   1.892   6.804 -1.3808 -1.0248  0.3516
   75MOL   H16837316   2.557   2.074   7.044  0.5789  1.0383 -2.5505
   75MOL   H16937317   2.488   1.927   7.075 -0.3064  0.2332 -0.2746
   75MOL   H17037318   2.680   1.823   6.924 -0.6845 -0.3931  0.8165
   75MOL   H17137319   2.741   1.981   6.908 -0.4996  1.4055 -0.8740
   75MOL   H17237320   2.762   2.005   7.171  1.0920 -0.6265  0.1092
   75MOL   H17337321   2.696   1.846   7.175 -1.3513  1.5879  0.2374
   75MOL   H17437322   2.925   1.811   7.203  2.1572 -1.7306 -1.1383
   75MOL   H17537323   2.908   1.771   7.040  0.1403  0.0591 -0.2515
   75MOL   H17637324   2.966   1.928   7.070  0.6235 -0.8945 -0.5024
   75MOL   C17737325   2.209   2.140   7.156  0.2782  0.0941 -0.1287
   75MOL   C17837326   2.089   2.150   7.262 -0.9644  0.0978 -0.1545
   75MOL   O17937327   2.021   2.028   7.287 -0.3256 -0.0089  0.2036
   75MOL   C18037328   1.897   2.023   7.223  0.1916 -0.3559  0.2586
   75MOL   C18137329   1.857   1.879   7.190 -0.6601  0.7432  0.1311
   75MOL   C18237330   1.940   1.813   7.079  0.1625 -0.4813  0.0474
   75MOL   C18337331   1.890   1.670   7.030 -0.5201  0.1295 -0.2126
   75MOL   C18437332   1.975   1.618   6.911 -0.1413  0.6544 -0.1398
   75MOL   C18537333   1.934   1.483   6.868 -0.6171 -0.3373 -0.0667
   75MOL   H18637334   2.246   2.041   7.183 -1.3623 -0.3855  0.4375
   75MOL   H18737335   2.287   2.214   7.171 -1.7265  1.9534  1.5885
   75MOL   H18837336   2.020   2.231   7.239 -0.3771  0.9398  0.9942
   75MOL   H18937337   1.900   2.065   7.122  0.7101 -2.2132 -0.5162
   75MOL   H19037338   1.826   2.086   7.277 -0.2727  2.1294 -3.0532
   75MOL   H19137339   1.754   1.875   7.154 -0.3465 -3.4663 -0.5610
   75MOL   H19237340   1.859   1.821   7.282  0.3951 -0.8351 -0.8558
   75MOL   H19337341   1.920   1.878   6.994  1.7775  1.5871  1.1985
   75MOL   H19437342   2.046   1.823   7.103  0.7481 -0.7239 -2.3504
   75MOL   H19537343   1.917   1.597   7.107 -1.6506 -1.0349 -0.9065
   75MOL   H19637344   1.783   1.662   7.010 -0.4200  0.0140 -0.6908
   75MOL   H19737345   1.990   1.700   6.841 -1.1657  0.0755 -1.0685
   75MOL   H19837346   2.079   1.603   6.937  1.0509  3.9620 -2.5814
   75MOL   H19937347   1.826   1.479   6.855 -0.8866  0.2714  1.8318
   75MOL   H20037348   1.995   1.454   6.782  0.0600  1.0003 -0.0534
   75MOL   H20137349   1.965   1.410   6.942  0.5368  0.3888  0.1886
   75MOL   C20237350   2.139   2.211   7.394  0.5279  0.5703 -0.6976
   75MOL   C20337351   2.029   2.233   7.497  0.2909 -0.3501  0.0565
   75MOL   O20437352   1.934   2.326   7.443 -0.2229  0.4638 -0.5413
   75MOL   C20537353   1.801   2.309   7.486  0.4474 -0.5240  0.3273
   75MOL   C20637354   1.706   2.398   7.416 -0.4246 -0.1421 -0.0409
   75MOL   C20737355   1.562   2.380   7.464 -0.2405 -0.3810  0.1286
   75MOL   C20837356   1.457   2.472   7.410  0.5238  0.2398 -0.9118
   75MOL   C20937357   1.454   2.601   7.491 -0.2318  0.5798 -0.1291
   75MOL   C21037358   1.380   2.712   7.425 -0.6025 -0.4405  0.2006
   75MOL   H21137359   2.215   2.139   7.425 -0.1673  0.2188  0.2109
   75MOL   H21237360   2.194   2.301   7.365  1.8699 -0.4390 -1.3459
   75MOL   H21337361   1.976   2.139   7.515  1.2709 -0.7637  0.8357
   75MOL   H21437362   1.803   2.335   7.592 -1.1851 -0.6163  0.3848
   75MOL   H21537363   1.767   2.206   7.486 -0.3987 -0.2475  1.2657
   75MOL   H21637364   1.709   2.396   7.307  0.6491  2.1825 -0.0761
   75MOL   H21737365   1.748   2.494   7.445 -0.1033 -0.4186  0.4293
   75MOL   H21837366   1.534   2.282   7.426 -0.2045 -0.5390  0.5020
   75MOL   H21937367   1.548   2.375   7.572  2.5776  0.1159  0.5461
   75MOL   H22037368   1.489   2.490   7.307  0.6305  1.3986 -0.6889
   75MOL   H22137369   1.358   2.427   7.409  0.7242 -0.3393  1.1938
   75MOL   H22237370   1.407   2.588   7.588 -1.4425  1.0390 -0.6458
   75MOL   H22337371   1.553   2.642   7.511 -0.8687  2.1723 -0.1604
   75MOL   H22437372   1.378   2.806   7.480  0.5879 -0.7165  0.7409
   75MOL   H22537373   1.428   2.734   7.329  1.6004  0.0769  1.3921
   75MOL   H22637374   1.276   2.683   7.413 -0.0334 -0.9404 -5.0498
   75MOL   C22737375   2.074   2.297   7.623  0.1978 -0.3918 -0.1179
   75MOL   C22837376   2.167   2.201   7.699 -0.3362  0.3049  0.0618
   75MOL   O22937377   2.202   2.262   0.043 -0.3015 -0.5598 -0.7529
   75MOL   C23037378   2.303   2.362   0.041  0.2412  0.7572  0.2583
   75MOL   C23137379   2.370   2.373   0.173  0.3562 -0.5486  0.5253
   75MOL   C23237380   2.461   2.249   0.213  0.0799 -0.0640 -0.1793
   75MOL   C23337381   2.389   2.127   0.275  0.5113  0.2063 -0.6282
   75MOL   C23437382   2.474   2.002   0.268 -0.3692 -0.2607  0.3897
   75MOL   C23537383   2.416   1.876   0.333  0.8813 -0.3802  0.0313
   75MOL   H23637384   2.119   2.392   7.594 -2.6331  0.9758 -0.2340
   75MOL   H23737385   1.996   2.320   7.695  1.8316  0.7626  1.3420
   75MOL   H23837386   2.262   2.185   7.647  0.5738 -0.9660  2.0411
   75MOL   H23937387   2.255   2.458   0.024  0.8595  1.5275  2.7301
   75MOL   H24037388   2.377   2.343   7.742 -0.7007 -1.5125 -0.1299
   75MOL   H24137389   2.295   2.394   0.249 -0.3030 -1.6761  0.1995
   75MOL   H24237390   2.438   2.457   0.156  0.3828 -0.1060  2.7662
   75MOL   H24337391   2.517   2.223   0.123 -1.0976  0.8738 -1.1968
   75MOL   H24437392   2.535   2.281   0.286 -0.9763 -2.3802  1.9791
   75MOL   H24537393   2.356   2.149   0.376 -0.4289  0.3513 -0.9661
   75MOL   H24637394   2.299   2.102   0.218  0.2319  0.3287 -0.2422
   75MOL   H24737395   2.506   1.984   0.165  1.7462 -1.4817  1.2332
   75MOL   H24837396   2.568   2.028   0.316 -0.1192  0.1135 -0.2849
   75MOL   H24937397   2.490   1.799   0.352  2.6601  2.1800  4.1908
   75MOL   H25037398   2.384   1.905   0.433 -1.0603 -0.3027 -0.5982
   75MOL   H25137399   2.325   1.841   0.284 -0.3379  1.5132  0.9040
   75MOL   C25237400   2.100   2.062   7.738  0.2165 -0.7307 -0.5914
   75MOL   C25337401   2.150   1.939   7.666  0.2632 -1.3789  0.2650
   75MOL   O25437402   2.061   1.832   7.694 -0.9658 -0.4025 -0.0214
   75MOL   C25537403   1.963   1.818   7.595 -0.0662 -0.2326  0.3250
   75MOL   C25637404   1.862   1.699   7.629  0.1279  0.0180  0.9397
   75MOL   C25737405   1.789   1.723   7.763  0.2328 -0.4468  0.6951
   75MOL   C25837406   1.666   1.634   0.010  0.4870 -0.2494 -0.1092
   75MOL   C25937407   1.615   1.647   0.157 -0.5346 -0.2677  0.1588
   75MOL   C26037408   1.472   1.596   0.177  0.0517  0.3194  0.0408
   75MOL   H26137409   2.103   2.057   0.068  0.5581  0.2762 -0.5518
   75MOL   H26237410   1.992   2.062   7.722 -0.1115 -0.9952  1.4635
   75MOL   H26337411   2.159   1.952   7.558  0.2579  0.9148  0.5169
   75MOL   H26437412   2.007   1.799   7.497  3.1984 -1.3780  1.9210
   75MOL   H26537413   1.910   1.912   7.585 -1.0867 -0.8239  0.1325
   75MOL   H26637414   1.912   1.604   7.649 -2.7411 -1.3946  1.6756
   75MOL   H26737415   1.799   1.691   7.541  3.7081  0.8805 -1.8212
   75MOL   H26837416   1.852   1.706   0.072 -0.2131  1.1606  1.3585
   75MOL   H26937417   1.743   1.822   7.755  0.1757 -0.3762  1.7662
   75MOL   H27037418   1.586   1.651   7.717  0.5630 -0.3234 -0.2129
   75MOL   H27137419   1.691   1.528   0.003  2.4264  0.2992 -2.5765
   75MOL   H27237420   1.678   1.594   0.227  0.0478  1.5534  1.0356
   75MOL   H27337421   1.621   1.755   0.174  1.7431 -0.0484 -1.8800
   75MOL   H27437422   1.400   1.655   0.120  0.5656 -0.8022 -1.8105
   75MOL   H27537423   1.475   1.505   0.117 -0.9541 -1.1326  2.1398
   75MOL   H27637424   1.442   1.588   0.282 -1.5371 -0.1343 -0.4361
   75MOL   C27737425   2.298   1.898   7.718  0.6543 -0.2991  0.2849
   75MOL   C27837426   2.369   1.784   7.642 -0.1754  0.1260  0.3211
   75MOL   O27937427   2.370   1.833   7.511 -0.0550  0.7637  0.1120
   75MOL   C28037428   2.318   1.732   7.420  0.2116 -0.3280 -0.1393
   75MOL   C28137429   2.323   1.771   7.274 -0.1986  0.7280 -0.0804
   75MOL   C28237430   2.284   1.662   7.173  0.6623 -0.7933 -0.2062
   75MOL   C28337431   2.388   1.547   7.158  0.0618 -0.6155 -0.9924
   75MOL   C28437432   2.390   1.482   7.023 -0.5057 -0.4203  0.4872
   75MOL   C28537433   2.461   1.571   6.917 -0.8097  0.7690 -0.6812
   75MOL   H28637434   2.358   1.989   7.708  0.7350 -0.1612  1.9574
   75MOL   H28737435   2.290   1.879   0.047 -0.2337  0.1708  0.3088
   75MOL   H28837436   2.313   1.691   7.644  0.9453 -0.5453  0.7328
   75MOL   H28937437   2.215   1.702   7.444  0.4573 -0.2759  1.0178
   75MOL   H29037438   2.391   1.653   7.437  0.0916 -0.3946  0.0733
   75MOL   H29137439   2.421   1.816   7.256 -0.6083  1.9613  0.6671
   75MOL   H29237440   2.245   1.847   7.266 -1.5950 -0.8024 -1.3625
   75MOL   H29337441   2.183   1.627   7.195  0.0384  1.0978  0.0838
   75MOL   H29437442   2.273   1.700   7.072  0.2132 -0.4852 -0.0446
   75MOL   H29537443   2.490   1.575   7.184 -0.5173  2.1432 -1.5593
   75MOL   H29637444   2.359   1.471   7.230  0.4237  0.2904  0.1317
   75MOL   H29737445   2.435   1.383   7.029  0.3214 -0.1835 -1.3271
   75MOL   H29837446   2.293   1.445   6.990  0.3432 -2.6690  0.4203
   75MOL   H29937447   2.418   1.667   6.890 -1.9515  0.1073 -1.2175
   75MOL   H30037448   2.562   1.584   6.957 -0.9782 -0.7186  0.2666
   75MOL   H30137449   2.479   1.523   6.821  1.8758  1.7935 -0.7431
   75MOL   C30237450   2.509   1.761   7.693 -0.0487 -0.0591 -0.7090
   75MOL   C30337451   2.583   1.639   7.651 -0.2217  0.0484  0.0149
   75MOL   O30437452   2.687   1.599   7.739  0.5527 -0.1125  0.5902
   75MOL   C30537453   2.654   1.526   0.081 -0.1805  0.2324 -0.8720
   75MOL   C30637454   2.772   1.449   0.143  0.0494  0.5446 -0.0537
   75MOL   C30737455   2.825   1.340   0.053 -0.1920 -0.4458  0.1448
   75MOL   C30837456   2.731   1.224   0.024  0.1142  0.7034  0.7267
   75MOL   C30937457   2.797   1.121   7.706  0.2922 -1.0404 -0.5189
   75MOL   C31037458   2.712   1.006   7.658  0.1703 -0.0204  0.2476
   75MOL   H31137459   2.574   1.847   7.678 -0.9636  0.7353 -0.1658
   75MOL   H31237460   2.503   1.756   0.023  0.4342  1.9376 -0.5755
   75MOL   H31337461   2.512   1.556   7.643  0.9189 -1.0480  1.1237
   75MOL   H31437462   2.565   1.465   0.064  0.1904 -1.4276  2.5293
   75MOL   H31537463   2.627   1.608   0.148  1.0223  0.5290 -0.7401
   75MOL   H31637464   2.737   1.406   0.236 -0.7855  1.4268  0.0501
   75MOL   H31737465   2.850   1.519   0.174  1.3549 -0.8971 -0.0172
   75MOL   H31837466   2.854   1.394   7.741 -1.9307  0.1455 -0.0664
   75MOL   H31937467   2.918   1.300   0.096  0.7018 -0.2176 -1.5338
   75MOL   H32037468   2.695   1.173   0.113  0.4439  0.6251  0.8151
   75MOL   H32137469   2.647   1.268   7.750  0.0902  1.3846  1.3309
   75MOL   H32237470   2.846   1.172   7.623 -2.0786 -1.0295 -1.9459
   75MOL   H32337471   2.869   1.080   7.776  2.3629  0.6704 -1.5919
   75MOL   H32437472   2.775   0.934   7.606  3.1274  1.6531  1.3301
   75MOL   H32537473   2.681   0.939   7.737 -0.8459 -1.8742 -1.6739
   75MOL   H32637474   2.632   1.047   7.596 -1.8584 -2.7114  1.0286
   75MOL   C32737475   2.647   1.648   7.513 -0.0630 -0.2258 -0.1124
   75MOL   C32837476   2.682   1.514   7.450  0.1785  1.1333  0.8314
   75MOL   O32937477   2.558   1.441   7.413 -0.0664 -0.5061  0.4045
   75MOL   C33037478   2.555   1.300   7.437  0.0857 -0.4870  0.0466
   75MOL   C33137479   2.463   1.227   7.336  0.2235  0.2055  0.4091
   75MOL   C33237480   2.449   1.077   7.356 -0.6361  0.2358  0.1199
   75MOL   C33337481   2.348   0.998   7.267 -0.3439  0.8820  0.2099
   75MOL   C33437482   2.367   0.845   7.277  0.4285  0.0624  0.4067
   75MOL   C33537483   2.275   0.757   7.186 -0.2212  0.6826  0.8347
   75MOL   H33637484   2.743   1.699   7.522 -0.1030 -0.2631  0.4981
   75MOL   H33737485   2.594   1.713   7.443  0.3923 -0.7915 -0.9897
   75MOL   H33837486   2.738   1.454   7.522  1.5490  1.3003 -0.0653
   75MOL   H33937487   2.508   1.299   7.536 -2.3776  2.9759 -0.9953
   75MOL   H34037488   2.656   1.261   7.443 -1.0103 -3.1142  2.4482
   75MOL   H34137489   2.490   1.247   7.233  0.5868 -2.2957 -0.0057
   75MOL   H34237490   2.365   1.271   7.355  0.2704  1.3859 -1.9650
   75MOL   H34337491   2.547   1.033   7.336 -0.5644 -0.3674  1.7235
   75MOL   H34437492   2.420   1.052   7.458  0.5822  0.7055  0.5962
   75MOL   H34537493   2.247   1.027   7.296 -0.5822 -2.7143  3.2856
   75MOL   H34637494   2.366   1.025   7.163 -0.2754 -0.2766 -0.0886
   75MOL   H34737495   2.470   0.809   7.265  0.6692  0.9019 -0.0922
   75MOL   H34837496   2.358   0.817   7.382  0.2290 -1.7914 -0.0839
   75MOL   H34937497   2.173   0.796   7.178 -0.2693  0.2777 -0.6796
   75MOL   H35037498   2.314   0.753   7.085  1.4294 -1.1617  1.5132
   75MOL   H35137499   2.276   0.659   7.235  0.2116  0.1117 -0.3108
   75MOL   C35237500   2.760   1.537   7.321 -0.0393  0.0184  0.1395
   75MOL   C35337501   2.776   1.416   7.232  0.5600  0.3987 -0.5937
   75MOL   O35437502   2.831   1.298   7.293  0.2348  0.1515 -0.4916
   75MOL   C35537503   2.962   1.305   7.355  0.0621 -0.1564  0.0776
   75MOL   C35637504   3.016   1.159   7.352  0.0477 -0.2830  0.1689
   75MOL   C35737505   3.148   1.137   7.435  0.4579 -0.2257  0.8751
   75MOL   C35837506   3.187   0.993   7.455  0.2883 -0.8400  0.2892
   75MOL   C35937507   3.105   0.921   7.566  0.7523  0.4170 -0.0394
   75MOL   C36037508   3.153   0.783   7.600  0.0791  0.7163  0.3573
   75MOL   H36137509   2.709   1.614   7.264  0.9999  0.8434  0.3051
   75MOL   H36237510   2.851   1.594   7.339 -0.2046  0.8630 -1.6093
   75MOL   H36337511   2.675   1.385   7.205  2.1862 -4.4870 -1.5771
   75MOL   H36437512   2.952   1.347   7.455 -2.5772 -0.6399  0.0413
   75MOL   H36537513   3.032   1.376   7.310  0.0669 -0.1222  0.1389
   75MOL   H36637514   3.033   1.130   7.249 -0.0241 -2.3736  0.7302
   75MOL   H36737515   2.936   1.097   7.392 -1.2911  1.4075  0.1528
   75MOL   H36837516   3.226   1.190   7.380 -0.2465  1.0209  1.0528
   75MOL   H36937517   3.141   1.194   7.527  1.4745  1.5116 -0.1021
   75MOL   H37037518   3.171   0.935   7.364 -1.3619 -2.0977  1.3475
   75MOL   H37137519   3.295   0.998   7.473  0.6044 -1.9841 -1.1953
   75MOL   H37237520   3.101   0.989   7.651 -2.1198 -0.3574  0.5090
   75MOL   H37337521   3.001   0.912   7.534  0.3089  4.1345  0.0920
   75MOL   H37437522   3.259   0.783   7.627  0.0879  0.3625  0.3208
   75MOL   H37537523   3.095   0.749   7.685  0.0668  0.6886  0.3382
   75MOL   H37637524   3.132   0.714   7.518 -1.0300  0.1793  1.0971
   75MOL   C37737525   2.850   1.456   7.098 -0.1179  0.6094 -0.3973
   75MOL   C37837526   2.872   1.338   6.996 -0.1661 -0.4989  0.2273
   75MOL   O37937527   2.947   1.387   6.883 -0.6363 -0.2789 -0.0976
   75MOL   C38037528   3.091   1.401   6.893  0.5648 -0.2167  0.0095
   75MOL   C38137529   3.153   1.451   6.761  0.8286 -0.0573  0.2095
   75MOL   C38237530   3.127   1.602   6.722 -0.2432 -0.1985  0.5377
   75MOL   C38337531   3.213   1.705   6.798 -0.0607 -0.1422 -0.5281
   75MOL   C38437532   3.192   1.842   6.743 -0.4214 -0.9686 -0.3471
   75MOL   C38537533   3.256   1.947   6.827 -0.1763  0.0041 -0.0438
   75MOL   H38637534   2.796   1.533   7.042  2.0624  1.5312 -1.2636
   75MOL   H38737535   2.946   1.501   7.125 -0.1571  0.3182  0.2348
   75MOL   H38837536   2.942   1.265   7.037  1.0146 -0.0763 -1.0192
   75MOL   H38937537   3.134   1.306   6.926 -0.7536 -0.6740  0.4683
   75MOL   H39037538   3.118   1.476   6.968 -0.3321  0.7349 -0.6056
   75MOL   H39137539   3.098   1.389   6.690 -0.7257  1.4225  0.0835
   75MOL   H39237540   3.259   1.427   6.761  0.4654 -1.7620  0.4920
   75MOL   H39337541   3.129   1.613   6.614  1.9181  1.2724  0.7009
   75MOL   H39437542   3.021   1.619   6.744  0.1906  1.0504  1.7850
   75MOL   H39537543   3.206   1.704   6.906  0.0223 -1.3668 -0.5289
   75MOL   H39637544   3.315   1.682   6.767  0.5978  2.1625 -0.2279
   75MOL   H39737545   3.229   1.852   6.640  0.7148 -1.4361  0.0041
   75MOL   H39837546   3.086   1.862   6.732 -0.7417 -1.6309  1.4519
   75MOL   H39937547   3.247   2.045   6.781 -2.4978  0.2112  0.7769
   75MOL   H40037548   3.215   1.949   6.929  2.4481 -4.3745  1.2402
   75MOL   H40137549   3.363   1.928   6.837 -0.4347 -1.9126 -0.6988
   75MOL   C40237550   2.744   1.263   6.951  0.6441 -0.2480  0.2125
   75MOL   C40337551   2.769   1.156   6.854 -0.0690  0.3594  0.1317
   75MOL   O40437552   2.639   1.132   6.799 -0.2250  0.0489 -0.3282
   75MOL   C40537553   2.638   1.128   6.662  1.0278 -0.3824 -0.7524
   75MOL   C40637554   2.505   1.070   6.610 -0.2156 -0.2933  0.1268
   75MOL   C40737555   2.485   0.917   6.614  0.3197 -0.1151 -0.5505
   75MOL   C40837556   2.358   0.863   6.539 -0.0544 -0.1897 -0.1788
   75MOL   C40937557   2.337   0.707   6.537 -0.3490 -0.6716 -0.0842
   75MOL   C41037558   2.230   0.658   6.438 -0.1147 -0.4094  0.9116
   75MOL   H41137559   2.686   1.342   6.904  2.7226  1.1367 -0.1144
   75MOL   H41237560   2.685   1.224   7.034  0.3936  0.9115  0.5774
   75MOL   H41337561   2.838   1.188   6.776 -0.2537 -0.2369 -0.2791
   75MOL   H41437562   2.715   1.066   6.614 -0.7504 -1.7768 -1.8535
   75MOL   H41537563   2.645   1.231   6.628  1.6154 -1.1337 -2.9851
   75MOL   H41637564   2.498   1.110   6.509  1.1775  0.3076  0.2541
   75MOL   H41737565   2.423   1.122   6.659  0.3705 -0.2179  1.0386
   75MOL   H41837566   2.573   0.870   6.570  0.7415  1.1331 -1.0468
   75MOL   H41937567   2.485   0.888   6.719 -1.2500 -0.8475 -0.7411
   75MOL   H42037568   2.270   0.921   6.567 -1.0439 -0.2610 -2.9977
   75MOL   H42137569   2.369   0.906   6.439 -1.0938  3.7587  1.2998
   75MOL   H42237570   2.433   0.663   6.511  0.7987  1.4334  0.4577
   75MOL   H42337571   2.310   0.666   6.634  0.3428  1.7061  1.1587
   75MOL   H42437572   2.236   0.712   6.343  1.8870  0.4047  1.4917
   75MOL   H42537573   2.248   0.552   6.420  0.8574 -0.0739 -0.1209
   75MOL   H42637574   2.129   0.681   6.472  0.2006  1.5804  0.5376
   75MOL   C42737575   2.814   1.017   6.907  0.2234  0.6440  0.6986
   75MOL   C42837576   2.867   0.922   6.797  0.3284  0.2913  0.0009
   75MOL   O42937577   2.962   0.977   6.714 -0.4266 -0.6946 -0.3513
   75MOL   C43037578   3.012   0.912   6.597  0.2186  0.3920  0.8266
   75MOL   C43137579   3.110   1.007   6.529  1.3436  0.5874 -0.5206
   75MOL   C43237580   3.056   1.142   6.478  0.1634 -0.3018  0.0609
   75MOL   C43337581   3.158   1.231   6.417  1.2092 -0.2968  0.2345
   75MOL   C43437582   3.100   1.364   6.375  0.0867 -0.0013 -0.6088
   75MOL   C43537583   3.200   1.464   6.317  0.7265 -0.3063  0.4140
   75MOL   H43637584   2.875   1.035   6.996  1.4433 -0.8893  0.1790
   75MOL   H43737585   2.723   0.973   6.947  0.0498 -1.3563 -1.8353
   75MOL   H43837586   2.792   0.892   6.723 -0.0216  0.7389  0.1676
   75MOL   H43937587   2.927   0.899   6.530  1.7980  1.4236 -1.4240
   75MOL   H44037588   3.053   0.815   6.625 -0.5882  0.0447  0.8246
   75MOL   H44137589   3.149   0.961   6.438 -2.4605 -0.0425 -1.9269
   75MOL   H44237590   3.190   1.028   6.600 -0.3606  0.7568  1.3938
   75MOL   H44337591   2.966   1.137   6.417 -1.2420 -0.3224  2.0871
   75MOL   H44437592   3.005   1.192   6.561 -1.3182 -0.2528 -0.8543
   75MOL   H44537593   3.245   1.251   6.480  2.4549  0.3851 -1.6324
   75MOL   H44637594   3.195   1.183   6.326  2.1560  0.2422  0.3289
   75MOL   H44737595   3.012   1.344   6.314  1.5530 -3.5258 -1.6901
   75MOL   H44837596   3.059   1.405   6.467  2.1383 -1.6035  1.0930
   75MOL   H44937597   3.254   1.525   6.389  0.9467 -0.8930  0.7481
   75MOL   H45037598   3.262   1.410   6.246 -0.0214 -0.0973 -0.4218
   75MOL   H45137599   3.148   1.537   6.255  0.2662 -1.6835 -0.8499
   75MOL   C45237600   2.926   0.795   6.868  0.1291  0.4433  0.2417
   75MOL   C45337601   2.822   0.707   6.949 -0.0965  0.3018 -0.3956
   75MOL   O45437602   2.896   0.640   7.055 -0.4569 -0.5839  0.0493
   75MOL   C45537603   2.944   0.726   7.166 -0.6293 -0.2818  0.0033
   75MOL   C45637604   2.833   0.722   7.274 -0.7745  0.1337  1.0363
   75MOL   C45737605   2.811   0.582   7.334  0.2704  0.1394 -0.9014
   75MOL   C45837606   2.684   0.595   7.428  0.5567 -0.8626 -0.3188
   75MOL   C45937607   2.607   0.463   7.455 -0.0598  0.1737  0.0210
   75MOL   C46037608   2.465   0.486   7.502  0.6860  0.6960  0.2277
   75MOL   H46137609   2.951   0.728   6.786  1.7935  1.6767 -0.2794
   75MOL   H46237610   3.019   0.816   6.920  0.7293  0.6664 -0.9043
   75MOL   H46337611   2.741   0.764   6.995  0.2891 -0.0516  0.7502
   75MOL   H46437612   2.959   0.830   7.138  0.0490 -1.0253 -2.5686
   75MOL   H46537613   3.043   0.688   7.192 -0.1937  0.3275 -0.7413
   75MOL   H46637614   2.736   0.754   7.236 -1.6575 -3.6568 -0.1229
   75MOL   H46737615   2.855   0.796   7.350 -1.4072  0.4287  0.9334
   75MOL   H46837616   2.799   0.507   7.256 -0.7508 -0.5985 -0.0382
   75MOL   H46937617   2.887   0.551   7.405 -2.2597  2.0578  2.8238
   75MOL   H47037618   2.711   0.635   7.526 -1.8973 -2.2721  0.9632
   75MOL   H47137619   2.607   0.658   7.385  1.0321  0.1137  0.2305
   75MOL   H47237620   2.608   0.394   7.371  0.5820  0.8452 -0.5249
   75MOL   H47337621   2.658   0.403   7.530  0.2074 -1.6258 -1.5705
   75MOL   H47437622   2.418   0.392   7.532  0.6664  0.6170 -0.0540
   75MOL   H47537623   2.457   0.564   7.578  0.2968  0.6821  0.2008
   75MOL   H47637624   2.405   0.516   7.416 -2.1337 -2.8175  0.8330
   75MOL   C47737625   2.754   0.600   6.871 -0.5605 -0.0281  0.1435
   75MOL   C47837626   2.652   0.528   6.968  0.4931 -0.2725 -0.0705
   75MOL   O47937627   2.581   0.433   6.906 -0.2991 -0.6055 -0.5853
   75MOL   C48037628   2.514   0.467   6.782  0.4619 -0.2700 -0.1252
   75MOL   C48137629   2.400   0.362   6.749 -0.0660  0.0303 -0.3100
   75MOL   C48237630   2.447   0.221   6.767 -0.0501 -0.0278  0.0765
   75MOL   C48337631   2.337   0.111   6.744 -0.3497 -0.6319 -0.4784
   75MOL   C48437632   2.204   0.126   6.819 -0.0391 -0.0526 -0.9192
   75MOL   C48537633   2.108   0.013   6.789 -0.5516 -0.4539 -0.5101
   75MOL   H48637634   2.705   0.649   6.787  1.1853  1.9297  0.2182
   75MOL   H48737635   2.821   0.526   6.827 -1.8104 -0.1737 -1.5893
   75MOL   H48837636   2.699   0.483   7.056  0.4857  4.7593  2.7404
   75MOL   H48937637   2.587   0.463   6.702  2.3417 -0.4619  1.5682
   75MOL   H49037638   2.475   0.569   6.778  5.1654  1.6124 -0.2792
   75MOL   H49137639   2.361   0.387   6.651 -1.5740 -0.9468  0.0186
   75MOL   H49237640   2.318   0.388   6.816  0.1433 -1.8878  0.7248
   75MOL   H49337641   2.526   0.210   6.692  1.6242 -1.6237  2.0203
   75MOL   H49437642   2.493   0.213   6.865  0.5940  2.1369 -0.0217
   75MOL   H49537643   2.303   0.122   6.641 -0.5969 -1.4058 -0.4776
   75MOL   H49637644   2.382   0.016   6.771 -1.6620 -0.7933  1.2235
   75MOL   H49737645   2.211   0.152   6.924 -0.3503 -0.4539 -0.8016
   75MOL   H49837646   2.162   0.218   6.778  1.6356  1.7559  1.3473
   75MOL   H49937647   2.006   0.052   6.790 -0.0006  1.0021  0.5835
   75MOL   H50037648   2.125   7.741   6.693 -3.8048 -1.4419 -0.6423
   75MOL   H50137649   2.109   7.712   6.863  0.1005 -1.2288 -1.3315
   75MOL   H50237650   2.582   0.607   6.995  1.1644 -0.0946  1.2532
   76MOL     C137651   1.391   6.196   5.999 -0.2363 -0.4595  0.0490
   76MOL     C237652   1.414   6.082   5.912 -0.6990 -0.9664  0.8035
   76MOL     O337653   1.549   6.076   5.870 -0.2028 -0.2930  0.1779
   76MOL     C437654   1.643   6.003   5.942  0.0225  0.8637  0.8828
   76MOL     C537655   1.773   6.005   5.867 -0.6847 -0.6338 -0.6545
   76MOL     C637656   1.879   5.955   5.960 -0.0621  0.0669  0.0622
   76MOL     C737657   2.020   5.948   5.899  0.1709 -0.0060 -0.3505
   76MOL     C837658   2.125   5.902   5.991 -0.1075  0.3494  0.1263
   76MOL     C937659   2.258   5.897   5.920 -0.4674 -0.2278  0.3472
   76MOL    H1037660   1.289   6.206   6.035  0.2575  0.8269  1.1027
   76MOL    H1137661   1.450   6.176   6.089 -1.4832  1.4305  1.3127
   76MOL    H1237662   1.390   5.992   5.969 -1.0170 -1.0707  0.5048
   76MOL    H1337663   1.620   5.898   5.962 -1.4818  1.2359  1.1702
   76MOL    H1437664   1.658   6.041   6.043  0.5331 -0.2736  1.2370
   76MOL    H1537665   1.797   6.108   5.842  3.5982 -1.4130 -0.1676
   76MOL    H1637666   1.776   5.962   5.767 -0.8419 -1.4871 -0.3000
   76MOL    H1737667   1.880   6.024   6.044  0.1877  0.9533 -0.6698
   76MOL    H1837668   1.850   5.856   5.996  0.9918 -0.5383 -0.7321
   76MOL    H1937669   2.018   5.879   5.815  0.6434  0.7595 -1.0048
   76MOL    H2037670   2.038   6.040   5.843 -2.0874 -0.4063 -1.8201
   76MOL    H2137671   2.095   5.803   6.025  1.7996 -1.3064 -2.7835
   76MOL    H2237672   2.130   5.959   6.084  1.6039 -1.3998  1.1378
   76MOL    H2337673   2.264   5.981   5.850 -0.7256 -2.7243 -2.7937
   76MOL    H2437674   2.335   5.907   5.996  1.1202 -0.5963 -1.1805
   76MOL    H2537675   2.268   5.806   5.862 -1.8866  0.7880 -1.5625
   76MOL    H2637676   1.425   6.285   5.947 -1.8398  0.7978  1.1217
   76MOL    C2737677   1.327   6.091   5.782  1.0861  0.1928  0.6196
   76MOL    C2837678   1.345   5.967   5.695  0.0861 -0.0283  0.8330
   76MOL    O2937679   1.336   5.849   5.775  0.3130 -0.4735 -0.3901
   76MOL    C3037680   1.424   5.748   5.719  0.7217  0.2997 -0.0537
   76MOL    C3137681   1.392   5.625   5.800  0.7080  0.0072  0.0318
   76MOL    C3237682   1.436   5.623   5.939 -0.0986  0.0065  0.1552
   76MOL    C3337683   1.580   5.558   5.953  0.3304 -0.3282  0.1432
   76MOL    C3437684   1.618   5.522   6.103  0.7540 -0.2957  0.2480
   76MOL    C3537685   1.641   5.640   6.194 -0.0163  0.2109 -0.2548
   76MOL    H3637686   1.226   6.118   5.810  0.8083  1.1991 -1.2471
   76MOL    H3737687   1.365   6.179   5.730 -0.8325  1.0275  0.5813
   76MOL    H3837688   1.447   5.970   5.658 -0.5679  1.0952 -0.9674
   76MOL    H3937689   1.529   5.776   5.727  0.8704 -0.5667  1.1533
   76MOL    H4037690   1.399   5.737   5.613  1.9552  1.0858 -0.4373
   76MOL    H4137691   1.416   5.532   5.748 -2.7717 -0.2910 -1.1919
   76MOL    H4237692   1.283   5.624   5.799  0.6362 -3.2731  2.1694
   76MOL    H4337693   1.451   5.721   5.983 -0.2932 -1.2842  3.2820
   76MOL    H4437694   1.363   5.566   5.996 -0.6158  1.5109  0.9989
   76MOL    H4537695   1.585   5.469   5.891 -1.5916 -0.5438  0.2630
   76MOL    H4637696   1.650   5.632   5.913 -1.3921 -0.7874 -3.9376
   76MOL    H4737697   1.541   5.454   6.142  0.1481  0.2538  0.0105
   76MOL    H4837698   1.703   5.454   6.109 -0.4478 -1.6730  2.5156
   76MOL    H4937699   1.653   5.600   6.294  0.6345  1.5526  0.2169
   76MOL    H5037700   1.734   5.686   6.160 -0.3807 -0.4714 -2.2892
   76MOL    H5137701   1.547   5.696   6.199 -0.0140  0.4037 -2.0457
   76MOL    C5237702   1.251   5.966   5.573  0.5963  0.1962  0.0591
   76MOL    C5337703   1.315   6.029   5.444  0.5995  0.6085 -0.3234
   76MOL    O5437704   1.444   5.967   5.422 -0.0069  0.4657  0.1176
   76MOL    C5537705   1.541   6.060   5.360 -0.1653  0.6724  0.3457
   76MOL    C5637706   1.670   5.979   5.334  0.2681  0.2023 -0.0811
   76MOL    C5737707   1.724   5.909   5.464  0.3201  0.1416  0.0568
   76MOL    C5837708   1.831   5.802   5.436 -0.4371  0.2117 -0.6686
   76MOL    C5937709   1.808   5.669   5.512  0.0375  0.2299  0.2526
   76MOL    C6037710   1.814   5.672   5.667  0.4200  0.1163  0.0627
   76MOL    H6137711   1.156   6.015   5.592  1.5040  1.9978  0.0768
   76MOL    H6237712   1.224   5.865   5.540  1.6096  0.2711 -1.0286
   76MOL    H6337713   1.322   6.136   5.463 -3.1099  0.9260 -0.2577
   76MOL    H6437714   1.560   6.144   5.426 -0.2383  1.9844 -1.2695
   76MOL    H6537715   1.502   6.090   5.263  2.4109 -0.4487 -1.1011
   76MOL    H6637716   1.753   6.036   5.293  0.6335  0.4102  0.9354
   76MOL    H6737717   1.649   5.904   5.258  1.4860 -0.1467 -0.0762
   76MOL    H6837718   1.768   5.978   5.536 -0.6419 -0.2570  1.0334
   76MOL    H6937719   1.643   5.872   5.527  0.4280 -0.3682 -0.1098
   76MOL    H7037720   1.834   5.773   5.331 -0.3391  0.3085 -0.6928
   76MOL    H7137721   1.930   5.841   5.455 -0.0903 -0.1547 -1.7035
   76MOL    H7237722   1.712   5.638   5.472 -0.0884  0.8673  0.0550
   76MOL    H7337723   1.886   5.604   5.473 -1.9265 -1.2144 -1.3503
   76MOL    H7437724   1.782   5.578   5.714  1.1033  0.4162  1.1533
   76MOL    H7537725   1.917   5.690   5.697  1.3976 -3.0731 -1.2236
   76MOL    H7637726   1.753   5.752   5.708  2.4908  2.9637 -2.2561
   76MOL    C7737727   1.231   6.016   5.315  0.0567  0.7921 -0.3995
   76MOL    C7837728   1.085   6.075   5.311 -0.0654  0.3567 -0.0425
   76MOL    O7937729   1.016   6.030   5.196 -0.4549 -0.3810 -0.0394
   76MOL    C8037730   0.952   5.899   5.197  0.1460  0.1421  0.3227
   76MOL    C8137731   0.895   5.867   5.059 -0.8319  0.2755  0.3144
   76MOL    C8237732   0.757   5.941   5.039 -0.4725  0.6111  0.3567
   76MOL    C8337733   0.636   5.852   5.056 -0.0699  0.1016  0.5834
   76MOL    C8437734   0.497   5.918   5.036 -0.2950  0.0264  0.3469
   76MOL    C8537735   0.456   6.015   5.153  0.1205  0.3645 -0.6502
   76MOL    H8637736   1.225   5.907   5.304  0.4876  0.5683  1.4475
   76MOL    H8737737   1.284   6.058   5.230 -0.2607 -1.3582 -1.7038
   76MOL    H8837738   1.030   6.039   5.397 -0.5093  3.2531  0.9446
   76MOL    H8937739   0.873   5.900   5.272 -0.1656 -0.4614  0.0042
   76MOL    H9037740   1.025   5.824   5.228  0.1773 -0.2446 -0.6691
   76MOL    H9137741   0.879   5.760   5.050  1.6776 -0.2278  1.2818
   76MOL    H9237742   0.971   5.896   4.987 -1.0092 -1.5229 -0.6216
   76MOL    H9337743   0.749   6.025   5.108  0.3638 -0.5364  1.8841
   76MOL    H9437744   0.756   5.995   4.945 -0.0966 -0.9465 -0.5623
   76MOL    H9537745   0.646   5.772   4.982  0.2298 -0.8791  1.6816
   76MOL    H9637746   0.652   5.799   5.150  1.8957 -1.9166 -0.8494
   76MOL    H9737747   0.481   5.967   4.939  0.1387  0.2536  0.3854
   76MOL    H9837748   0.429   5.835   5.049  1.2828 -1.1484  1.3672
   76MOL    H9937749   0.512   6.108   5.151  0.5123  0.1724  0.8609
   76MOL   H10037750   0.352   6.048   5.155 -0.2315 -0.8038  1.2459
   76MOL   H10137751   0.465   5.946   5.236 -0.5716  1.0488 -0.0009
   76MOL   C10237752   1.081   6.232   5.306 -0.0612 -0.7282  0.7516
   76MOL   C10337753   0.938   6.296   5.315 -0.3917  0.5713  0.1482
   76MOL   O10437754   0.872   6.272   5.435  0.3817 -0.4243 -0.9272
   76MOL   C10537755   0.776   6.169   5.434 -0.1167  0.2758 -0.8575
   76MOL   C10637756   0.691   6.190   5.559 -0.3553 -0.0820  0.4289
   76MOL   C10737757   0.765   6.157   5.687  0.1429 -0.3171 -0.2847
   76MOL   C10837758   0.683   6.161   5.815 -0.0531 -0.6824  0.1541
   76MOL   C10937759   0.762   6.126   5.940 -0.1985  0.3292 -0.2987
   76MOL   C11037760   0.825   5.980   5.956 -0.6318 -0.1790  0.2856
   76MOL   H11137761   1.144   6.285   5.377 -0.7587 -0.4304  1.1467
   76MOL   H11237762   1.111   6.261   5.205 -0.9815 -1.0836  0.3764
   76MOL   H11337763   0.864   6.259   5.244  3.0258 -1.6060 -2.4747
   76MOL   H11437764   0.816   6.069   5.442  1.0430  0.9101  1.8939
   76MOL   H11537765   0.707   6.180   5.350 -2.5532 -1.7711  0.7935
   76MOL   H11637766   0.605   6.125   5.547  0.2402 -0.5395 -1.6419
   76MOL   H11737767   0.666   6.297   5.562  1.0548  0.2681  0.1392
   76MOL   H11837768   0.816   6.062   5.671  0.3596 -0.0959 -0.9477
   76MOL   H11937769   0.851   6.224   5.692  1.1086 -1.5016 -0.8212
   76MOL   H12037770   0.644   6.261   5.834  0.0619 -1.0426  2.5568
   76MOL   H12137771   0.596   6.096   5.808 -0.6143  0.3868 -3.4493
   76MOL   H12237772   0.838   6.204   5.945  0.4627 -0.3546  0.4561
   76MOL   H12337773   0.695   6.147   6.023  0.3494  0.5107  0.0945
   76MOL   H12437774   0.742   5.911   5.942  0.3573 -1.1033 -1.0738
   76MOL   H12537775   0.911   5.972   5.890  0.5236 -0.1324  1.7446
   76MOL   H12637776   0.859   5.970   6.059  1.4400  0.6781 -0.3015
   76MOL   C12737777   0.942   6.445   5.287 -0.0656 -0.2633  0.3367
   76MOL   C12837778   0.808   6.522   5.275 -0.6174 -0.5560  0.9030
   76MOL   O12937779   0.759   6.464   5.154 -0.0829 -0.0691 -0.2757
   76MOL   C13037780   0.619   6.453   5.143  0.5107 -0.2394 -0.3808
   76MOL   C13137781   0.594   6.372   5.017 -0.0661  0.0786  0.4323
   76MOL   C13237782   0.449   6.353   4.981  0.3727  0.2614 -0.2021
   76MOL   C13337783   0.430   6.271   4.852 -0.1036  0.7040  0.4869
   76MOL   C13437784   0.301   6.183   4.831 -0.8988  0.2644  0.0696
   76MOL   C13537785   0.186   6.271   4.802 -0.3573  0.2088 -0.5190
   76MOL   H13637786   1.000   6.488   5.369  0.6107 -1.8147  0.6861
   76MOL   H13737787   0.986   6.457   5.188 -0.0867 -1.2979  0.1964
   76MOL   H13837788   0.746   6.502   5.363 -0.4333  1.3054  1.4730
   76MOL   H13937789   0.572   6.550   5.126 -1.5662 -1.5145 -2.1883
   76MOL   H14037790   0.569   6.413   5.231  1.6669  1.7896  1.2475
   76MOL   H14137791   0.652   6.281   5.032  1.5158  1.2642  1.7058
   76MOL   H14237792   0.641   6.425   4.933 -0.1336  1.9556  1.5422
   76MOL   H14337793   0.401   6.306   5.068 -0.2974  0.0456 -0.6838
   76MOL   H14437794   0.427   6.459   4.968  0.6352  0.4522  0.8312
   76MOL   H14537795   0.439   6.331   4.761  0.4060 -2.8431 -1.9308
   76MOL   H14637796   0.519   6.208   4.846 -0.1084  0.5172  2.3074
   76MOL   H14737797   0.330   6.125   4.744 -0.7492 -0.3194  0.5074
   76MOL   H14837798   0.284   6.129   4.924  0.8064  1.0018  0.8274
   76MOL   H14937799   0.168   6.335   4.889 -1.5517 -0.9878  0.1409
   76MOL   H15037800   0.200   6.332   4.713 -0.3872 -0.1067 -0.7399
   76MOL   H15137801   0.103   6.206   4.772  0.7546 -1.6168  0.2607
   76MOL   C15237802   0.826   6.671   5.257 -0.0552  0.3854  0.2830
   76MOL   C15337803   0.712   6.773   5.224 -0.1397 -0.2783  0.0857
   76MOL   O15437804   0.621   6.786   5.337  0.6081  0.1481 -0.3901
   76MOL   C15537805   0.491   6.724   5.320 -0.0199  0.5046  0.1164
   76MOL   C15637806   0.398   6.782   5.426  0.3289 -0.3221  0.1793
   76MOL   C15737807   0.251   6.737   5.406 -0.4675 -0.2243  0.4647
   76MOL   C15837808   0.152   6.780   5.516 -0.0559 -0.3742  0.3814
   76MOL   C15937809   0.039   6.677   5.518 -0.8065 -0.2519  0.4587
   76MOL   C16037810   7.706   6.706   5.612 -0.5177  0.3943  0.3872
   76MOL   H16137811   0.875   6.717   5.343 -0.8189  1.1951  0.2897
   76MOL   H16237812   0.907   6.681   5.184  0.5475 -0.5979  0.7951
   76MOL   H16337813   0.661   6.731   5.137  1.2381 -0.0955 -0.8333
   76MOL   H16437814   0.488   6.615   5.329  3.3696  0.3453 -0.0477
   76MOL   H16537815   0.447   6.744   5.223  1.5238 -0.6883 -0.8526
   76MOL   H16637816   0.401   6.891   5.434 -0.6287 -0.4206  2.0993
   76MOL   H16737817   0.430   6.752   5.526  1.8243  0.7691  0.0424
   76MOL   H16837818   0.215   6.780   5.313  0.2515 -2.2660 -0.7900
   76MOL   H16937819   0.250   6.629   5.392  0.1015 -0.0484 -0.9644
   76MOL   H17037820   0.204   6.770   5.611 -0.1182 -1.4092  0.3101
   76MOL   H17137821   0.111   6.878   5.493  0.0580 -0.6867 -1.2489
   76MOL   H17237822   0.006   6.653   5.417 -0.7158 -3.7712  1.2080
   76MOL   H17337823   0.085   6.587   5.559  0.4513 -1.7757 -4.0477
   76MOL   H17437824   7.669   6.806   5.589  0.9395  0.9531  0.3746
   76MOL   H17537825   7.617   6.656   5.576  0.5572 -1.6617  0.5010
   76MOL   H17637826   7.730   6.686   5.717  1.9053  1.5608  0.1010
   76MOL   C17737827   0.759   6.916   5.191 -1.2285  1.0287 -0.4071
   76MOL   C17837828   0.647   7.006   5.136  1.0849 -0.3214 -0.8271
   76MOL   O17937829   0.656   7.149   5.165 -0.2837  0.1079  0.3627
   76MOL   C18037830   0.640   7.189   5.304  0.0079  0.1798  0.4228
   76MOL   C18137831   0.632   7.347   5.323  0.2758 -0.0266 -0.0535
   76MOL   C18237832   0.601   7.396   5.471  0.3590  0.7541  0.1481
   76MOL   C18337833   0.630   7.539   5.496 -0.1388  0.4047 -0.1306
   76MOL   C18437834   0.575   7.569   5.635 -0.3504 -0.0867 -0.4219
   76MOL   C18537835   0.679   7.531   5.746  0.4204 -0.2307 -0.7460
   76MOL   H18637836   0.797   6.958   5.284  1.2012  0.8582 -1.2968
   76MOL   H18737837   0.831   6.921   5.110 -1.1904 -1.2232 -0.5188
   76MOL   H18837838   0.552   6.976   5.180  0.0690  1.2244 -1.9038
   76MOL   H18937839   0.726   7.148   5.358  2.0339  2.9082 -0.6042
   76MOL   H19037840   0.547   7.150   5.344 -0.4001  0.4802 -0.2390
   76MOL   H19137841   0.565   7.388   5.248 -0.7148  0.6434  1.1825
   76MOL   H19237842   0.739   7.359   5.304  0.2731 -1.2103 -0.8879
   76MOL   H19337843   0.499   7.359   5.480  0.6935 -0.3020 -0.4013
   76MOL   H19437844   0.665   7.345   5.543 -2.6299 -3.0348  0.2300
   76MOL   H19537845   0.738   7.558   5.491 -0.2922  1.6616  0.8141
   76MOL   H19637846   0.583   7.599   5.418 -0.8820 -1.1876 -0.9306
   76MOL   H19737847   0.543   7.670   5.659 -1.2053 -0.8302  1.7666
   76MOL   H19837848   0.489   7.508   5.664 -0.2303  0.3363  0.8327
   76MOL   H19937849   0.761   7.600   5.730  0.0338  0.6353  0.8683
   76MOL   H20037850   0.634   7.542   5.844  1.4512 -1.0895 -0.1652
   76MOL   H20137851   0.725   7.432   5.751 -1.1587 -0.9876 -0.8015
   76MOL   C20237852   0.642   7.008   4.984  0.2444  0.1738  0.4334
   76MOL   C20337853   0.543   7.099   4.911  1.8112  0.7362 -0.0723
   76MOL   O20437854   0.407   7.067   4.950  0.4460  0.5289 -0.1374
   76MOL   C20537855   0.352   7.160   5.048  0.1215  0.2587 -0.5516
   76MOL   C20637856   0.209   7.126   5.090  0.1696  0.4679  0.0645
   76MOL   C20737857   0.149   7.234   5.171  0.0509  1.2577  0.0949
   76MOL   C20837858   0.011   7.197   5.225  0.1619 -0.4641 -0.4627
   76MOL   C20937859   7.667   7.232   5.136  0.4184 -0.6620 -0.0324
   76MOL   C21037860   7.620   7.382   5.144 -0.6078 -0.5177  0.1133
   76MOL   H21137861   0.738   7.045   4.950  0.4187 -0.3555  0.3511
   76MOL   H21237862   0.623   6.906   4.949  2.4761  0.3498 -1.4069
   76MOL   H21337863   0.558   7.205   4.935 -0.1878  0.7431  1.2511
   76MOL   H21437864   0.356   7.260   5.006 -1.3523  0.6332  0.1802
   76MOL   H21537865   0.415   7.163   5.137 -1.1980  0.9659  0.3753
   76MOL   H21637866   0.200   7.032   5.144 -3.4031  0.8840  0.2924
   76MOL   H21737867   0.155   7.115   4.996  2.1767  1.1445 -1.1915
   76MOL   H21837868   0.214   7.250   5.257  1.7264 -2.7529 -0.2928
   76MOL   H21937869   0.135   7.327   5.117 -2.9020  0.6032 -0.3769
   76MOL   H22037870   0.011   7.091   5.251 -0.9818 -0.1818  0.8213
   76MOL   H22137871   7.765   7.244   5.321  0.6128 -1.6876  0.2687
   76MOL   H22237872   7.685   7.212   5.030  0.7386  1.3070 -0.3628
   76MOL   H22337873   7.589   7.163   5.167 -0.5865 -1.0512 -3.2380
   76MOL   H22437874   7.606   7.411   5.248  0.9495  0.1432  0.1684
   76MOL   H22537875   7.703   7.440   5.103 -1.4791  0.1607 -0.7124
   76MOL   H22637876   7.530   7.401   5.085  0.0812  0.2676 -0.7107
   76MOL   C22737877   0.566   7.087   4.761 -0.6456  0.8417 -0.7632
   76MOL   C22837878   0.487   7.171   4.669 -0.7434  0.2007  0.4587
   76MOL   O22937879   0.513   7.310   4.695 -0.9184  0.1857 -0.0854
   76MOL   C23037880   0.395   7.392   4.692  0.0230  0.1590  0.9337
   76MOL   C23137881   0.451   7.531   4.722  0.9136  0.2089 -0.6809
   76MOL   C23237882   0.493   7.533   4.874  0.7021 -0.5382 -0.4665
   76MOL   C23337883   0.578   7.646   4.929  0.1839 -0.2287 -0.2959
   76MOL   C23437884   0.669   7.610   5.060  0.1716  0.6811 -0.5173
   76MOL   C23537885   0.724   7.739   5.120  0.5071  0.1028  0.8365
   76MOL   H23637886   0.668   7.122   4.743 -0.2103  0.8698  1.6369
   76MOL   H23737887   0.572   6.982   4.733  0.9551  0.5113  0.7008
   76MOL   H23837888   0.381   7.153   4.688 -0.9385 -0.3636 -1.1388
   76MOL   H23937889   0.320   7.366   4.767 -0.4273  0.0947  0.4630
   76MOL   H24037890   0.344   7.380   4.597 -0.0701  1.1177  0.8616
   76MOL   H24137891   0.366   7.598   4.711  0.2043 -0.4942  0.4494
   76MOL   H24237892   0.529   7.559   4.651  3.9093 -1.7906  1.7034
   76MOL   H24337893   0.400   7.520   4.930 -1.0658 -3.2139 -3.8135
   76MOL   H24437894   0.561   7.450   4.888  1.3640  0.6034  3.6580
   76MOL   H24537895   0.645   7.678   4.850  2.0550 -3.5730 -0.1777
   76MOL   H24637896   0.509   7.728   4.947 -0.2546 -0.4012 -1.1780
   76MOL   H24737897   0.606   7.565   5.135  0.8053 -0.8188 -0.8689
   76MOL   H24837898   0.752   7.545   5.034 -1.1227 -0.8037 -0.9673
   76MOL   H24937899   0.657   0.018   5.185  0.5127 -0.3620  1.2565
   76MOL   H25037900   0.802   7.713   5.191  1.1114  1.5968  0.7281
   76MOL   H25137901   0.767   0.013   5.035 -0.0564 -3.0808 -1.4977
   76MOL   C25237902   0.517   7.142   4.523  0.0798  0.3707 -0.3433
   76MOL   C25337903   0.414   7.037   4.472 -0.6470 -0.1310  0.1869
   76MOL   O25437904   0.435   6.906   4.527  0.1694  0.0041 -0.8430
   76MOL   C25537905   0.313   6.829   4.547 -0.2295  0.9050 -0.3408
   76MOL   C25637906   0.273   6.841   4.694  0.5049 -0.4073 -0.4239
   76MOL   C25737907   0.195   6.723   4.753  0.2778 -0.0015  0.0589
   76MOL   C25837908   0.137   6.752   4.892 -0.2683 -0.3334 -0.1780
   76MOL   C25937909   0.032   6.659   4.948 -0.2789  0.1851  0.5595
   76MOL   C26037910   7.774   6.672   5.093 -0.3920  0.2592  0.0180
   76MOL   H26137911   0.499   7.235   4.470 -0.4039  0.4329 -0.0793
   76MOL   H26237912   0.623   7.119   4.518  0.5137  2.1628  0.3441
   76MOL   H26337913   0.315   7.075   4.498 -1.1526 -2.1504  1.3843
   76MOL   H26437914   0.354   6.729   4.529 -2.5376 -0.4103  1.5573
   76MOL   H26537915   0.236   6.862   4.478 -0.9976 -0.0920  0.0265
   76MOL   H26637916   0.213   6.931   4.714 -1.0015 -1.2439 -1.0405
   76MOL   H26737917   0.356   6.859   4.761 -0.3971  0.3332  0.5206
   76MOL   H26837918   0.111   6.714   4.684  0.6714 -0.3169 -0.3893
   76MOL   H26937919   0.255   6.632   4.753  0.5407  0.1710 -0.0206
   76MOL   H27037920   0.212   6.769   4.970 -0.6902  1.9902 -0.2494
   76MOL   H27137921   0.089   6.850   4.895 -0.2597 -0.2966 -1.0962
   76MOL   H27237922   7.717   6.660   4.892 -0.1499 -0.2064  0.3371
   76MOL   H27337923   0.073   6.559   4.940 -0.1424  0.2117  0.9357
   76MOL   H27437924   0.088   6.654   5.148  1.0432  0.8589 -2.1261
   76MOL   H27537925   7.726   6.767   5.113 -0.9269  0.3284 -1.5112
   76MOL   H27637926   7.711   6.584   5.110 -0.3075  0.5203  1.8079
   76MOL   C27737927   0.424   7.016   4.324  0.5146 -0.1649 -0.2912
   76MOL   C27837928   0.375   7.132   4.232 -0.0309  0.7453  0.7822
   76MOL   O27937929   0.474   7.234   4.238  0.5503  0.2577  0.2389
   76MOL   C28037930   0.432   7.369   4.245  0.0039 -0.1490 -0.4380
   76MOL   C28137931   0.563   7.451   4.257  0.2324  0.2314 -0.1302
   76MOL   C28237932   0.545   7.595   4.262  0.5806 -0.5069  0.3158
   76MOL   C28337933   0.670   7.672   4.269 -0.2034 -0.0943 -0.6452
   76MOL   C28437934   0.743   7.684   4.138  0.0919 -0.0854 -0.3535
   76MOL   C28537935   0.669   7.772   4.025 -0.2331  0.1211 -0.3474
   76MOL   H28637936   0.525   6.984   4.299 -0.2906 -1.5022 -2.0493
   76MOL   H28737937   0.363   6.927   4.303  0.8873 -0.2502 -1.0508
   76MOL   H28837938   0.281   7.166   4.276  0.1655  0.0916  1.7153
   76MOL   H28937939   0.361   7.387   4.325 -1.1439 -0.6730 -1.3201
   76MOL   H29037940   0.396   7.412   4.151 -0.4450  3.8789  1.4835
   76MOL   H29137941   0.635   7.413   4.184  2.3559 -1.2572  2.6326
   76MOL   H29237942   0.611   7.422   4.350  1.2152  2.1188 -0.0313
   76MOL   H29337943   0.496   7.628   4.171  2.1001 -3.2080 -1.5548
   76MOL   H29437944   0.474   7.621   4.341 -2.4857 -2.6185 -1.6421
   76MOL   H29537945   0.647   7.769   4.313  2.1324  0.6375 -0.9984
   76MOL   H29637946   0.734   7.623   4.342  2.4752  3.3539 -0.5398
   76MOL   H29737947   0.841   7.725   4.161  0.4240 -0.7962 -0.4846
   76MOL   H29837948   0.772   7.586   4.099  0.5422  0.7317 -2.1227
   76MOL   H29937949   0.644   0.085   4.080 -1.3821 -0.5487  0.2395
   76MOL   H30037950   0.742   0.024   3.950  0.8383 -1.4665  0.0195
   76MOL   H30137951   0.588   7.718   3.978 -0.1826 -1.0940  0.9423
   76MOL   C30237952   0.364   7.090   4.084 -0.4259  0.6910 -0.6126
   76MOL   C30337953   0.277   6.962   4.049  1.0781 -0.2898 -0.5494
   76MOL   O30437954   0.254   6.953   3.907  0.0191  0.0041 -0.2176
   76MOL   C30537955   0.365   6.911   3.834  0.2249 -0.6598 -0.6883
   76MOL   C30637956   0.305   6.853   3.708  0.3326 -0.0505 -0.5757
   76MOL   C30737957   0.232   6.967   3.629  0.5537  0.3656 -0.0818
   76MOL   C30837958   0.161   6.919   3.500 -0.3552 -0.5266  0.2311
   76MOL   C30937959   0.083   7.028   3.417 -0.1381 -0.7171  0.0180
   76MOL   C31037960   0.180   7.117   3.339  0.3426 -0.2609 -0.6055
   76MOL   H31137961   0.337   7.173   4.018 -0.4962  0.7798 -0.4701
   76MOL   H31237962   0.467   7.077   4.050  0.9323 -0.5265  3.7430
   76MOL   H31337963   0.321   6.867   4.082 -0.9773 -1.0548  0.0866
   76MOL   H31437964   0.422   6.844   3.898  1.1099  1.4459  0.8223
   76MOL   H31537965   0.419   7.002   3.808  0.7108 -0.9601 -0.7319
   76MOL   H31637966   0.231   6.781   3.743  0.3138  0.7836  1.1768
   76MOL   H31737967   0.380   6.806   3.645  2.9446  0.6528  1.9032
   76MOL   H31837968   0.172   7.030   3.696 -2.0952 -0.8990 -1.1767
   76MOL   H31937969   0.303   7.037   3.585  0.6864  0.8042  0.8248
   76MOL   H32037970   0.221   6.861   3.430 -0.4753 -0.4014  0.0257
   76MOL   H32137971   0.093   6.844   3.542 -1.0859  0.2423  0.4380
   76MOL   H32237972   0.008   6.996   3.345 -0.6868  3.0780 -1.1935
   76MOL   H32337973   0.026   7.098   3.478 -0.4028  0.7579 -1.9071
   76MOL   H32437974   0.134   7.202   3.289 -1.1875 -1.9435 -2.1041
   76MOL   H32537975   0.250   7.167   3.405  1.5903  0.9197 -2.7911
   76MOL   H32637976   0.228   7.058   3.261  0.8336 -0.6345 -0.0250
   76MOL   C32737977   0.135   6.968   4.106  0.4782 -0.1415 -0.7034
   76MOL   C32837978   0.063   6.829   4.101 -0.0454  0.1425  0.0609
   76MOL   O32937979   0.139   6.744   4.188  0.5084  0.4050 -0.1620
   76MOL   C33037980   0.119   6.603   4.148  0.5795 -0.1723  0.3229
   76MOL   C33137981   0.237   6.519   4.201 -0.2036 -0.8838  0.5068
   76MOL   C33237982   0.228   6.490   4.352  0.4146  0.0403  0.2698
   76MOL   C33337983   0.347   6.408   4.405 -0.3494  0.2639  0.2111
   76MOL   C33437984   0.338   6.255   4.403  0.3345  0.2034  0.4794
   76MOL   C33537985   0.475   6.175   4.402 -0.6654 -0.7993  0.1994
   76MOL   H33637986   0.087   7.054   4.059  0.6210 -0.1281 -0.8262
   76MOL   H33737987   0.144   6.988   4.213  1.7034 -0.8564 -0.6597
   76MOL   H33837988   0.067   6.800   3.996  0.0388 -0.3500  0.1999
   76MOL   H33937989   0.108   6.606   4.039 -0.6672  0.4000  0.4595
   76MOL   H34037990   0.026   6.568   4.193 -1.0824  0.9025 -2.1752
   76MOL   H34137991   0.329   6.572   4.176 -2.4100  2.4655 -0.8058
   76MOL   H34237992   0.234   6.425   4.146  1.0922  0.0431 -1.2220
   76MOL   H34337993   0.212   6.586   4.401  2.8784  0.2666  0.6947
   76MOL   H34437994   0.131   6.442   4.364  0.4283  0.2308  1.1663
   76MOL   H34537995   0.438   6.444   4.358 -0.5711  1.9397  1.0381
   76MOL   H34637996   0.378   6.438   4.505 -0.4064 -3.3743  1.3828
   76MOL   H34737997   0.284   6.235   4.495 -0.4963 -1.0372 -0.2576
   76MOL   H34837998   0.274   6.229   4.319 -0.0149  3.3772 -0.3018
   76MOL   H34937999   0.528   6.188   4.496  0.1791  1.0426 -0.5108
   76MOL   H35038000   0.477   6.068   4.378  1.3371 -0.8211  0.4224
   76MOL   H35138001   0.525   6.219   4.316 -2.3521 -1.4327 -1.1265
   76MOL   C35238002   7.698   6.835   4.156  0.2626  0.5587  0.4626
   76MOL   C35338003   7.590   6.893   4.073  0.0708  0.0217  1.0209
   76MOL   O35438004   7.624   7.026   4.037 -0.1540  0.3094  0.4315
   76MOL   C35538005   7.566   7.070   3.917 -0.5629  0.6928 -0.2309
   76MOL   C35638006   7.633   7.195   3.870  0.4652 -0.2190  0.1980
   76MOL   C35738007   7.558   7.253   3.747  0.3326  0.6458 -0.5413
   76MOL   C35838008   7.630   7.376   3.693 -0.0444  0.3299 -0.2781
   76MOL   C35938009   7.540   7.418   3.572  0.7831  0.3583 -0.9571
   76MOL   C36038010   7.405   7.491   3.597  0.3546  0.0198 -0.5328
   76MOL   H36138011   7.663   6.738   4.190 -0.5058  1.3297  1.8799
   76MOL   H36238012   7.696   6.900   4.243 -1.0714 -0.7392  1.4082
   76MOL   H36338013   7.573   6.834   3.983 -0.6345 -0.5962  1.5618
   76MOL   H36438014   7.462   7.096   3.939 -0.7860  0.3516 -0.8697
   76MOL   H36538015   7.567   6.996   3.838  0.8346  2.1351 -1.5985
   76MOL   H36638016   7.739   7.180   3.849  0.5032  0.3487 -0.0093
   76MOL   H36738017   7.621   7.274   3.945  1.5711 -1.0638  1.2931
   76MOL   H36838018   7.545   7.182   3.666  0.0328  0.2418 -0.1374
   76MOL   H36938019   7.454   7.273   3.773  0.9032  0.4258  2.1059
   76MOL   H37038020   7.634   7.461   3.761 -1.2177  0.7570 -0.7214
   76MOL   H37138021   7.728   7.341   3.662 -0.3647 -0.3750 -0.5076
   76MOL   H37238022   7.608   7.475   3.508  1.0830  0.7254 -0.3158
   76MOL   H37338023   7.520   7.325   3.518  0.6135  0.8098 -1.6816
   76MOL   H37438024   7.351   7.499   3.503 -0.8933  0.0183  0.1827
   76MOL   H37538025   7.344   7.429   3.662  0.6482  1.8510  1.5874
   76MOL   H37638026   7.417   7.589   3.645  2.3819 -1.1061  1.3613
   76MOL   C37738027   7.460   6.899   4.155  0.3436  0.2513 -0.7857
   76MOL   C37838028   7.372   6.769   4.162 -0.6058 -0.3538  1.2212
   76MOL   O37938029   7.273   6.784   4.067 -0.1593 -0.1831  0.1630
   76MOL   C38038030   7.298   6.740   3.936 -0.2282 -0.0019  0.4181
   76MOL   C38138031   7.168   6.741   3.850  0.6200  0.2080  0.4806
   76MOL   C38238032   7.138   6.885   3.796  0.2382 -0.2291  0.7181
   76MOL   C38338033   7.030   6.906   3.690 -0.5752 -0.4336  0.0446
   76MOL   C38438034   6.885   6.892   3.749  0.8305  0.1586 -0.2397
   76MOL   C38538035   6.779   6.922   3.645  0.2679 -0.2769  0.3154
   76MOL   H38638036   7.495   6.912   4.258 -1.4305 -0.3685 -0.0925
   76MOL   H38738037   7.391   6.979   4.131  0.4291  1.0257  1.4756
   76MOL   H38838038   7.431   6.680   4.141 -2.0708 -0.6683 -1.7415
   76MOL   H38938039   7.333   6.636   3.938  2.0559  0.7235 -0.4955
   76MOL   H39038040   7.368   6.817   3.904 -2.0171  1.2024 -0.6884
   76MOL   H39138041   7.088   6.691   3.905 -0.9787 -0.6888 -2.5098
   76MOL   H39238042   7.175   6.678   3.762 -1.2140 -0.5489  0.8411
   76MOL   H39338043   7.107   6.947   3.880 -0.9331 -1.4335  1.1982
   76MOL   H39438044   7.232   6.924   3.757 -0.8970  0.2556 -1.5777
   76MOL   H39538045   7.044   7.003   3.643  1.7354 -0.2872  1.0109
   76MOL   H39638046   7.034   6.831   3.611  2.2027 -0.0652 -0.1818
   76MOL   H39738047   6.869   6.798   3.803  1.1225 -0.3456 -1.0308
   76MOL   H39838048   6.879   6.972   3.823  0.8482  0.4971 -0.6068
   76MOL   H39938049   6.782   6.840   3.574 -0.7654  0.2582 -0.3504
   76MOL   H40038050   6.677   6.931   3.681  0.1480 -0.3120 -0.0224
   76MOL   H40138051   6.794   7.014   3.590  0.8077 -1.2146 -1.1242
   76MOL   C40238052   7.304   6.748   4.296  0.1490  0.4943 -0.5506
   76MOL   C40338053   7.252   6.610   4.317  0.1570  0.5531 -0.2489
   76MOL   O40438054   7.187   6.603   4.449 -0.1643  0.2234 -0.4850
   76MOL   C40538055   7.048   6.633   4.444  0.6907 -0.0644  0.2590
   76MOL   C40638056   6.994   6.642   4.587 -0.8379 -0.2165 -0.0914
   76MOL   C40738057   7.066   6.748   4.679 -0.5715 -0.7167  0.5388
   76MOL   C40838058   7.052   6.897   4.642 -0.5453 -0.2151  0.0432
   76MOL   C40938059   6.904   6.941   4.658  0.1297 -0.0992 -0.6979
   76MOL   C41038060   6.833   6.945   4.526  0.0610 -0.0988 -0.1170
   76MOL   H41138061   7.221   6.818   4.304  0.4400  0.6503  1.2703
   76MOL   H41238062   7.364   6.766   4.385 -0.4279  0.6495 -0.1935
   76MOL   H41338063   7.180   6.581   4.241  0.0813 -2.9449  1.0793
   76MOL   H41438064   6.999   6.558   4.383  2.0371 -1.0729  0.3943
   76MOL   H41538065   7.038   6.726   4.388  1.9523  0.6429  1.1887
   76MOL   H41638066   7.017   6.550   4.640 -0.0628  0.5600  0.9350
   76MOL   H41738067   6.885   6.644   4.587 -0.8321  0.1036 -0.0263
   76MOL   H41838068   7.034   6.743   4.783  1.0920  2.1498  1.2394
   76MOL   H41938069   7.174   6.738   4.673 -0.1221  3.3641  0.7737
   76MOL   H42038070   7.122   6.947   4.709  0.3533  2.3487 -2.6867
   76MOL   H42138071   7.093   6.904   4.541  2.4888  0.7576  1.2823
   76MOL   H42238072   6.847   6.875   4.723  1.4810 -0.0780  0.5364
   76MOL   H42338073   6.909   7.044   4.693  1.2591  0.4738 -2.4609
   76MOL   H42438074   6.898   7.006   4.463  3.0943 -0.6685  2.3637
   76MOL   H42538075   6.824   6.846   4.482 -1.3449 -0.8676  1.8549
   76MOL   H42638076   6.731   6.983   4.537  0.5994  1.2934  0.2295
   76MOL   C42738077   7.352   6.483   4.312 -0.4628 -0.7742 -0.1148
   76MOL   C42838078   7.276   6.353   4.318  0.4230 -0.0844  0.9005
   76MOL   O42938079   7.197   6.355   4.185  0.0747 -0.2142 -0.9218
   76MOL   C43038080   7.073   6.310   4.205 -0.0271 -0.0048  0.4335
   76MOL   C43138081   6.994   6.360   4.086  0.4077  0.5054 -0.1224
   76MOL   C43238082   7.006   6.281   3.959 -0.0053  0.1976  0.5195
   76MOL   C43338083   6.947   6.355   3.834 -0.0896  0.3930 -0.2048
   76MOL   C43438084   6.809   6.411   3.853 -0.1629  0.6994 -0.0988
   76MOL   C43538085   6.706   6.299   3.850 -0.3688  0.1565 -0.5897
   76MOL   H43638086   7.402   6.493   4.216 -3.4949  1.8602 -1.5101
   76MOL   H43738087   7.414   6.477   4.401  0.4006  3.0445 -0.3633
   76MOL   H43838088   7.214   6.355   4.407 -0.6350  0.4054  0.1664
   76MOL   H43938089   7.019   6.340   4.295  1.0918 -1.2407  1.5527
   76MOL   H44038090   7.067   6.203   4.225  0.5995 -0.0477  0.4121
   76MOL   H44138091   7.020   6.463   4.065  0.4911  0.2937 -1.0663
   76MOL   H44238092   6.886   6.346   4.100  0.2136  2.4849  0.4435
   76MOL   H44338093   7.111   6.280   3.933  1.1190  1.9375  4.6071
   76MOL   H44438094   6.981   6.176   3.977 -1.0807  0.5003  0.8592
   76MOL   H44538095   7.016   6.439   3.823  1.0020 -0.2551  1.4163
   76MOL   H44638096   6.965   6.301   3.741 -1.3296  0.5079 -0.5077
   76MOL   H44738097   6.795   6.474   3.941  3.6253  0.1011  1.0312
   76MOL   H44838098   6.784   6.473   3.767 -0.1825  0.8390  0.0064
   76MOL   H44938099   6.699   6.265   3.747 -0.2570  0.2405 -0.6240
   76MOL   H45038100   6.726   6.220   3.923 -0.7993 -2.0335 -2.7769
   76MOL   H45138101   6.609   6.343   3.877 -0.9643 -0.7918 -1.1529
   76MOL   C45238102   7.348   6.218   4.329  0.3477  0.4065 -0.7692
   76MOL   C45338103   7.448   6.196   4.208  0.0040 -0.0389 -0.4196
   76MOL   O45438104   7.460   6.058   4.187 -0.0729  0.2850  0.4756
   76MOL   C45538105   7.347   5.989   4.129  0.8032  0.3945  0.1418
   76MOL   C45638106   7.383   5.849   4.092  0.2098 -0.2042  0.1374
   76MOL   C45738107   7.425   5.766   4.213  0.3968 -0.4781 -0.2811
   76MOL   C45838108   7.418   5.614   4.199  0.6897  0.1676 -0.5345
   76MOL   C45938109   7.288   5.543   4.167 -0.3474 -0.3210 -0.1671
   76MOL   C46038110   7.176   5.582   4.264 -0.0641  0.3316 -0.3570
   76MOL   H46138111   7.410   6.211   4.419  1.5119 -0.1518 -1.5949
   76MOL   H46238112   7.272   6.140   4.337 -0.3784  1.0988 -0.9112
   76MOL   H46338113   7.410   6.245   4.119  2.1103  2.8622  0.2002
   76MOL   H46438114   7.311   6.033   4.036  0.0680 -0.5761 -0.0447
   76MOL   H46538115   7.259   5.988   4.194 -0.1901 -0.0653 -1.1890
   76MOL   H46638116   7.453   5.854   4.009 -0.2834  0.3710 -0.2443
   76MOL   H46738117   7.292   5.810   4.045  1.2410 -3.1821  0.5013
   76MOL   H46838118   7.522   5.803   4.243  0.3579 -0.7810  0.2245
   76MOL   H46938119   7.369   5.792   4.302 -2.1722  0.1181 -1.9899
   76MOL   H47038120   7.499   5.599   4.128  0.8353 -2.7768  0.2062
   76MOL   H47138121   7.447   5.570   4.294  0.0175  1.6142  0.3683
   76MOL   H47238122   7.271   5.575   4.064 -0.3585 -0.1870 -0.1237
   76MOL   H47338123   7.296   5.435   4.164  0.5520 -0.2511 -0.3750
   76MOL   H47438124   7.085   5.522   4.257 -2.6675  4.2746 -2.6538
   76MOL   H47538125   7.209   5.567   4.367  0.6703  0.4458 -0.5713
   76MOL   H47638126   7.150   5.688   4.257  0.4095  0.6121  1.9320
   76MOL   C47738127   7.584   6.252   4.244 -0.5067  0.0832 -0.0055
   76MOL   C47838128   7.681   6.254   4.125  0.4320 -0.6503 -0.5692
   76MOL   O47938129   7.652   6.378   4.056  0.1790 -0.4958 -0.4628
   76MOL   C48038130   7.723   6.393   3.936 -0.2232 -0.5247 -0.1907
   76MOL   C48138131   7.665   6.510   3.868 -0.2174 -0.0369 -0.3982
   76MOL   C48238132   7.737   6.541   3.726  0.3811  0.8908 -0.2559
   76MOL   C48338133   7.648   6.608   3.619  0.5920  0.4382 -0.9176
   76MOL   C48438134   7.613   6.749   3.669 -0.3661 -0.3667 -0.3620
   76MOL   C48538135   7.527   6.839   3.576 -0.3052 -0.2022 -0.1457
   76MOL   H48638136   7.589   6.355   4.279  0.6151 -0.4169  1.3214
   76MOL   H48738137   7.618   6.188   4.324 -2.2893 -0.0115  0.6962
   76MOL   H48838138   0.006   6.251   4.162 -0.2434  1.1317  1.5845
   76MOL   H48938139   7.732   6.304   3.874  1.3941  0.3391 -1.2179
   76MOL   H49038140   0.049   6.406   3.963 -0.6663 -1.5787  2.1728
   76MOL   H49138141   7.674   6.590   3.941  0.3730 -0.9642  0.5597
   76MOL   H49238142   7.559   6.491   3.853 -0.6139  1.1436  0.8443
   76MOL   H49338143   0.045   6.605   3.735  2.0804 -1.3115 -0.4956
   76MOL   H49438144   7.761   6.445   3.681  0.4391  0.6363  0.3157
   76MOL   H49538145   7.707   6.628   3.529  1.4001  0.7055 -0.3342
   76MOL   H49638146   7.561   6.552   3.588 -0.3600  2.2974 -1.6915
   76MOL   H49738147   7.562   6.729   3.763  1.9085 -1.3319  0.7013
   76MOL   H49838148   7.709   6.798   3.687 -1.0751  1.4434 -1.3114
   76MOL   H49938149   7.580   6.856   3.482 -0.9388 -0.0070 -0.4662
   76MOL   H50038150   7.432   6.789   3.560 -0.1270 -0.3351 -0.8168
   76MOL   H50138151   7.511   6.937   3.620 -0.8326 -1.3359  2.2401
   76MOL   H50238152   7.678   6.168   4.058 -1.1455  0.4727 -1.9897
   77MOL     C138153   3.717   4.471   3.280 -0.0026  0.0565  0.0882
   77MOL     C238154   3.680   4.515   3.423  0.9573  0.6390 -0.2283
   77MOL     O338155   3.574   4.605   3.417  0.4590  0.2704 -0.2767
   77MOL     C438156   3.447   4.552   3.434 -0.0001 -0.1786  0.2655
   77MOL     C538157   3.355   4.675   3.438 -1.1016  0.2609 -0.4471
   77MOL     C638158   3.207   4.654   3.481  0.3013 -0.4908 -0.1490
   77MOL     C738159   3.132   4.789   3.462  0.4430 -0.3672  0.6207
   77MOL     C838160   2.978   4.782   3.502  0.4429 -0.4291  0.1190
   77MOL     C938161   2.876   4.767   3.383 -0.1436 -0.5012 -0.2797
   77MOL    H1038162   3.631   4.435   3.222 -0.3747  0.8156  0.1568
   77MOL    H1138163   3.760   4.555   3.225 -0.9574  0.7135  0.3178
   77MOL    H1238164   3.648   4.426   3.477  0.7410  0.7904 -0.1075
   77MOL    H1338165   3.439   4.499   3.529 -0.2923  0.3233  0.5229
   77MOL    H1438166   3.424   4.478   3.357 -0.0094  0.4601 -0.3481
   77MOL    H1538167   3.353   4.730   3.344 -4.7153  0.6832 -0.2071
   77MOL    H1638168   3.401   4.747   3.506  2.0326 -1.7600 -0.3409
   77MOL    H1738169   3.156   4.574   3.428  1.5562  0.1174 -2.3623
   77MOL    H1838170   3.198   4.621   3.584 -2.0236  0.6958  0.0406
   77MOL    H1938171   3.180   4.862   3.527  0.8201 -0.5545  0.5493
   77MOL    H2038172   3.146   4.828   3.361  0.6280  1.8953  1.5016
   77MOL    H2138173   2.960   4.873   3.558 -0.0967  0.3719 -1.3172
   77MOL    H2238174   2.959   4.698   3.569 -0.1194 -0.7561 -0.4375
   77MOL    H2338175   2.774   4.766   3.421 -0.8843 -0.3380 -2.2129
   77MOL    H2438176   2.874   4.849   3.311 -0.7720  0.4311  0.7786
   77MOL    H2538177   2.913   4.678   3.332  0.7967 -1.8302  2.6095
   77MOL    H2638178   3.793   4.394   3.273  1.3837  1.2205  2.0473
   77MOL    C2738179   3.799   4.585   3.494 -0.2874  1.3559  0.6872
   77MOL    C2838180   3.872   4.490   3.596 -0.0338  0.4678  0.2469
   77MOL    O2938181   3.960   4.409   3.506 -0.2421  0.4689 -0.5174
   77MOL    C3038182   4.017   4.286   3.554  0.4675 -0.6387 -0.7405
   77MOL    C3138183   3.937   4.158   3.521 -0.1425  0.3780  0.0812
   77MOL    C3238184   3.799   4.150   3.580  0.1232  0.0966 -0.0407
   77MOL    C3338185   3.722   4.022   3.553 -0.1887  1.0307  0.2156
   77MOL    C3438186   3.801   3.887   3.548 -0.0394  0.2830  0.6824
   77MOL    C3538187   3.715   3.763   3.526 -0.4172  0.5703 -0.1129
   77MOL    H3638188   3.856   4.639   3.419 -1.1080  1.0168 -0.1883
   77MOL    H3738189   3.753   4.663   3.555 -0.9548  1.2946  0.2686
   77MOL    H3838190   3.799   4.434   3.656 -0.3104  1.3624  0.7449
   77MOL    H3938191   4.035   4.281   3.661 -1.0397 -2.6924 -0.5546
   77MOL    H4038192   4.118   4.290   3.512  0.6326 -2.1030 -0.5106
   77MOL    H4138193   3.989   4.073   3.564 -0.7146  0.0537  0.1334
   77MOL    H4238194   3.935   4.143   3.413  1.0329 -0.1150  0.1132
   77MOL    H4338195   3.803   4.171   3.687  1.0872  2.8689 -0.5776
   77MOL    H4438196   3.739   4.235   3.546 -0.3955 -0.3381 -0.2221
   77MOL    H4538197   3.633   4.015   3.616 -1.9208 -2.6975 -2.4162
   77MOL    H4638198   3.681   4.034   3.452  0.3181  1.1363  0.0234
   77MOL    H4738199   3.872   3.888   3.466 -1.8669 -2.0814 -0.9960
   77MOL    H4838200   3.848   3.874   3.646 -0.3147 -1.2341  0.6312
   77MOL    H4938201   3.670   3.761   3.427  0.0885 -0.7465 -0.3279
   77MOL    H5038202   3.774   3.673   3.542  0.8629  1.4444  0.2396
   77MOL    H5138203   3.630   3.760   3.593 -1.1161 -1.7253 -1.0652
   77MOL    C5238204   3.969   4.568   3.680 -0.3166 -0.3365 -0.2676
   77MOL    C5338205   3.896   4.659   3.783 -1.0155  0.3051  0.0991
   77MOL    O5438206   3.773   4.606   3.829 -0.2824 -0.3189  0.2555
   77MOL    C5538207   3.685   4.713   3.866  0.5633  0.3373 -0.5001
   77MOL    C5638208   3.564   4.629   3.922 -0.2894  0.2320  0.2559
   77MOL    C5738209   3.505   4.538   3.819  0.2170  0.1100 -0.1408
   77MOL    C5838210   3.401   4.439   3.868  0.7243 -0.1460 -0.7222
   77MOL    C5938211   3.374   4.315   3.783  0.7173 -0.0828 -1.2087
   77MOL    C6038212   3.469   4.200   3.804  0.6317  0.0589 -0.1339
   77MOL    H6138213   4.034   4.633   3.622 -0.8684  1.0996  0.6773
   77MOL    H6238214   4.028   4.498   3.740  2.6209  1.9254 -0.4024
   77MOL    H6338215   3.879   4.755   3.733 -3.1159 -0.4759 -0.7539
   77MOL    H6438216   3.646   4.776   3.786 -0.9461  0.7174  0.5208
   77MOL    H6538217   3.732   4.776   3.941 -2.0874 -0.3181  1.8080
   77MOL    H6638218   3.479   4.691   3.951 -1.0512 -0.7129  0.0415
   77MOL    H6738219   3.608   4.578   4.008  0.3341  1.7203  0.8478
   77MOL    H6838220   3.469   4.598   3.735  2.3317  0.0270 -1.1298
   77MOL    H6938221   3.593   4.483   3.788  2.0029  3.3714 -1.0951
   77MOL    H7038222   3.447   4.402   3.960 -0.8004  0.2384  0.2049
   77MOL    H7138223   3.309   4.484   3.904  1.8065  1.5060  0.0917
   77MOL    H7238224   3.273   4.285   3.813  0.6142  0.5755 -0.8752
   77MOL    H7338225   3.359   4.343   3.679 -1.0035  1.2203 -0.6506
   77MOL    H7438226   3.565   4.216   3.755  0.0297 -0.4227 -1.4878
   77MOL    H7538227   3.494   4.182   3.909  2.6578  1.3542 -0.3639
   77MOL    H7638228   3.438   4.110   3.751  1.5516  0.1649 -0.8643
   77MOL    C7738229   3.997   4.683   3.901  0.1275 -0.1802  0.0197
   77MOL    C7838230   4.128   4.760   3.870 -0.4708 -0.4499 -0.3466
   77MOL    O7938231   4.199   4.773   3.988  0.0409  0.8975 -0.4012
   77MOL    C8038232   4.284   4.660   4.020  0.2982  0.1501  0.5760
   77MOL    C8138233   4.326   4.680   4.167 -0.4164  0.4305  0.1010
   77MOL    C8238234   4.428   4.799   4.183 -0.6293  0.9543 -0.0412
   77MOL    C8338235   4.486   4.804   4.325 -0.1487  0.0062  0.0217
   77MOL    C8438236   4.585   4.918   4.350 -0.9561 -0.2645 -0.0301
   77MOL    C8538237   4.628   4.939   4.496 -0.8303 -0.6000  0.3822
   77MOL    H8638238   4.021   4.594   3.958  1.0524  1.8196  2.8570
   77MOL    H8738239   3.945   4.738   3.979  1.3659  0.3850  0.4739
   77MOL    H8838240   4.189   4.700   3.803  0.0110 -0.1693 -0.1607
   77MOL    H8938241   4.363   4.665   3.945 -0.0484  0.3373  0.2221
   77MOL    H9038242   4.232   4.565   4.015  1.3462 -0.3401 -1.7776
   77MOL    H9138243   4.366   4.587   4.207 -0.5086  0.4396  0.2153
   77MOL    H9238244   4.238   4.704   4.227 -0.2177 -1.5182  1.2110
   77MOL    H9338245   4.500   4.790   4.101 -1.3279  0.0399 -0.5625
   77MOL    H9438246   4.375   4.893   4.167 -2.2415  0.1150  0.2254
   77MOL    H9538247   4.401   4.812   4.393 -1.1760  1.7111 -1.4223
   77MOL    H9638248   4.536   4.710   4.350 -1.0699  0.1608  2.6175
   77MOL    H9738249   4.665   4.909   4.277 -0.8017  0.5448  0.0302
   77MOL    H9838250   4.539   5.014   4.325 -0.7645 -0.7696 -2.4010
   77MOL    H9938251   4.551   4.988   4.554 -0.2579 -0.0990  0.7215
   77MOL   H10038252   4.655   4.841   4.536  1.8558 -0.6007 -1.2913
   77MOL   H10138253   4.706   5.015   4.496  0.4281 -1.8672  1.3864
   77MOL   C10238254   4.109   4.909   3.823  0.5732  0.2107 -0.2179
   77MOL   C10338255   4.248   4.975   3.789  0.4493 -0.1379  1.0189
   77MOL   O10438256   4.237   5.067   3.679 -0.4235  0.4600 -0.2716
   77MOL   C10538257   4.230   5.016   3.552 -0.0794  0.1071  0.2131
   77MOL   C10638258   4.145   5.107   3.460  0.3830  0.6608 -0.3915
   77MOL   C10738259   3.992   5.115   3.499  0.6502  0.7737  0.3644
   77MOL   C10838260   3.913   4.988   3.466 -0.3252 -0.5446 -0.0512
   77MOL   C10938261   3.768   5.011   3.506 -0.1071  0.1402 -0.6378
   77MOL   C11038262   3.743   5.044   3.651  0.2388 -0.5194  0.0428
   77MOL   H11138263   4.039   4.917   3.739 -0.8843 -0.3941  0.9179
   77MOL   H11238264   4.058   4.965   3.901 -0.6301  1.3413 -1.7720
   77MOL   H11338265   4.323   4.900   3.762 -0.9922 -0.4867 -2.2760
   77MOL   H11438266   4.188   4.916   3.562  0.0397  0.2952  2.9970
   77MOL   H11538267   4.329   4.992   3.516  0.5248  0.2754  1.7382
   77MOL   H11638268   4.151   5.071   3.358 -1.2113  0.8712 -0.5756
   77MOL   H11738269   4.192   5.205   3.460  0.9331  0.3983 -0.4870
   77MOL   H11838270   3.993   5.133   3.607  0.9168  0.6166  0.3875
   77MOL   H11938271   3.943   5.207   3.467 -0.2061  0.4695  0.7649
   77MOL   H12038272   3.919   4.970   3.359  0.0574 -1.9863  0.2093
   77MOL   H12138273   3.960   4.902   3.514  0.5600 -0.6082 -1.0144
   77MOL   H12238274   3.731   5.091   3.442  1.8198  1.2627 -0.4034
   77MOL   H12338275   3.708   4.924   3.480  0.5673 -0.3306 -0.6512
   77MOL   H12438276   3.788   4.971   3.719 -0.3414  2.1252  3.4193
   77MOL   H12538277   3.784   5.141   3.679  2.1355 -1.8567  2.0695
   77MOL   H12638278   3.636   5.048   3.670 -0.1883  0.5566 -2.4631
   77MOL   C12738279   4.294   5.073   3.901  0.0079  0.6194 -0.5201
   77MOL   C12838280   4.441   5.119   3.901  0.2846  0.5576 -0.2620
   77MOL   O12938281   4.515   4.998   3.922  0.6998  0.4116 -0.2377
   77MOL   C13038282   4.617   4.975   3.822  0.7372 -0.4264  0.3869
   77MOL   C13138283   4.663   4.833   3.839 -0.2637  0.4719 -0.3595
   77MOL   C13238284   4.754   4.782   3.726 -0.0671  0.1205 -0.2775
   77MOL   C13338285   4.767   4.625   3.734 -0.2923  0.6816 -0.1039
   77MOL   C13438286   4.826   4.555   3.608 -0.7322 -0.2130  0.5304
   77MOL   C13538287   4.823   4.404   3.619 -0.0520 -0.2564  0.6688
   77MOL   H13638288   4.226   5.158   3.910 -0.5251  0.2934 -1.4742
   77MOL   H13738289   4.281   5.030   4.001  0.0484 -0.0895 -0.8183
   77MOL   H13838290   4.454   5.163   3.803  0.3455  1.9260  0.3467
   77MOL   H13938291   4.693   5.053   3.818 -1.2945  1.4909 -2.3225
   77MOL   H14038292   4.572   4.981   3.723 -2.6115  0.0983  1.8597
   77MOL   H14138293   4.580   4.763   3.850  0.9479 -1.0435 -0.7153
   77MOL   H14238294   4.718   4.820   3.932 -0.1510  2.2016 -0.1811
   77MOL   H14338295   4.710   4.813   3.631 -0.5641  2.2992  0.6323
   77MOL   H14438296   4.853   4.828   3.731  1.2089 -2.6326  1.6704
   77MOL   H14538297   4.829   4.600   3.821 -0.6413  1.3351  0.3361
   77MOL   H14638298   4.670   4.577   3.731  0.5113 -0.9279 -1.3848
   77MOL   H14738299   4.776   4.596   3.520  1.1119 -0.7664 -0.7866
   77MOL   H14838300   4.924   4.594   3.580 -0.8600  0.6995  1.3135
   77MOL   H14938301   4.849   4.363   3.521  1.2345  2.2045 -0.0562
   77MOL   H15038302   4.890   4.361   3.693  1.6974  0.6822 -0.3290
   77MOL   H15138303   4.727   4.361   3.648  0.0096  0.9895  2.7883
   77MOL   C15238304   4.459   5.219   4.019 -0.0352 -0.8278 -0.0531
   77MOL   C15338305   4.572   5.323   4.003  0.4156  0.2669 -0.3455
   77MOL   O15438306   4.695   5.258   3.977 -0.2269 -0.2674  0.0258
   77MOL   C15538307   4.755   5.225   4.098 -0.5699 -0.1647 -0.5836
   77MOL   C15638308   4.837   5.097   4.062 -0.2203 -0.2526 -0.0757
   77MOL   C15738309   4.950   5.051   4.162  0.2008  0.2920 -0.3955
   77MOL   C15838310   5.029   4.930   4.110  0.6615 -0.0144 -0.4533
   77MOL   C15938311   5.139   4.964   4.008  0.8362 -0.0617  0.2719
   77MOL   C16038312   5.233   4.847   3.988 -0.2556 -0.1946  0.0842
   77MOL   H16138313   4.370   5.275   4.047  0.4498 -1.4048  2.7257
   77MOL   H16238314   4.479   5.169   4.113  0.3723 -0.0236  0.2962
   77MOL   H16338315   4.570   5.373   4.100  1.8334 -0.9688  0.3298
   77MOL   H16438316   4.687   5.199   4.178  0.4646 -0.0303  0.3607
   77MOL   H16538317   4.819   5.307   4.132 -2.7222  0.8801  1.0179
   77MOL   H16638318   4.893   5.120   3.971 -2.3966  1.7423 -0.9707
   77MOL   H16738319   4.763   5.020   4.041 -3.1549  1.8519  2.1186
   77MOL   H16838320   5.017   5.131   4.191 -1.6720  1.2828  1.3401
   77MOL   H16938321   4.901   5.018   4.254 -0.5600  1.7252 -0.2762
   77MOL   H17038322   5.073   4.896   4.204 -1.4446 -0.0245  0.5609
   77MOL   H17138323   4.957   4.854   4.080  1.9235 -1.0488 -0.9201
   77MOL   H17238324   5.089   5.002   3.919 -1.7459 -3.3503  0.2285
   77MOL   H17338325   5.203   5.039   4.055  0.9865 -1.2365  2.0168
   77MOL   H17438326   5.182   4.766   3.936 -2.1230 -1.2329  3.3839
   77MOL   H17538327   5.323   4.868   3.931 -0.6417  0.8773 -0.1273
   77MOL   H17638328   5.262   4.814   4.088  1.0960  1.6585  0.3141
   77MOL   C17738329   4.538   5.418   3.887 -0.1555  0.4812  0.5145
   77MOL   C17838330   4.420   5.520   3.900 -0.4457  0.5839 -0.7008
   77MOL   O17938331   4.460   5.625   3.986  0.2607  0.2729 -0.0545
   77MOL   C18038332   4.370   5.630   4.089 -0.1984 -0.5836 -0.6528
   77MOL   C18138333   4.419   5.729   4.198  0.0242 -0.8978  0.4981
   77MOL   C18238334   4.399   5.878   4.167 -0.1215  0.2008 -0.1125
   77MOL   C18338335   4.471   5.989   4.254 -0.2793  0.3752  0.1298
   77MOL   C18438336   4.625   5.991   4.230 -0.2449  0.4942  1.2334
   77MOL   C18538337   4.709   6.089   4.307 -0.0319  0.3870  0.1654
   77MOL   H18638338   4.628   5.477   3.871  0.9375 -1.0632  0.8247
   77MOL   H18738339   4.536   5.359   3.795  0.6379  2.6708 -0.9434
   77MOL   H18838340   4.333   5.462   3.932  0.0134  0.7976  0.9845
   77MOL   H18938341   4.350   5.536   4.140 -2.5052 -0.6989 -1.7044
   77MOL   H19038342   4.272   5.664   4.055  0.1486  1.4997  0.3777
   77MOL   H19138343   4.524   5.704   4.210  0.8372  1.7808 -0.6412
   77MOL   H19238344   4.380   5.710   4.298 -0.2181 -0.9901  0.3865
   77MOL   H19338345   4.413   5.906   4.063  0.0586 -2.0049 -0.7122
   77MOL   H19438346   4.293   5.899   4.177 -0.2744 -0.0313 -1.2462
   77MOL   H19538347   4.423   6.086   4.247 -0.3795  0.4216  1.3574
   77MOL   H19638348   4.464   5.972   4.361 -0.2751  1.2545  0.2691
   77MOL   H19738349   4.665   5.890   4.243  1.4799  1.2639  2.1256
   77MOL   H19838350   4.657   6.009   4.127  0.7920  0.9580  1.6209
   77MOL   H19938351   4.815   6.064   4.305 -0.3803 -1.1104 -0.4712
   77MOL   H20038352   4.697   6.187   4.261  0.9959 -0.6121 -2.3081
   77MOL   H20138353   4.687   6.091   4.414 -0.2841  1.0422  0.1025
   77MOL   C20238354   4.399   5.590   3.762  0.6473  0.8619  0.4052
   77MOL   C20338355   4.342   5.504   3.641  0.0320 -0.4464  0.2395
   77MOL   O20438356   4.414   5.557   3.534 -0.3953 -0.9766 -0.0131
   77MOL   C20538357   4.522   5.475   3.482  1.0895  0.0363 -0.4494
   77MOL   C20638358   4.465   5.351   3.413 -0.7064  0.1211 -0.1444
   77MOL   C20738359   4.588   5.274   3.363 -0.1646 -0.3456  0.3308
   77MOL   C20838360   4.567   5.123   3.323  0.7212 -0.0144 -0.2669
   77MOL   C20938361   4.470   5.099   3.203  0.1613  0.8396 -0.3060
   77MOL   C21038362   4.452   4.948   3.175 -0.4379  0.0876  0.0713
   77MOL   H21138363   4.342   5.683   3.766 -0.3092  0.4548 -2.9502
   77MOL   H21238364   4.500   5.627   3.744  0.4927  0.0032 -2.3285
   77MOL   H21338365   4.365   5.398   3.652 -0.3055 -0.4878  0.5911
   77MOL   H21438366   4.580   5.449   3.571  2.6620  0.2234 -1.3842
   77MOL   H21538367   4.589   5.534   3.418 -0.1662  0.8089 -1.0690
   77MOL   H21638368   4.394   5.376   3.333  0.8638  1.6954 -1.0878
   77MOL   H21738369   4.413   5.283   3.480 -1.4549 -0.7583 -1.5846
   77MOL   H21838370   4.622   5.317   3.269 -2.3580 -1.4552 -1.0047
   77MOL   H21938371   4.667   5.274   3.438 -0.9666  0.5867  1.1765
   77MOL   H22038372   4.662   5.078   3.294  0.0790 -0.6488 -1.4437
   77MOL   H22138373   4.535   5.069   3.412  0.0496 -0.1978 -0.6183
   77MOL   H22238374   4.368   5.128   3.228  0.0447  0.2224 -0.0516
   77MOL   H22338375   4.494   5.162   3.117 -0.0509 -0.0139 -0.9955
   77MOL   H22438376   4.370   4.923   3.107  0.2308 -0.7932 -0.4160
   77MOL   H22538377   4.547   4.912   3.137  0.0017  0.8573  0.4295
   77MOL   H22638378   4.441   4.886   3.265  1.9306  1.1889  1.1646
   77MOL   C22738379   4.189   5.536   3.609  0.5321  0.2468  0.5755
   77MOL   C22838380   4.099   5.549   3.736  0.5578  0.5503 -0.1858
   77MOL   O22938381   3.984   5.624   3.705 -0.0569 -0.7863  0.0911
   77MOL   C23038382   4.014   5.759   3.717 -0.0563  0.3652 -0.2977
   77MOL   C23138383   3.891   5.836   3.672  0.3872  0.3169  0.2980
   77MOL   C23238384   3.763   5.799   3.750 -0.7396 -0.0759  0.6206
   77MOL   C23338385   3.644   5.884   3.705  0.3473 -1.3111 -0.3380
   77MOL   C23438386   3.656   6.036   3.742 -0.0233 -0.0917 -0.0696
   77MOL   C23538387   3.663   6.059   3.897  0.4229  0.2561  0.0955
   77MOL   H23638388   4.176   5.628   3.552 -2.8641 -0.2686  0.3929
   77MOL   H23738389   4.129   5.463   3.555 -0.5752  0.6021  1.3053
   77MOL   H23838390   4.149   5.583   3.827  1.6148 -0.0636 -0.5242
   77MOL   H23938391   4.094   5.787   3.648  0.1947 -0.1756 -0.2243
   77MOL   H24038392   4.044   5.799   3.814 -1.0032  2.2971 -0.7676
   77MOL   H24138393   3.875   5.812   3.567 -1.7247 -2.8537  1.2710
   77MOL   H24238394   3.925   5.939   3.679  0.3502  0.2435  1.9513
   77MOL   H24338395   3.739   5.698   3.718  0.9314 -0.6660  1.2003
   77MOL   H24438396   3.787   5.801   3.856 -1.4100  0.5412  0.7662
   77MOL   H24538397   3.625   5.862   3.600 -1.4318  2.6103 -0.9504
   77MOL   H24638398   3.555   5.843   3.753  0.1537  0.7074  1.0794
   77MOL   H24738399   3.739   6.069   3.678 -2.0205  0.5760 -2.3772
   77MOL   H24838400   3.567   6.090   3.710  0.6509  1.3909  0.4768
   77MOL   H24938401   3.766   6.043   3.926  0.5683  2.6130  0.9808
   77MOL   H25038402   3.625   6.161   3.910 -0.4760 -0.0528 -0.0442
   77MOL   H25138403   3.608   5.999   3.969 -0.5158  0.6541 -0.2811
   77MOL   C25238404   4.051   5.409   3.771  0.3970  0.6378 -0.2343
   77MOL   C25338405   3.970   5.402   3.900 -0.2520 -0.3233 -0.6810
   77MOL   O25438406   4.057   5.452   4.002 -0.3471  1.0266 -0.2580
   77MOL   C25538407   3.995   5.520   4.119 -0.6903  0.5606  0.4593
   77MOL   C25638408   3.974   5.671   4.095  0.5053 -0.6528 -0.3474
   77MOL   C25738409   3.904   5.741   4.212  0.2913  0.1487  0.6124
   77MOL   C25838410   3.893   5.894   4.199 -0.0605  0.4477 -0.0433
   77MOL   C25938411   3.801   5.956   4.304 -0.9311 -0.0743 -0.8361
   77MOL   C26038412   3.772   6.103   4.294  0.1790 -0.3139  0.5079
   77MOL   H26138413   3.982   5.376   3.694  0.3810 -0.3158  0.1893
   77MOL   H26238414   4.131   5.336   3.765 -0.1002  0.0921 -0.2234
   77MOL   H26338415   3.880   5.463   3.900 -1.5502 -1.9726  3.9252
   77MOL   H26438416   4.072   5.519   4.197 -0.0117 -0.9523 -0.2151
   77MOL   H26538417   3.904   5.470   4.151 -0.5892 -0.7434 -1.2456
   77MOL   H26638418   3.917   5.686   4.004  1.5670 -1.7263 -1.2153
   77MOL   H26738419   4.075   5.712   4.083  0.6627 -0.3056  1.8681
   77MOL   H26838420   3.807   5.697   4.233 -0.9817  1.8366 -1.6350
   77MOL   H26938421   3.962   5.728   4.304 -2.7905 -1.0225  2.4787
   77MOL   H27038422   3.995   5.931   4.207  0.1513 -0.6874  3.6325
   77MOL   H27138423   3.865   5.918   4.097 -2.1852  0.4963  0.5207
   77MOL   H27238424   3.708   5.900   4.297 -0.5630 -0.6368 -1.2560
   77MOL   H27338425   3.834   5.932   4.406  1.7871 -2.8613 -2.3060
   77MOL   H27438426   3.704   6.120   4.377  0.4307  0.3424  0.5812
   77MOL   H27538427   3.860   6.166   4.308 -0.0306  0.0500  0.1977
   77MOL   H27638428   3.724   6.126   4.199  1.9620  0.6512 -0.1835
   77MOL   C27738429   3.912   5.263   3.925  0.1959  0.3197 -0.6948
   77MOL   C27838430   3.775   5.246   4.006  0.2411  0.5120 -0.0505
   77MOL   O27938431   3.677   5.291   3.909 -0.0141  0.1271 -0.1289
   77MOL   C28038432   3.562   5.350   3.964 -0.0835 -0.6425  0.4714
   77MOL   C28138433   3.591   5.497   4.001 -0.0434 -0.8245 -0.0243
   77MOL   C28238434   3.468   5.556   4.066 -0.3889 -0.2514 -0.6590
   77MOL   C28338435   3.473   5.703   4.100  0.5954  0.6383  0.4198
   77MOL   C28438436   3.335   5.778   4.108 -0.4635  0.0528  0.5411
   77MOL   C28538437   3.343   5.928   4.122  0.3641  0.0850  0.3457
   77MOL   H28638438   3.898   5.225   3.824  2.1177  0.8505 -1.1994
   77MOL   H28738439   3.990   5.196   3.961 -0.0981 -0.1556 -0.9403
   77MOL   H28838440   3.775   5.310   4.094 -0.0022 -0.2196  0.4878
   77MOL   H28938441   3.524   5.311   4.058  2.6729  0.6772  2.1857
   77MOL   H29038442   3.482   5.345   3.890  0.8060 -1.1559 -0.4742
   77MOL   H29138443   3.615   5.551   3.910 -4.5824 -2.4077 -2.3254
   77MOL   H29238444   3.674   5.511   4.071  1.6910 -3.0326 -1.5514
   77MOL   H29338445   3.376   5.541   4.010  0.9852 -0.0206 -3.0288
   77MOL   H29438446   3.454   5.505   4.161 -0.7510  0.6251 -0.2343
   77MOL   H29538447   3.527   5.723   4.192 -0.7264 -3.2132  2.1117
   77MOL   H29638448   3.526   5.746   4.015 -0.9248 -1.5709 -1.7235
   77MOL   H29738449   3.269   5.756   4.023  0.6418 -0.5419 -0.1714
   77MOL   H29838450   3.287   5.736   4.197  1.5125 -1.5242  0.8895
   77MOL   H29938451   3.334   5.978   4.025 -1.1057  0.1622  0.5099
   77MOL   H30038452   3.245   5.954   4.161 -0.4825 -0.3314 -1.4323
   77MOL   H30138453   3.421   5.968   4.186  0.4748  0.2222  0.1273
   77MOL   C30238454   3.750   5.097   4.044 -0.4204 -0.2617  0.9515
   77MOL   C30338455   3.828   5.048   4.178 -0.1376 -0.4975 -0.1560
   77MOL   O30438456   3.969   5.030   4.135 -0.1500 -0.3772 -0.6983
   77MOL   C30538457   4.069   5.042   4.240 -0.1170 -0.0077 -0.0301
   77MOL   C30638458   4.109   5.191   4.249  0.3840  0.0952  0.4271
   77MOL   C30738459   4.239   5.209   4.330  1.0342  0.3871  0.2239
   77MOL   C30838460   4.223   5.173   4.477  0.4639 -0.4414  0.1500
   77MOL   C30938461   4.164   5.281   4.568  1.0061 -0.2283  0.0765
   77MOL   C31038462   4.186   5.243   4.713 -0.1205 -0.0743  0.0701
   77MOL   H31138463   3.643   5.087   4.061 -0.6207 -0.1946 -0.2360
   77MOL   H31238464   3.767   5.024   3.964  2.4396 -0.1694  1.3943
   77MOL   H31338465   3.826   5.137   4.241 -0.3682 -0.8366  0.3198
   77MOL   H31438466   4.155   4.986   4.205  0.6497  1.5755 -0.7366
   77MOL   H31538467   4.046   4.996   4.336  2.1914 -1.3802 -0.1135
   77MOL   H31638468   4.030   5.248   4.298  0.1524  0.3738 -0.2667
   77MOL   H31738469   4.121   5.231   4.149  0.0176 -0.8657 -0.0107
   77MOL   H31838470   4.324   5.149   4.298 -1.2756 -2.2872 -1.1018
   77MOL   H31938471   4.279   5.309   4.314  0.8322 -0.1827 -4.3821
   77MOL   H32038472   4.179   5.074   4.492  0.2600 -0.3686  0.0236
   77MOL   H32138473   4.323   5.168   4.521 -0.1160  0.4372  1.5629
   77MOL   H32238474   4.220   5.373   4.549 -1.4035  1.2852 -0.0316
   77MOL   H32338475   4.056   5.286   4.555  0.8657 -0.0791  1.2513
   77MOL   H32438476   4.146   5.320   4.780 -3.0235 -0.8779 -0.6737
   77MOL   H32538477   4.139   5.148   4.739  2.1321 -0.9017  1.1988
   77MOL   H32638478   4.290   5.236   4.743 -0.0223 -0.8191 -0.4367
   77MOL   C32738479   3.771   4.917   4.243 -0.4987 -0.9133 -0.4412
   77MOL   C32838480   3.621   4.913   4.297 -0.0758  0.1207 -0.2674
   77MOL   O32938481   3.588   4.777   4.333  0.5750 -0.5029 -0.0048
   77MOL   C33038482   3.455   4.727   4.302  0.4351  0.1071 -0.6972
   77MOL   C33138483   3.433   4.573   4.317  0.4303 -0.0345  0.1292
   77MOL   C33238484   3.287   4.538   4.280  0.3471 -0.3529 -0.8286
   77MOL   C33338485   3.259   4.387   4.281  0.8380 -0.6899  0.0710
   77MOL   C33438486   3.115   4.355   4.248 -0.2352 -0.3703  0.4299
   77MOL   C33538487   3.025   4.389   4.363 -0.1627  0.2691 -0.6935
   77MOL   H33638488   3.837   4.889   4.326 -1.2150  1.8583  1.1437
   77MOL   H33738489   3.788   4.837   4.171  1.1897 -0.8719 -0.1147
   77MOL   H33838490   3.563   4.950   4.212  0.6694  0.9685 -0.4230
   77MOL   H33938491   3.419   4.761   4.205 -0.6877  2.0700  0.3636
   77MOL   H34038492   3.395   4.771   4.382 -0.5960 -0.3468 -1.2073
   77MOL   H34138493   3.454   4.551   4.422 -2.5980  0.8839  0.9955
   77MOL   H34238494   3.505   4.535   4.245  0.0270  1.6731 -1.2029
   77MOL   H34338495   3.226   4.577   4.361  2.1578 -0.6923  0.7355
   77MOL   H34438496   3.253   4.578   4.184 -0.4673 -0.9700 -0.8018
   77MOL   H34538497   3.323   4.342   4.205  0.3366 -1.1089 -0.1047
   77MOL   H34638498   3.280   4.340   4.377 -0.3290  0.5574  0.9431
   77MOL   H34738499   3.084   4.411   4.159  0.5014 -0.8721 -0.1410
   77MOL   H34838500   3.098   4.250   4.225  0.8034 -0.4467  0.0097
   77MOL   H34938501   2.952   4.309   4.376  1.7126 -1.4823 -0.8317
   77MOL   H35038502   3.076   4.379   4.459  1.3150  0.3932 -1.4526
   77MOL   H35138503   2.969   4.483   4.357  1.3321  1.4278  2.4090
   77MOL   C35238504   3.612   5.009   4.418 -0.1746  0.0960  0.3109
   77MOL   C35338505   3.474   5.060   4.458 -0.2076  0.2809  0.7830
   77MOL   O35438506   3.422   5.153   4.368  0.5580 -0.0375 -0.1510
   77MOL   C35538507   3.277   5.155   4.366  0.1781  0.3790  0.3450
   77MOL   C35638508   3.243   5.237   4.243 -0.5709  0.4193  0.3681
   77MOL   C35738509   3.105   5.306   4.244 -0.0667  0.3020  0.3660
   77MOL   C35838510   3.070   5.352   4.104 -0.2390  0.3444 -0.2319
   77MOL   C35938511   2.957   5.456   4.103  0.0131  0.2118  0.0993
   77MOL   C36038512   2.908   5.481   3.961 -0.6258 -0.6231  0.2646
   77MOL   H36138513   3.679   4.975   4.497  1.9257 -0.0336 -1.4684
   77MOL   H36238514   3.659   5.100   4.382  0.0815  0.5544  1.7869
   77MOL   H36338515   3.415   4.970   4.476  0.8909 -0.3029  1.5457
   77MOL   H36438516   3.241   5.212   4.452  1.2253  2.1098 -0.3182
   77MOL   H36538517   3.229   5.058   4.375 -0.2215  0.6408  1.1322
   77MOL   H36638518   3.258   5.173   4.156  0.0897  1.6116 -0.4043
   77MOL   H36738519   3.324   5.310   4.236  0.3213 -0.5304  0.5640
   77MOL   H36838520   3.026   5.246   4.290 -0.3768  0.7864  0.4728
   77MOL   H36938521   3.106   5.395   4.308  0.7185  0.8108 -0.3390
   77MOL   H37038522   3.162   5.399   4.070 -0.6489  0.2324 -1.4957
   77MOL   H37138523   3.050   5.267   4.039 -0.4976  0.0411  0.2418
   77MOL   H37238524   2.878   5.417   4.167 -0.9676  2.2632  0.1794
   77MOL   H37338525   2.984   5.553   4.145  0.6381 -0.2262  0.7371
   77MOL   H37438526   2.990   5.536   3.914 -0.0733 -0.4919  1.3612
   77MOL   H37538527   2.893   5.399   3.891 -0.4874 -0.7867  0.4269
   77MOL   H37638528   2.821   5.546   3.963  0.0304  0.3155 -0.5599
   77MOL   C37738529   3.482   5.127   4.599  0.5349  0.1168  0.5683
   77MOL   C37838530   3.484   5.034   4.720 -0.1485  0.5618 -0.1352
   77MOL   O37938531   3.356   4.973   4.736 -0.1624 -0.0108  0.0867
   77MOL   C38038532   3.361   4.834   4.743  0.0166 -0.1489 -0.5526
   77MOL   C38138533   3.222   4.791   4.727 -0.0478 -0.2069 -0.0867
   77MOL   C38238534   3.182   4.789   4.576 -0.0976 -0.3290  0.4786
   77MOL   C38338535   3.035   4.774   4.538  0.0732  0.3218  0.3920
   77MOL   C38438536   2.956   4.901   4.558  0.5228 -0.1613  0.8197
   77MOL   C38538537   2.805   4.882   4.532  0.2728 -0.2689  0.5395
   77MOL   H38638538   3.573   5.186   4.605  0.1648  0.7914 -0.4370
   77MOL   H38738539   3.398   5.196   4.611 -1.7670 -2.2792 -1.1519
   77MOL   H38838540   3.557   4.958   4.693  0.2179  0.7816  0.2221
   77MOL   H38938541   3.402   4.807   4.840 -1.3254  2.1679  0.7189
   77MOL   H39038542   3.419   4.789   4.662  0.6824 -1.5139  0.6565
   77MOL   H39138543   3.145   4.851   4.776 -3.5414 -3.8355 -0.8340
   77MOL   H39238544   3.205   4.690   4.763 -0.4420  0.0683  0.5131
   77MOL   H39338545   3.212   4.885   4.534  0.1084 -0.3931  0.4789
   77MOL   H39438546   3.248   4.714   4.534  1.3475 -0.8750  3.5411
   77MOL   H39538547   3.026   4.731   4.438  0.9040  2.4128 -0.6074
   77MOL   H39638548   2.991   4.697   4.601 -0.1931 -0.7212 -1.0325
   77MOL   H39738549   2.962   4.932   4.663 -0.5530 -1.6222  1.3378
   77MOL   H39838550   3.005   4.982   4.505 -0.0331  0.2859  0.9818
   77MOL   H39938551   2.753   4.977   4.526  0.4511 -0.1069  1.5216
   77MOL   H40038552   2.796   4.838   4.433  0.0427 -1.8791  1.2585
   77MOL   H40138553   2.749   4.827   4.608  1.2056  1.5596  2.6095
   77MOL   C40238554   3.529   5.096   4.857  0.1337  0.0306  0.5585
   77MOL   C40338555   3.675   5.131   4.865  0.0625  0.3939  0.0530
   77MOL   O40438556   3.754   5.010   4.869  0.0011  0.3191 -0.0635
   77MOL   C40538557   3.872   5.014   4.785 -0.1398  0.1956 -0.1966
   77MOL   C40638558   3.937   4.871   4.770  0.3183 -0.1557 -0.4224
   77MOL   C40738559   4.080   4.862   4.713 -0.0742 -0.3062  0.2673
   77MOL   C40838560   4.114   4.724   4.664 -0.0587  0.4610 -0.0163
   77MOL   C40938561   4.229   4.720   4.558 -0.1610 -0.5150  0.1381
   77MOL   C41038562   4.258   4.574   4.517  0.0741  0.3309 -0.8438
   77MOL   H41138563   3.507   5.025   4.937  0.1894 -1.2571 -0.5556
   77MOL   H41238564   3.465   5.183   4.870  0.1192  0.0119  0.6156
   77MOL   H41338565   3.698   5.200   4.784  1.4244  0.2086  0.2589
   77MOL   H41438566   3.947   5.089   4.808 -2.0906  2.8757 -2.2642
   77MOL   H41538567   3.840   5.043   4.685  3.0442 -0.4558 -1.4758
   77MOL   H41638568   3.879   4.802   4.708  1.3211 -0.9624 -0.4738
   77MOL   H41738569   3.933   4.817   4.865  0.1932 -0.6504 -0.7068
   77MOL   H41838570   4.069   4.935   4.633 -2.0081 -2.3722 -1.4165
   77MOL   H41938571   4.158   4.896   4.781  0.8372  2.6994 -2.1429
   77MOL   H42038572   4.165   4.677   4.748 -2.7214 -0.0402  1.3761
   77MOL   H42138573   4.021   4.673   4.637  0.0339  0.0975  0.3433
   77MOL   H42238574   4.196   4.776   4.471 -2.1033 -3.9633 -1.4687
   77MOL   H42338575   4.320   4.766   4.595 -0.3770 -1.7541  2.3154
   77MOL   H42438576   4.340   4.569   4.445 -0.1453  0.1862 -1.0903
   77MOL   H42538577   4.286   4.508   4.600  0.3069  0.4272 -0.8457
   77MOL   H42638578   4.167   4.531   4.474  0.2394 -0.4575 -0.4168
   77MOL   C42738579   3.710   5.201   4.998  0.2847 -0.4567  0.0079
   77MOL   C42838580   3.686   5.352   5.009  0.0437 -0.8943  0.6738
   77MOL   O42938581   3.548   5.370   4.995  0.3049 -0.2164  0.6338
   77MOL   C43038582   3.488   5.431   4.878 -0.2889 -0.2677 -0.4550
   77MOL   C43138583   3.336   5.442   4.892  0.3121 -0.6303 -0.3483
   77MOL   C43238584   3.280   5.501   5.023  0.4896 -0.0852  0.0896
   77MOL   C43338585   3.127   5.510   5.017 -0.0768  0.1862 -0.3586
   77MOL   C43438586   3.074   5.553   5.155  0.0630 -0.1232 -0.9394
   77MOL   C43538587   3.126   5.465   5.272  0.3217  0.5995 -0.2668
   77MOL   H43638588   3.649   5.144   5.068  1.7233 -1.5598  0.3828
   77MOL   H43738589   3.816   5.189   5.018  0.3971 -0.0619 -0.3240
   77MOL   H43838590   3.734   5.392   4.919  1.3647 -0.1404  1.7071
   77MOL   H43938591   3.519   5.377   4.789 -0.5146  0.0480 -0.7272
   77MOL   H44038592   3.528   5.533   4.879 -0.1978 -0.2579  3.1069
   77MOL   H44138593   3.301   5.339   4.892 -2.1683  0.1929 -1.2196
   77MOL   H44238594   3.295   5.487   4.802  0.6034 -0.8570 -0.5961
   77MOL   H44338595   3.322   5.440   5.103 -1.8149 -0.5959  0.9492
   77MOL   H44438596   3.324   5.600   5.039 -3.3751  1.7388 -0.0627
   77MOL   H44538597   3.091   5.575   4.938  1.1820 -1.2196 -2.1230
   77MOL   H44638598   3.086   5.409   5.007 -1.1621  0.8791 -3.6515
   77MOL   H44738599   3.104   5.654   5.183 -1.6225 -0.6530  3.1287
   77MOL   H44838600   2.966   5.541   5.160 -0.1042 -0.0998 -3.7362
   77MOL   H44938601   3.089   5.364   5.253 -0.1681  0.7897 -0.3066
   77MOL   H45038602   3.230   5.482   5.301 -0.1860  0.9976  1.3943
   77MOL   H45138603   3.082   5.499   5.366  0.2967 -2.2753  0.8317
   77MOL   C45238604   3.728   5.407   5.146 -0.2158 -0.7028  0.2647
   77MOL   C45338605   3.868   5.401   5.209 -0.0792  0.0999  0.3664
   77MOL   O45438606   3.891   5.260   5.233 -0.0436  0.1085  0.6697
   77MOL   C45538607   4.033   5.236   5.241  0.2350 -0.3598  0.6974
   77MOL   C45638608   4.069   5.086   5.281 -0.3030 -0.7977 -0.0256
   77MOL   C45738609   3.993   4.978   5.203 -0.1900 -0.0654  0.5147
   77MOL   C45838610   4.011   4.837   5.259  0.0926 -0.0591  0.5295
   77MOL   C45938611   3.951   4.733   5.160  0.6404 -0.7429  0.2840
   77MOL   C46038612   3.999   4.588   5.162  0.2609 -0.1435 -0.1030
   77MOL   H46138613   3.704   5.513   5.138  1.3044 -0.3500  0.2743
   77MOL   H46238614   3.648   5.381   5.215 -0.6116  1.1113  0.5247
   77MOL   H46338615   3.931   5.437   5.128 -1.6922  0.1278 -0.9011
   77MOL   H46438616   4.092   5.295   5.312  0.6426  0.6872 -0.5029
   77MOL   H46538617   4.075   5.255   5.142 -1.2947  1.9444  0.4662
   77MOL   H46638618   4.053   5.068   5.387  1.0027 -0.6042  0.2181
   77MOL   H46738619   4.175   5.072   5.259  0.2412  0.6253  1.6433
   77MOL   H46838620   3.886   4.997   5.198 -0.1280 -0.3068 -2.9785
   77MOL   H46938621   4.031   4.997   5.102 -0.3835 -0.1048  0.4349
   77MOL   H47038622   4.118   4.821   5.277  0.6212  1.3772 -1.1750
   77MOL   H47138623   3.960   4.837   5.355  1.0538  1.1141  1.0421
   77MOL   H47238624   3.844   4.730   5.179  0.4572 -0.1124 -0.6220
   77MOL   H47338625   3.972   4.760   5.056  0.0275  0.3024  0.4259
   77MOL   H47438626   4.103   4.567   5.139  0.7927  1.7052  0.4665
   77MOL   H47538627   3.974   4.561   5.265  1.7420  2.1618  0.9127
   77MOL   H47638628   3.936   4.519   5.107 -0.7341 -0.2886  1.2084
   77MOL   C47738629   3.874   5.467   5.345 -0.1852 -0.3664  0.1820
   77MOL   C47838630   3.960   5.594   5.350  0.3321 -0.8404  0.0186
   77MOL   O47938631   3.954   5.673   5.473  0.4946 -0.2061  0.2862
   77MOL   C48038632   4.056   5.652   5.573 -0.2670  0.3276  0.5775
   77MOL   C48138633   4.062   5.780   5.662 -0.1493 -0.0657 -0.1255
   77MOL   C48238634   4.155   5.773   5.789  0.2485  0.2162 -0.2692
   77MOL   C48338635   4.145   5.889   5.890 -0.4066 -0.7423  0.5789
   77MOL   C48438636   4.011   5.918   5.962  0.3819  0.7878  1.1376
   77MOL   C48538637   4.017   6.046   6.053 -0.0110  0.1039 -0.3169
   77MOL   H48638638   3.771   5.491   5.373 -0.0943  0.4067 -0.1365
   77MOL   H48738639   3.902   5.407   5.432  0.9162 -0.1687 -0.0373
   77MOL   H48838640   4.066   5.574   5.335  1.0333  1.9350  0.9269
   77MOL   H48938641   4.150   5.632   5.522 -0.0537 -1.1234  1.5162
   77MOL   H49038642   4.024   5.570   5.637  0.3074 -0.8237 -0.5803
   77MOL   H49138643   3.961   5.810   5.690  0.6433  1.6904  0.9088
   77MOL   H49238644   4.095   5.861   5.597  1.3995  0.0832  0.8198
   77MOL   H49338645   4.127   5.678   5.835  0.1699  0.2307 -0.2865
   77MOL   H49438646   4.255   5.755   5.749 -0.1240  1.1712 -1.6505
   77MOL   H49538647   4.226   5.889   5.964 -0.3390 -0.2172  0.5035
   77MOL   H49638648   4.174   5.983   5.844  0.2862 -1.0220  0.4292
   77MOL   H49738649   3.938   5.935   5.884 -0.9479  1.3099  2.4583
   77MOL   H49838650   3.972   5.832   6.016 -0.7313 -1.1150 -2.5395
   77MOL   H49938651   3.925   6.067   6.106 -0.2478 -1.0548 -0.2552
   77MOL   H50038652   4.099   6.029   6.123 -0.3499 -0.8871 -0.1518
   77MOL   H50138653   4.047   6.124   5.983  3.6807  1.0236  2.1203
   77MOL   H50238654   3.926   5.651   5.264 -1.5387 -0.9081  0.6960
   78MOL     C138655   0.651   6.472   7.283  0.9908  0.3970  0.0014
   78MOL     C238656   0.601   6.601   7.216  0.1684 -0.5469 -0.6137
   78MOL     O338657   0.711   6.688   7.187  0.2146 -0.7565  0.7775
   78MOL     C438658   0.791   6.660   7.072 -0.1268 -0.3040 -0.2725
   78MOL     C538659   0.926   6.739   7.066 -0.2565  0.4633 -0.1759
   78MOL     C638660   1.020   6.698   7.185 -0.3821 -0.3862 -0.1286
   78MOL     C738661   1.165   6.750   7.178 -0.2716  0.3039  0.1800
   78MOL     C838662   1.243   6.695   7.056 -0.1770 -0.2308  0.6688
   78MOL     C938663   1.360   6.611   7.092 -0.6269  0.2774 -0.9773
   78MOL    H1038664   0.757   6.459   7.260  0.3739 -1.2341 -1.9983
   78MOL    H1138665   0.647   6.484   7.392  3.9025 -0.0789  0.2046
   78MOL    H1238666   0.557   6.570   7.121  0.6902 -0.2294 -0.9615
   78MOL    H1338667   0.738   6.670   6.977  1.2574 -0.4854 -1.0789
   78MOL    H1438668   0.807   6.552   7.071  1.2139 -0.1441  1.0699
   78MOL    H1538669   0.921   6.847   7.076 -0.1180  0.4932 -0.4104
   78MOL    H1638670   0.971   6.726   6.967  1.4364  1.2576  0.4693
   78MOL    H1738671   0.974   6.717   7.282  0.0403 -2.5235  0.5309
   78MOL    H1838672   1.033   6.590   7.197 -3.2844 -0.7647 -0.1789
   78MOL    H1938673   1.164   6.859   7.169  0.7808  0.5189  2.3947
   78MOL    H2038674   1.219   6.731   7.270 -1.2998  0.3575  0.8061
   78MOL    H2138675   1.262   6.778   6.988  0.1902 -0.6094  0.3095
   78MOL    H2238676   1.180   6.633   6.991 -2.5930  3.0952 -0.2946
   78MOL    H2338677   1.405   6.545   7.019  2.6428 -2.1003  2.9291
   78MOL    H2438678   1.446   6.661   7.138 -1.7532 -0.7019  2.3828
   78MOL    H2538679   1.329   6.539   7.168  0.0783  1.4086  0.4168
   78MOL    H2638680   0.600   6.377   7.267  3.6558 -0.8713 -1.2632
   78MOL    C2738681   0.489   6.674   7.295  0.0896  0.0816  0.1385
   78MOL    C2838682   0.409   6.784   7.220 -0.8186 -0.1750 -0.1718
   78MOL    O2938683   0.324   6.701   7.145  0.5868 -0.0192 -0.1218
   78MOL    C3038684   0.312   6.730   7.008  0.4675  0.0942  0.1103
   78MOL    C3138685   0.195   6.652   6.943 -0.1665 -0.0421  0.4610
   78MOL    C3238686   0.158   6.696   6.802 -0.9395 -0.5298  0.1651
   78MOL    C3338687   0.065   6.593   6.736 -0.3578 -0.0524  0.0255
   78MOL    C3438688   0.131   6.461   6.691 -0.3724  0.2105  0.3462
   78MOL    C3538689   0.251   6.485   6.591  0.0568 -0.1186 -0.6030
   78MOL    H3638690   0.421   6.594   7.326  2.1410 -1.3873  1.0246
   78MOL    H3738691   0.515   6.704   7.397 -0.4532 -1.9080  0.8891
   78MOL    H3838692   0.469   6.861   7.171 -1.7632  0.6756 -0.0150
   78MOL    H3938693   0.407   6.722   6.955  0.7546 -0.4501  0.6919
   78MOL    H4038694   0.290   6.836   7.021  1.3143  0.0505  2.0710
   78MOL    H4138695   0.102   6.655   7.001  0.7515  0.1146  1.9566
   78MOL    H4238696   0.217   6.545   6.938  1.2192  0.2492 -0.0313
   78MOL    H4338697   0.116   6.796   6.810  1.0551  0.3648 -0.2072
   78MOL    H4438698   0.247   6.724   6.746  0.6508  1.2860  3.4763
   78MOL    H4538699   7.757   6.571   6.800 -1.8442 -1.6358 -2.4402
   78MOL    H4638700   0.019   6.644   6.651 -2.6131  2.1451  2.4366
   78MOL    H4738701   0.177   6.399   6.768  1.0165  1.3272  0.4285
   78MOL    H4838702   0.048   6.403   6.650 -1.2506  1.1307  0.7954
   78MOL    H4938703   0.342   6.505   6.647 -0.3710  0.1584 -0.0004
   78MOL    H5038704   0.289   6.397   6.539 -0.0912 -0.1721 -0.6209
   78MOL    H5138705   0.227   6.562   6.518  1.4969 -0.1938 -1.1617
   78MOL    C5238706   0.320   6.858   7.317  0.4608 -0.1414 -1.2745
   78MOL    C5338707   0.212   6.953   7.254 -0.2805 -0.0858 -0.1096
   78MOL    O5438708   0.145   6.997   7.371 -0.1125 -0.3816 -0.1278
   78MOL    C5538709   0.012   6.956   7.380 -0.4289 -1.0913  0.1243
   78MOL    C5638710   7.706   7.062   7.452  0.3049 -0.1364 -0.1227
   78MOL    C5738711   7.696   7.194   7.384  0.2921  0.2935  0.0074
   78MOL    C5838712   7.588   7.284   7.449  0.9711 -0.0949 -0.3384
   78MOL    C5938713   7.618   7.433   7.423 -0.0918 -0.3620 -0.1217
   78MOL    C6038714   7.511   7.531   7.467  0.4113  0.1751 -0.0903
   78MOL    H6138715   0.387   6.913   7.383 -3.7375 -1.4740  4.4762
   78MOL    H6238716   0.277   6.790   7.390 -2.4327  0.8730 -1.9523
   78MOL    H6338717   0.146   6.892   7.193  0.8168  0.1883 -1.5994
   78MOL    H6438718   0.008   6.854   7.420 -0.3043 -1.0028  0.3591
   78MOL    H6538719   7.749   6.964   7.279 -0.4605 -2.7055 -0.0098
   78MOL    H6638720   7.753   7.080   7.549  0.6321  2.2919 -0.6936
   78MOL    H6738721   7.606   7.019   7.458 -0.1804  0.6371 -2.2259
   78MOL    H6838722   0.015   7.244   7.386  0.6774 -0.4412 -0.1771
   78MOL    H6938723   7.670   7.173   7.280 -0.6763  0.3334  0.2391
   78MOL    H7038724   7.491   7.261   7.404  0.8189  0.5587 -0.3599
   78MOL    H7138725   7.588   7.276   7.558 -2.5926  0.3448 -0.2361
   78MOL    H7238726   7.716   7.461   7.461 -0.5913  0.6578  0.4359
   78MOL    H7338727   7.642   7.440   7.316 -1.1873  0.9791 -0.2964
   78MOL    H7438728   7.412   7.485   7.463 -0.7802  2.6162  0.0101
   78MOL    H7538729   7.518   7.565   7.570  0.3063 -3.1448  1.0634
   78MOL    H7638730   7.524   7.622   7.407  2.3743 -1.1607 -1.7682
   78MOL    C7738731   0.261   7.075   7.172 -0.1465  0.3360 -0.6045
   78MOL    C7838732   0.147   7.133   7.099  1.1045  0.6642 -0.6370
   78MOL    O7938733   0.074   7.041   7.012  0.4319 -0.0690  0.9352
   78MOL    C8038734   7.714   7.080   7.001  0.0193  0.3894 -0.0397
   78MOL    C8138735   7.640   7.016   6.872 -0.5008 -0.5221 -0.0833
   78MOL    C8238736   7.492   7.054   6.846  0.7674  0.3992  0.3591
   78MOL    C8338737   7.442   6.999   6.713  0.4106  0.4395 -0.1146
   78MOL    C8438738   7.394   6.848   6.735 -0.1821  0.2211 -0.6587
   78MOL    C8538739   7.250   6.823   6.796 -0.0800 -0.6013  0.2882
   78MOL    H8638740   0.331   7.025   7.104 -0.0910  0.4351 -0.6191
   78MOL    H8738741   0.309   7.148   7.237 -0.6279  0.5389 -0.4833
   78MOL    H8838742   0.082   7.175   7.176 -0.6171 -1.6638 -0.7789
   78MOL    H8938743   7.704   7.189   7.005 -2.2717  0.2127 -0.3518
   78MOL    H9038744   7.653   7.053   7.087  0.9032 -1.3422  0.0587
   78MOL    H9138745   7.645   6.907   6.873  0.5041 -0.4783  2.4456
   78MOL    H9238746   7.717   7.037   6.798 -0.5484 -4.4544 -1.3741
   78MOL    H9338747   7.435   7.017   6.931 -0.6532  1.1554 -0.2554
   78MOL    H9438748   7.471   7.161   6.847 -0.7121  0.1416 -1.0934
   78MOL    H9538749   7.357   7.056   6.678  0.0318  0.4700  0.8505
   78MOL    H9638750   7.511   7.011   6.630  0.0290  2.4290 -0.1589
   78MOL    H9738751   7.398   6.802   6.636  0.7201 -1.0948 -0.0314
   78MOL    H9838752   7.476   6.802   6.791  2.4874  4.1002 -1.1324
   78MOL    H9938753   7.177   6.896   6.760  0.1606 -1.2737 -1.6304
   78MOL   H10038754   7.221   6.719   6.784  1.7175 -0.9233 -1.6028
   78MOL   H10138755   7.250   6.839   6.904 -1.5549  0.6664  0.1053
   78MOL   C10238756   0.204   7.249   7.004 -0.7201 -0.3406  0.4221
   78MOL   C10338757   0.272   7.371   7.072  0.4478  0.0621  0.4033
   78MOL   O10438758   0.318   7.469   6.978 -0.0023 -0.2591  0.4439
   78MOL   C10538759   0.419   7.447   6.888  0.1103 -0.0496  0.0994
   78MOL   C10638760   0.477   7.585   6.846  0.3647 -0.1869 -0.0324
   78MOL   C10738761   0.562   7.652   6.952  0.1886 -0.2356  0.7388
   78MOL   C10838762   0.596   0.019   6.918 -0.5118 -0.0578  0.2664
   78MOL   C10938763   0.674   0.088   7.029 -0.1499  0.8173 -1.0482
   78MOL   C11038764   0.715   0.228   6.995 -0.6235  0.4209  0.4910
   78MOL   H11138765   0.289   7.206   6.952 -0.7088 -0.4649  0.5413
   78MOL   H11238766   0.135   7.283   6.927  1.0895 -1.4021 -1.6969
   78MOL   H11338767   0.361   7.345   7.128  0.1630  0.5077  1.0696
   78MOL   H11438768   0.370   7.400   6.802 -0.2792 -2.4363  1.5815
   78MOL   H11538769   0.497   7.392   6.939 -1.3273 -0.0257  2.3944
   78MOL   H11638770   0.403   7.653   6.804  0.7751  1.5425  1.9718
   78MOL   H11738771   0.547   7.562   6.766  3.5204  0.0147  2.5671
   78MOL   H11838772   0.527   7.636   7.054 -1.1880 -2.6911 -0.0801
   78MOL   H11938773   0.660   7.603   6.954 -0.5132 -1.7180  0.0215
   78MOL   H12038774   0.657   0.031   6.828  1.1821  0.7273  1.4938
   78MOL   H12138775   0.503   0.075   6.905  0.7821  1.6458 -2.2089
   78MOL   H12238776   0.623   0.083   7.126  0.2937  1.5065 -0.7787
   78MOL   H12338777   0.762   0.025   7.041 -1.4373 -0.9821 -0.7780
   78MOL   H12438778   0.627   0.287   6.973  0.2993  0.7985 -2.3558
   78MOL   H12538779   0.760   0.264   7.088  0.0029 -2.6509  1.4547
   78MOL   H12638780   0.794   0.226   6.920  1.3322 -0.4183  2.4991
   78MOL   C12738781   0.198   7.458   7.165 -0.5932 -0.4079 -0.6154
   78MOL   C12838782   0.301   7.539   7.252  0.0198 -0.9936  0.0334
   78MOL   O12938783   0.348   7.443   7.350 -0.1851 -0.3587  0.2089
   78MOL   C13038784   0.478   7.459   7.404  0.3275 -0.6582 -0.2819
   78MOL   C13138785   0.527   7.326   7.459  0.0704 -0.5106 -0.3011
   78MOL   C13238786   0.585   7.210   7.365  0.6995 -0.3607  0.3408
   78MOL   C13338787   0.678   7.127   7.450 -0.9950 -0.4999 -0.2287
   78MOL   C13438788   0.728   7.014   7.364 -0.4937 -0.0031 -0.3594
   78MOL   C13538789   0.791   6.896   7.449 -0.3436 -0.2130 -0.4942
   78MOL   H13638790   0.125   7.520   7.113 -0.0045  1.9087  1.2549
   78MOL   H13738791   0.130   7.397   7.225 -1.3919  0.4394 -0.6427
   78MOL   H13838792   0.386   7.570   7.192  0.5509 -3.3794 -0.5177
   78MOL   H13938793   0.463   7.527   7.488 -0.9530  0.4962 -1.4144
   78MOL   H14038794   0.545   7.508   7.334 -0.9600 -1.0020 -1.7823
   78MOL   H14138795   0.443   7.282   7.511 -0.8742  2.7443  1.0272
   78MOL   H14238796   0.591   7.344   7.545 -1.6107 -1.7532  1.2327
   78MOL   H14338797   0.497   7.155   7.331  0.1854  0.2590  0.6448
   78MOL   H14438798   0.636   7.245   7.275 -1.9639 -0.2397 -1.1936
   78MOL   H14538799   0.761   7.185   7.490 -2.2661  2.8528 -2.2221
   78MOL   H14638800   0.634   7.068   7.530 -0.0290 -0.5197  0.2870
   78MOL   H14738801   0.649   6.968   7.305 -3.2053  4.0533 -0.0716
   78MOL   H14838802   0.813   7.049   7.305  1.7588 -2.2933  1.3739
   78MOL   H14938803   0.891   6.924   7.484 -0.3354  1.0371 -1.4947
   78MOL   H15038804   0.729   6.863   7.533  1.3400 -1.5545  0.2578
   78MOL   H15138805   0.806   6.804   7.393  0.0821  0.2357 -1.1177
   78MOL   C15238806   0.235   7.654   7.338  0.0457  0.5821  1.2029
   78MOL   C15338807   0.191   0.004   7.263  0.4619  0.3817  0.4320
   78MOL   O15438808   0.119   0.079   7.363  0.3225 -0.2839  0.0481
   78MOL   C15538809   7.752   0.056   7.374  0.4250 -0.0646 -0.1811
   78MOL   C15638810   7.693   0.193   7.428 -0.3260 -0.6232 -0.0185
   78MOL   C15738811   7.539   0.201   7.430 -0.4462  0.9467 -0.6600
   78MOL   C15838812   7.467   0.143   7.557 -0.1298  0.7684  0.4480
   78MOL   C15938813   7.496   0.209   7.691 -0.5327 -0.2715  0.1456
   78MOL   C16038814   7.435   0.142   0.035  0.1565 -0.3301  0.2731
   78MOL   H16138815   0.148   7.611   7.388 -1.0194  2.7739  1.2922
   78MOL   H16238816   0.304   7.673   7.421  0.7574  0.3516  0.6719
   78MOL   H16338817   0.139   7.758   7.171 -0.1201  0.6963  0.6704
   78MOL   H16438818   7.738   7.760   7.453 -0.2386 -1.0872 -1.2453
   78MOL   H16538819   7.713   0.026   7.277  0.0066 -1.1520  0.3067
   78MOL   H16638820   7.717   0.266   7.351  1.2868 -1.9215 -0.7768
   78MOL   H16738821   7.739   0.237   7.517 -1.9448  0.6848  0.1955
   78MOL   H16838822   7.502   0.303   7.422  1.1687  1.6614  0.7533
   78MOL   H16938823   7.498   0.152   7.341 -1.9984  0.8698  0.0936
   78MOL   H17038824   7.358   0.149   7.556 -0.0540  2.1059  0.0221
   78MOL   H17138825   7.497   0.038   7.553 -1.5826  0.2947  1.5308
   78MOL   H17238826   7.603   0.226   7.707 -1.3027  0.7276  4.8746
   78MOL   H17338827   7.458   0.311   7.695 -0.1595 -0.0075 -2.1563
   78MOL   H17438828   7.328   0.122   0.046  0.1335 -0.1048  0.4674
   78MOL   H17538829   7.482   0.046   0.054 -0.2775 -0.4030  1.0263
   78MOL   H17638830   7.461   0.212   0.114  0.0794 -0.2863  0.2600
   78MOL   C17738831   0.302   0.098   7.214 -0.9267 -0.2568  0.2250
   78MOL   C17838832   0.254   0.221   7.132  0.2097 -0.2533 -0.6970
   78MOL   O17938833   0.371   0.307   7.127  0.0889 -0.6659  0.0159
   78MOL   C18038834   0.377   0.402   7.230  0.1913  0.0933 -0.0767
   78MOL   C18138835   0.495   0.506   7.203 -0.5249  0.0981 -0.6443
   78MOL   C18238836   0.464   0.600   7.091  0.1325 -0.4369  0.2110
   78MOL   C18338837   0.573   0.693   7.043  0.1390  0.1282 -0.5340
   78MOL   C18438838   0.704   0.620   7.012  0.1326 -1.2506  0.0113
   78MOL   C18538839   0.793   0.699   6.921  0.2316  0.4846  0.6297
   78MOL   H18638840   0.351   0.132   7.305  1.1781 -2.0299 -0.2260
   78MOL   H18738841   0.366   0.036   7.151  1.5323  0.9323  1.4846
   78MOL   H18838842   0.175   0.269   7.189  0.5238 -2.0354  1.3279
   78MOL   H18938843   0.392   0.354   7.326  0.8215  1.7578  0.6728
   78MOL   H19038844   0.283   0.457   7.233  0.2247  0.0974  1.0993
   78MOL   H19138845   0.583   0.444   7.190 -1.0619 -0.6716 -0.6660
   78MOL   H19238846   0.523   0.561   7.293 -0.8640 -1.5924  0.5245
   78MOL   H19338847   0.431   0.543   7.004 -2.7341  1.0857  0.2516
   78MOL   H19438848   0.378   0.662   7.117 -2.7518 -2.8699 -3.0102
   78MOL   H19538849   0.529   0.744   6.957 -0.7762 -1.6794 -1.1740
   78MOL   H19638850   0.583   0.771   7.118  2.5646 -1.1302  0.5063
   78MOL   H19738851   0.753   0.590   7.105  0.4772  0.1135  0.2753
   78MOL   H19838852   0.684   0.524   6.964 -2.0063 -1.1593  0.6318
   78MOL   H19938853   0.827   0.789   6.971 -1.1404  1.4523 -0.1304
   78MOL   H20038854   0.880   0.650   6.878 -0.0706  0.1441  0.4014
   78MOL   H20138855   0.743   0.747   6.836 -1.0199  1.1952  1.7444
   78MOL   C20238856   0.221   0.183   6.986 -0.4047  0.2743 -0.0164
   78MOL   C20338857   0.096   0.247   6.926 -0.0601  0.3950 -1.5011
   78MOL   O20438858   0.116   0.386   6.924 -0.2607 -0.0834 -0.1169
   78MOL   C20538859   0.150   0.450   6.799 -0.7325 -0.2204  0.0038
   78MOL   C20638860   0.162   0.604   6.807 -0.0407  0.8054 -0.6654
   78MOL   C20738861   0.026   0.668   6.815  0.5568  0.0802  1.0510
   78MOL   C20838862   0.034   0.824   6.828 -0.2073  0.4565  0.7221
   78MOL   C20938863   7.676   0.894   6.795  0.1925  0.0116 -0.0902
   78MOL   C21038864   7.549   0.857   6.864  0.3940 -0.3490 -0.0008
   78MOL   H21138865   0.310   0.207   6.927  1.4758 -0.6301  2.3833
   78MOL   H21238866   0.228   0.075   6.974 -2.4056  0.0200  0.9454
   78MOL   H21338867   0.077   0.218   6.823 -0.3702  0.0515 -1.3485
   78MOL   H21438868   0.086   0.435   6.712 -2.2771  0.5948  0.9759
   78MOL   H21538869   0.250   0.408   6.787  0.3153  3.1147 -4.0011
   78MOL   H21638870   0.224   0.641   6.725 -0.1185 -0.8642 -1.4980
   78MOL   H21738871   0.207   0.643   6.899  1.3991  0.7048 -1.3092
   78MOL   H21838872   7.746   0.649   6.725  1.5664  1.5748  0.0459
   78MOL   H21938873   7.750   0.623   6.897 -0.0132 -3.3177 -1.0799
   78MOL   H22038874   0.069   0.843   6.930 -0.0527  4.0206  0.0465
   78MOL   H22138875   0.112   0.847   6.756  0.0703  1.2930  1.2826
   78MOL   H22238876   7.690   1.000   6.816  0.9611 -0.3878  1.5070
   78MOL   H22338877   7.661   0.883   6.688 -1.2795  2.3081 -0.1603
   78MOL   H22438878   7.468   0.926   6.841  1.9938  1.2487 -0.9614
   78MOL   H22538879   7.517   0.761   6.823 -1.3776  0.6814 -1.1443
   78MOL   H22638880   7.562   0.850   6.972  3.1834  2.7606 -0.0450
   78MOL   C22738881   7.751   0.210   7.006 -0.3876 -0.0303 -0.0882
   78MOL   C22838882   7.617   0.244   6.936 -0.5626 -0.2877  0.1908
   78MOL   O22938883   7.603   0.148   6.833 -0.2824 -0.2333 -0.2584
   78MOL   C23038884   7.565   0.210   6.708 -0.1090 -0.5955  0.1608
   78MOL   C23138885   7.563   0.107   6.593 -0.5958 -0.6613 -0.1053
   78MOL   C23238886   7.544   0.161   6.452 -0.4702  0.0348  0.5106
   78MOL   C23338887   7.666   0.246   6.403  0.5748  1.0875 -0.3494
   78MOL   C23438888   7.626   0.323   6.270  0.1402 -0.1431 -0.4258
   78MOL   C23538889   7.719   0.442   6.236 -0.2373  0.1608  0.0780
   78MOL   H23638890   7.743   0.107   7.039  0.4278 -0.5848 -1.5698
   78MOL   H23738891   7.769   0.273   7.093 -1.7104 -1.1320  0.9990
   78MOL   H23838892   7.634   0.342   6.892 -4.0318  0.8006  1.1063
   78MOL   H23938893   7.651   0.271   6.681  0.7008 -1.4396  0.8011
   78MOL   H24038894   7.475   0.271   6.707  0.4334  0.2055 -0.2715
   78MOL   H24138895   7.489   0.027   6.605 -1.1767 -0.0648  0.3051
   78MOL   H24238896   7.655   0.048   6.595 -1.0201 -1.4408 -2.0015
   78MOL   H24338897   7.531   0.083   6.377  0.7539  0.6488 -0.3638
   78MOL   H24438898   7.448   0.213   6.444 -0.7482  0.0362  3.3267
   78MOL   H24538899   7.694   0.314   6.483  0.1731 -0.3437  1.0313
   78MOL   H24638900   7.747   0.173   6.394 -1.2676 -1.1949  0.7246
   78MOL   H24738901   7.617   0.246   6.194  1.3353 -1.9354  1.2065
   78MOL   H24838902   7.527   0.368   6.284 -0.5493 -2.1571  1.4884
   78MOL   H24938903   0.043   0.410   6.255  0.0319  0.0797 -1.4426
   78MOL   H25038904   7.709   0.478   6.134  1.0688 -0.7804 -0.3902
   78MOL   H25138905   7.709   0.525   6.307 -0.8296  0.7811 -0.7254
   78MOL   C25238906   7.504   0.250   7.042  0.2820  0.1008  0.5778
   78MOL   C25338907   7.395   0.352   7.016  0.2900  0.2999  0.3265
   78MOL   O25438908   7.344   0.388   7.144  0.1369 -0.2222  0.0332
   78MOL   C25538909   7.393   0.509   7.198  0.3977 -0.1877 -0.7738
   78MOL   C25638910   7.336   0.631   7.134  0.7474 -0.1196  0.3755
   78MOL   C25738911   7.180   0.643   7.165 -0.1135 -0.1607  0.3384
   78MOL   C25838912   7.110   0.739   7.072  0.2750 -0.7335  0.9170
   78MOL   C25938913   6.960   0.759   7.107  0.3205  0.5322  0.3556
   78MOL   C26038914   6.886   0.823   6.992 -0.1000  0.1144 -0.3311
   78MOL   H26138915   7.453   0.154   7.053 -2.8911  1.6313 -0.4337
   78MOL   H26238916   7.541   0.280   7.140 -0.1678  1.1852  0.4179
   78MOL   H26338917   7.434   0.439   6.965 -2.3651  0.4668 -1.5050
   78MOL   H26438918   7.501   0.519   7.195  0.2875  0.7252 -2.4685
   78MOL   H26538919   7.377   0.502   7.306  0.4742 -2.1487 -0.8716
   78MOL   H26638920   7.359   0.635   7.027 -0.5905 -1.9651  0.0011
   78MOL   H26738921   7.394   0.717   7.167 -0.6032  0.0657  2.3045
   78MOL   H26838922   7.149   0.540   7.142  0.3434 -0.0745 -0.7105
   78MOL   H26938923   7.165   0.670   7.269  0.4491  0.1740  0.3335
   78MOL   H27038924   7.152   0.839   7.076 -1.1239 -0.1629  1.8484
   78MOL   H27138925   7.123   0.705   6.970  0.5699  1.2971  0.2593
   78MOL   H27238926   6.917   0.661   7.128  1.1691 -0.1099 -0.8580
   78MOL   H27338927   6.937   0.817   7.196 -1.3804  2.2171 -1.1330
   78MOL   H27438928   6.799   0.880   7.026 -0.1946  0.8989 -1.8614
   78MOL   H27538929   6.941   0.891   6.928 -0.1343  0.1025 -0.3733
   78MOL   H27638930   6.844   0.737   6.941  1.1767 -0.6147 -0.1549
   78MOL   C27738931   7.274   0.288   6.937 -0.6309  0.3729 -0.0719
   78MOL   C27838932   7.181   0.388   6.863 -0.0252  0.1071 -0.0111
   78MOL   O27938933   7.252   0.433   6.749  0.4243  0.3761 -0.2207
   78MOL   C28038934   7.239   0.573   6.719 -0.1535  0.2388  0.0871
   78MOL   C28138935   7.242   0.585   6.571 -0.1628  1.0922 -0.1286
   78MOL   C28238936   7.378   0.610   6.512 -0.1297 -0.2137 -0.1686
   78MOL   C28338937   7.431   0.750   6.515  0.2095  0.0423  0.2376
   78MOL   C28438938   7.342   0.847   6.433 -0.0779 -0.0709  0.6947
   78MOL   C28538939   7.334   0.833   6.280 -0.2938 -0.5817 -1.0550
   78MOL   H28638940   7.309   0.212   6.867  1.7354 -1.6427  3.1477
   78MOL   H28738941   7.210   0.238   7.010  1.0875 -0.6741  0.7596
   78MOL   H28838942   7.157   0.465   6.936  1.4961 -1.6484  2.4076
   78MOL   H28938943   7.323   0.612   6.777  0.0825 -1.1234  0.6671
   78MOL   H29038944   7.146   0.615   6.757  0.4557  0.9697  0.8035
   78MOL   H29138945   7.173   0.666   6.548  0.3177  1.0067 -1.9432
   78MOL   H29238946   7.201   0.499   6.517  0.4032 -0.7244  2.2289
   78MOL   H29338947   7.444   0.543   6.566 -2.0367 -1.4731  0.6146
   78MOL   H29438948   7.386   0.565   6.413 -0.6930 -0.8780  0.0927
   78MOL   H29538949   7.430   0.786   6.618 -1.0686  0.3869  0.1127
   78MOL   H29638950   7.535   0.750   6.480  0.5242  0.1516  1.1631
   78MOL   H29738951   7.242   0.848   6.475  0.2777 -0.8842  1.5663
   78MOL   H29838952   7.379   0.950   6.435 -1.8098  0.5793  0.2458
   78MOL   H29938953   7.281   0.743   6.250 -0.1835 -0.1950 -2.4726
   78MOL   H30038954   7.274   0.914   6.238 -0.2043 -0.3713 -0.7760
   78MOL   H30138955   7.433   0.832   6.235  2.0654 -2.6325  3.8469
   78MOL   C30238956   7.046   0.328   6.817 -0.2268  0.5122  0.0160
   78MOL   C30338957   6.942   0.270   6.921 -0.6286  0.6618  0.8448
   78MOL   O30438958   6.817   0.246   6.858 -0.0558 -0.5789  0.5563
   78MOL   C30538959   6.813   0.117   6.801 -0.2245 -0.4288 -0.0965
   78MOL   C30638960   6.681   0.100   6.731 -0.0780  0.6586  0.4853
   78MOL   C30738961   6.555   0.071   6.814  0.6861 -0.9071 -0.2863
   78MOL   C30838962   6.426   0.134   6.759 -0.4177  0.2734  0.2490
   78MOL   C30938963   6.318   0.124   6.866 -0.1084 -0.3284 -0.5753
   78MOL   C31038964   6.194   0.209   6.824 -0.1978 -0.7956  0.1867
   78MOL   H31138965   6.994   0.415   6.776 -0.3416  0.0926 -0.7150
   78MOL   H31238966   7.080   0.255   6.744  0.1093  0.3196  0.3620
   78MOL   H31338967   6.981   0.176   6.959  1.0769  1.1589  0.3456
   78MOL   H31438968   6.826   0.041   6.879 -0.4446 -0.5972 -0.2252
   78MOL   H31538969   6.888   0.095   6.725 -1.5038 -3.2911 -0.6125
   78MOL   H31638970   6.697   0.012   6.668  0.0502 -1.0180  2.8150
   78MOL   H31738971   6.656   0.189   6.673 -4.5993 -1.2428 -0.7626
   78MOL   H31838972   6.562   7.743   6.838  2.0243 -0.8270 -0.2635
   78MOL   H31938973   6.567   0.113   6.914  0.7804 -0.1971 -0.5904
   78MOL   H32038974   6.449   0.241   6.753 -0.8483  0.3406 -0.2530
   78MOL   H32138975   6.391   0.104   6.660  0.6230 -0.5824  0.1242
   78MOL   H32238976   6.289   0.019   6.871  0.9840 -0.6427 -0.6953
   78MOL   H32338977   6.349   0.151   6.967 -1.4738 -0.8425  0.0037
   78MOL   H32438978   6.150   0.171   6.731  1.2112  1.2102 -1.3371
   78MOL   H32538979   6.110   0.204   6.893 -0.6860  3.5634  0.0366
   78MOL   H32638980   6.222   0.311   6.800 -1.0193 -0.7073 -0.3956
   78MOL   C32738981   6.922   0.368   7.036  0.4092  0.3321  0.7080
   78MOL   C32838982   6.843   0.303   7.160  0.3018 -0.4149  0.5251
   78MOL   O32938983   6.866   0.379   7.271  0.4656 -0.5924 -0.1435
   78MOL   C33038984   6.991   0.373   7.343 -0.6104 -0.2210 -0.0434
   78MOL   C33138985   6.974   0.448   7.469 -0.1387  0.3130 -0.3180
   78MOL   C33238986   6.867   0.392   7.558  0.0812 -0.6442  0.4450
   78MOL   C33338987   6.841   0.475   7.686  0.5963 -0.3708  0.0482
   78MOL   C33438988   6.731   0.408   7.776  0.6333 -0.7910  0.5136
   78MOL   C33538989   6.697   0.481   0.123 -0.0931  0.1217 -0.4014
   78MOL   H33638990   6.869   0.461   7.016 -0.8392 -0.4791  0.1475
   78MOL   H33738991   7.020   0.375   7.084  0.1020 -0.2750  1.4254
   78MOL   H33838992   6.890   0.205   7.174  0.6076 -0.1078  1.7111
   78MOL   H33938993   7.070   0.409   7.277  0.5913 -1.5799  0.6219
   78MOL   H34038994   7.026   0.274   7.373  0.5942  0.2671  0.1767
   78MOL   H34138995   6.939   0.549   7.445  1.7857  0.9365 -0.5659
   78MOL   H34238996   7.067   0.461   7.525  0.5122 -0.5588 -1.1842
   78MOL   H34338997   6.771   0.379   7.508  0.5495 -0.7280 -0.4401
   78MOL   H34438998   6.892   0.292   7.593  0.3342  0.3262  3.1595
   78MOL   H34538999   6.937   0.482   7.738  0.1303 -2.0310  1.1428
   78MOL   H34639000   6.823   0.578   7.656  0.9324 -0.4230 -0.3458
   78MOL   H34739001   6.635   0.401   7.724  1.2100  2.3102 -1.0690
   78MOL   H34839002   6.755   0.303   0.017  0.3993 -0.7469  1.0425
   78MOL   H34939003   6.782   0.524   0.176 -1.1524  0.2086  1.2836
   78MOL   H35039004   6.636   0.571   0.114 -0.9051 -0.2811  0.8450
   78MOL   H35139005   6.642   0.422   0.196 -2.2607 -1.5959 -3.3211
   78MOL   C35239006   6.689   0.286   7.149  0.4253 -0.4714  0.1750
   78MOL   C35339007   6.622   0.188   7.255  0.6162 -0.0399 -0.3004
   78MOL   O35439008   6.630   0.055   7.212  0.0987 -0.0071  0.3287
   78MOL   C35539009   6.651   7.728   7.304  1.4076 -0.5120  0.2394
   78MOL   C35639010   6.801   7.724   7.352 -0.0742  0.1888 -0.6455
   78MOL   C35739011   6.901   7.710   7.240  0.1606  0.0680  0.4373
   78MOL   C35839012   7.043   7.738   7.283 -0.0569  0.5742 -0.0772
   78MOL   C35939013   7.140   7.698   7.170  0.5606  0.2215 -0.0060
   78MOL   C36039014   7.284   7.750   7.189 -0.2171  0.4885 -0.4043
   78MOL   H36139015   6.663   0.392   7.157  1.3992 -0.3874  2.5128
   78MOL   H36239016   6.660   0.251   7.050  2.4576 -1.3992 -0.1135
   78MOL   H36339017   6.682   0.196   7.346  0.3062 -1.3766  0.0364
   78MOL   H36439018   6.633   7.635   7.250 -1.9056  0.1459  0.0907
   78MOL   H36539019   6.580   7.731   7.386  1.8327 -3.1947  0.7491
   78MOL   H36639020   6.814   7.633   7.411 -0.7450  0.0187 -0.7599
   78MOL   H36739021   6.838   0.021   7.422 -1.2709 -1.0960  1.4509
   78MOL   H36839022   6.900   7.606   7.207 -2.8787 -0.0921  0.8902
   78MOL   H36939023   6.868   7.767   7.153 -2.9514 -0.1749  1.3815
   78MOL   H37039024   7.052   0.063   7.318 -0.5980  0.3914  0.6057
   78MOL   H37139025   7.065   7.682   7.374 -0.3755  2.4553  1.2064
   78MOL   H37239026   7.137   7.589   7.165 -0.4556  0.1715  1.3574
   78MOL   H37339027   7.095   7.743   7.082 -0.6083 -0.9912 -0.0426
   78MOL   H37439028   7.287   0.076   7.221  0.9432 -0.2242  1.9021
   78MOL   H37539029   7.331   7.701   7.274 -0.8783  1.4667  0.5317
   78MOL   H37639030   7.351   7.743   7.103 -0.2093  0.4615 -0.3965
   78MOL   C37739031   6.474   0.225   7.298  0.5132  0.6065  0.0335
   78MOL   C37839032   6.446   0.371   7.330  0.2667 -0.8375  0.4779
   78MOL   O37939033   6.356   0.350   7.440  1.0077 -0.5690  0.4081
   78MOL   C38039034   6.410   0.360   7.566  0.3235 -0.2416 -0.0546
   78MOL   C38139035   6.303   0.302   7.666 -0.2789  0.6073  0.8977
   78MOL   C38239036   6.174   0.381   7.665 -0.0870 -0.1978 -0.1335
   78MOL   C38339037   6.084   0.329   7.770 -0.0907 -0.4243  1.3845
   78MOL   C38439038   5.952   0.413   0.000  0.0190  0.4599  0.4926
   78MOL   C38539039   5.853   0.395   7.669  0.3268  0.0616 -0.6282
   78MOL   H38639040   6.402   0.192   7.224 -0.4955 -0.9318  1.6805
   78MOL   H38739041   6.470   0.164   7.388 -0.5878 -0.2999 -0.6255
   78MOL   H38839042   6.543   0.415   7.351 -0.9870  0.8138  3.1162
   78MOL   H38939043   6.432   0.464   7.587 -1.0882 -0.2507  1.5455
   78MOL   H39039044   6.508   0.315   7.581 -0.8331 -2.3640  1.5229
   78MOL   H39139045   6.347   0.313   7.765  1.5288  1.2416  0.0304
   78MOL   H39239046   6.304   0.195   7.646  1.2819  0.8942 -0.5823
   78MOL   H39339047   6.205   0.483   7.688  0.4481 -0.2973 -0.4293
   78MOL   H39439048   6.136   0.378   7.563  2.9576  0.4496 -1.3324
   78MOL   H39539049   6.069   0.224   7.747  0.0434 -0.0320 -0.6123
   78MOL   H39639050   6.131   0.321   0.090 -0.2680  1.5257  1.6496
   78MOL   H39739051   5.901   0.388   0.093  2.0707  0.0299  1.5266
   78MOL   H39839052   5.969   0.520   0.016 -0.9676  0.7570 -0.3944
   78MOL   H39939053   5.885   0.423   7.569  2.6631 -1.0952 -0.2291
   78MOL   H40039054   5.817   0.292   7.676  1.2436 -0.1868  0.5913
   78MOL   H40139055   5.762   0.455   7.672 -0.5131 -1.2552  1.6964
   78MOL   C40239056   6.367   0.434   7.212  0.0926  0.1701 -0.2659
   78MOL   C40339057   6.352   0.582   7.198 -0.5097 -0.0198  0.2495
   78MOL   O40439058   6.311   0.598   7.068 -0.4430 -0.6829 -0.7648
   78MOL   C40539059   6.167   0.598   7.053 -0.2447 -0.0394 -0.5732
   78MOL   C40639060   6.142   0.629   6.900 -0.3741  0.8357 -0.1974
   78MOL   C40739061   6.001   0.600   6.841 -0.2751  0.4654 -0.4846
   78MOL   C40839062   5.891   0.702   6.880 -0.7388  0.0939 -0.3236
   78MOL   C40939063   5.749   0.674   6.826 -0.8055 -0.6438  0.3932
   78MOL   C41039064   5.672   0.584   6.921 -0.2957 -0.6470  0.0254
   78MOL   H41139065   6.265   0.396   7.217  0.9876 -2.3764 -0.2927
   78MOL   H41239066   6.417   0.405   7.120 -0.2860  1.2752 -0.8310
   78MOL   H41339067   6.282   0.628   7.269 -1.4869 -1.6139  0.3367
   78MOL   H41439068   6.123   0.678   7.112  1.7076  2.7338 -2.6890
   78MOL   H41539069   6.124   0.501   7.078  0.4097 -0.1155  0.2788
   78MOL   H41639070   6.212   0.565   6.847 -1.3820  1.4340 -2.2949
   78MOL   H41739071   6.170   0.730   6.871 -1.3860  0.8628 -1.1273
   78MOL   H41839072   6.002   0.589   6.733 -3.4082  0.9247 -0.5824
   78MOL   H41939073   5.971   0.500   6.874 -0.1006  1.0121  1.4140
   78MOL   H42039074   5.881   0.715   6.987 -0.2874 -1.6603 -0.0403
   78MOL   H42139075   5.927   0.792   6.830 -2.1699  0.1385 -1.3066
   78MOL   H42239076   5.685   0.759   6.803 -1.2477 -1.3619 -1.1426
   78MOL   H42339077   5.738   0.637   6.724 -1.7510 -0.7287  0.5233
   78MOL   H42439078   5.719   0.487   6.931 -0.4977 -1.0563 -2.5977
   78MOL   H42539079   5.671   0.632   7.019 -0.0004  0.3607 -0.4509
   78MOL   H42639080   5.571   0.559   6.889 -1.4341  3.3568  0.1996
   78MOL   C42739081   6.483   0.654   7.211 -1.1333  0.8519  0.5542
   78MOL   C42839082   6.472   0.809   7.210 -0.1984  0.5512 -0.9700
   78MOL   O42939083   6.580   0.867   7.284 -0.5911  0.2666 -0.2890
   78MOL   C43039084   6.561   0.882   7.423  0.3503 -0.3614  0.9033
   78MOL   C43139085   6.702   0.906   7.481 -0.1972  0.7546  0.1638
   78MOL   C43239086   6.765   1.042   7.433 -0.0045 -0.3026  0.1385
   78MOL   C43339087   6.901   1.074   7.499  0.0106 -0.3377  0.7338
   78MOL   C43439088   7.023   1.019   7.415 -0.1144  0.2780  0.3646
   78MOL   C43539089   7.053   1.090   7.276 -0.3792  0.2233 -0.1582
   78MOL   H43639090   6.525   0.633   7.309 -0.1272 -1.6841 -0.3495
   78MOL   H43739091   6.556   0.614   7.140 -0.8007  1.5788  0.4835
   78MOL   H43839092   6.381   0.848   7.255  0.4186  2.2613 -1.1660
   78MOL   H43939093   6.509   0.806   7.481 -1.1758  1.3453  1.8184
   78MOL   H44039094   6.510   0.972   7.458  1.4084  0.7819 -0.4491
   78MOL   H44139095   6.769   0.822   7.468 -0.1883  0.3143  2.8013
   78MOL   H44239096   6.691   0.902   7.589 -2.3820 -1.5409 -0.1006
   78MOL   H44339097   6.757   1.052   7.324 -0.6392  2.4025  0.3863
   78MOL   H44439098   6.695   1.121   7.458  0.8544  0.3643  0.4741
   78MOL   H44539099   6.913   1.182   7.511 -1.9512 -0.2057  1.6568
   78MOL   H44639100   6.905   1.028   7.598  1.9962 -2.9411 -0.5125
   78MOL   H44739101   7.114   1.022   7.475  1.6249  2.7735 -2.2587
   78MOL   H44839102   7.012   0.912   7.394  0.2454  0.4018 -0.4633
   78MOL   H44939103   7.142   1.037   7.241 -0.4232 -0.2900  0.5088
   78MOL   H45039104   6.971   1.073   7.206 -1.6289  2.5014  0.7001
   78MOL   H45139105   7.067   1.198   7.277  0.7865  0.0792  0.0688
   78MOL   C45239106   6.467   0.868   7.066 -0.1715 -0.6707 -0.6265
   78MOL   C45339107   6.474   1.021   7.064  0.0090  0.4958  0.2837
   78MOL   O45439108   6.360   1.089   7.113  0.8157  0.5402  0.3840
   78MOL   C45539109   6.385   1.167   7.232  0.3845  0.0552 -0.3620
   78MOL   C45639110   6.282   1.271   7.240 -0.4945  0.0030 -0.2613
   78MOL   C45739111   6.309   1.390   7.144  0.5643 -0.8393  0.1383
   78MOL   C45839112   6.217   1.507   7.164 -0.1494  0.0053 -0.5154
   78MOL   C45939113   6.247   1.621   7.074  0.6965  0.7682 -0.0891
   78MOL   C46039114   6.158   1.740   7.101  0.1251 -0.3075  0.5394
   78MOL   H46139115   6.544   0.825   7.001  1.6490  1.1648  0.2848
   78MOL   H46239116   6.367   0.836   7.035  0.2751 -1.5317 -1.2007
   78MOL   H46339117   6.564   1.049   7.117  0.0897 -0.0472  0.4377
   78MOL   H46439118   6.482   1.217   7.231  0.5936 -0.2936  1.1351
   78MOL   H46539119   6.386   1.100   7.318  1.0591 -0.7163 -0.9559
   78MOL   H46639120   6.277   1.314   7.341 -0.5790 -0.9418  0.1413
   78MOL   H46739121   6.185   1.225   7.221 -1.2237  0.9132  1.1646
   78MOL   H46839122   6.410   1.430   7.148 -0.1179  0.9951 -0.1920
   78MOL   H46939123   6.303   1.358   7.040  1.8577  1.9960 -0.8581
   78MOL   H47039124   6.110   1.486   7.161 -0.2671  0.5571 -0.2191
   78MOL   H47139125   6.225   1.546   7.265  0.0746 -0.3475 -0.3942
   78MOL   H47239126   6.347   1.664   7.083  1.5187 -1.5150  2.1280
   78MOL   H47339127   6.236   1.576   6.975 -1.4957  0.9641  0.0289
   78MOL   H47439128   6.175   1.807   7.017 -1.7082 -1.0048 -0.4292
   78MOL   H47539129   6.051   1.722   7.089  0.4557 -2.2580  0.3067
   78MOL   H47639130   6.179   1.784   7.198  1.4855 -0.5573  0.3772
   78MOL   C47739131   6.498   1.073   6.923  0.3284  0.3533 -0.8245
   78MOL   C47839132   6.637   1.089   6.873 -0.0928 -0.4474  0.7874
   78MOL   O47939133   6.696   1.176   6.960 -0.5027  0.2046 -0.6041
   78MOL   C48039134   6.830   1.213   6.920  0.6156 -0.4554 -0.3236
   78MOL   C48139135   6.881   1.326   7.016  0.2991 -0.5037  0.3381
   78MOL   C48239136   7.029   1.347   7.010 -0.7785  0.2798 -0.2723
   78MOL   C48339137   7.063   1.491   7.060  0.1925  0.4486 -0.1619
   78MOL   C48439138   7.209   1.508   7.078 -0.8785 -0.5620  0.2093
   78MOL   C48539139   7.240   1.649   7.117 -0.4926 -0.1471  0.4051
   78MOL   H48639140   6.453   1.002   6.853 -0.6605 -0.0574  0.2054
   78MOL   H48739141   6.456   1.173   6.917 -1.9627 -0.4263  1.3683
   78MOL   H48839142   6.692   0.995   6.880  0.2344 -0.4448 -1.4981
   78MOL   H48939143   6.836   1.241   6.815  2.9838  2.3829  0.5013
   78MOL   H49039144   6.887   1.122   6.939  0.8380 -0.1637  0.4318
   78MOL   H49139145   6.855   1.298   7.119  0.5050 -1.1711  0.2117
   78MOL   H49239146   6.837   1.424   6.999 -0.2121 -0.9429 -0.9377
   78MOL   H49339147   7.084   1.280   7.076 -0.1168  0.4626 -0.6341
   78MOL   H49439148   7.071   1.335   6.911  0.5300 -0.1861  0.3229
   78MOL   H49539149   7.017   1.554   6.984 -0.6862  0.4673  0.3762
   78MOL   H49639150   7.006   1.510   7.151  0.2214  0.0123 -0.0501
   78MOL   H49739151   7.257   1.448   7.156 -1.7646  1.9520  2.7819
   78MOL   H49839152   7.252   1.475   6.984  1.0654 -1.5085  1.3902
   78MOL   H49939153   7.184   1.688   7.202 -0.2033  2.3290 -0.4822
   78MOL   H50039154   7.348   1.661   7.134 -0.1240  0.6055 -2.2095
   78MOL   H50139155   7.220   1.710   7.029  2.1009 -0.5523 -0.5157
   78MOL   H50239156   6.632   1.134   6.774  1.7482  1.4050  1.4931
   79MOL     C139157   0.314   5.425   6.395  0.5394 -0.3751  0.2531
   79MOL     C239158   0.245   5.529   6.491  0.0062  0.4001  0.6089
   79MOL     O339159   0.112   5.537   6.457  0.2016 -0.2396  0.3395
   79MOL     C439160   0.041   5.416   6.490  0.4188  0.0282  0.1521
   79MOL     C539161   7.665   5.427   6.476  0.0074  0.1370  0.3369
   79MOL     C639162   7.603   5.539   6.567  0.1484 -0.9708 -0.5948
   79MOL     C739163   7.450   5.581   6.540 -0.1466  0.0721  0.5533
   79MOL     C839164   7.396   5.641   6.680  0.3613 -0.9162  0.3209
   79MOL     C939165   7.259   5.712   6.660  0.2002  0.0060 -0.1039
   79MOL    H1039166   0.416   5.454   6.369 -0.4412  1.9125 -1.2282
   79MOL    H1139167   0.327   5.323   6.432  2.1071  1.0533  3.8437
   79MOL    H1239168   0.264   5.496   6.594  2.8701  1.8854  0.6177
   79MOL    H1339169   0.055   5.382   6.593  0.4098  1.0100  0.4851
   79MOL    H1439170   0.071   5.339   6.419  2.3851  1.1429 -0.2596
   79MOL    H1539171   7.627   5.330   6.507  4.7104 -1.8832  0.2433
   79MOL    H1639172   7.636   5.431   6.371  1.0079  0.2399  0.0525
   79MOL    H1739173   7.605   5.489   6.664  0.2066  2.1734  1.1121
   79MOL    H1839174   7.666   5.628   6.575  0.2232 -0.8228 -2.6674
   79MOL    H1939175   7.444   5.656   6.461 -1.7128 -1.7514 -1.0781
   79MOL    H2039176   7.393   5.495   6.506 -1.0639  0.6969  0.5065
   79MOL    H2139177   7.464   5.714   6.722  0.1462 -0.2036 -0.5674
   79MOL    H2239178   7.391   5.570   6.763  1.9662  1.9864  3.0031
   79MOL    H2339179   7.219   5.738   6.758 -0.3150 -2.7132  0.4264
   79MOL    H2439180   7.295   5.794   6.598 -2.8369  0.2645 -1.5776
   79MOL    H2539181   7.187   5.650   6.607  2.4577 -1.4055 -1.5891
   79MOL    H2639182   0.258   5.415   6.301 -0.5657  2.6943  0.5428
   79MOL    C2739183   0.300   5.670   6.467  0.7974 -0.5843  0.3851
   79MOL    C2839184   0.231   5.782   6.547 -0.7098  0.7236  0.0241
   79MOL    O2939185   0.333   5.871   6.580  0.9934 -0.1810  0.9348
   79MOL    C3039186   0.376   5.861   6.719  0.3686  0.0405  0.0021
   79MOL    C3139187   0.496   5.952   6.755 -0.1720  0.0552 -0.0987
   79MOL    C3239188   0.465   6.106   6.748 -0.3204 -0.5794  0.7687
   79MOL    C3339189   0.582   6.191   6.799  0.5528 -0.4809  0.1467
   79MOL    C3439190   0.559   6.333   6.774  0.1738 -0.2204 -0.0222
   79MOL    C3539191   0.673   6.409   6.828 -0.7201  0.3489 -0.3005
   79MOL    H3639192   0.407   5.672   6.491  0.6466  2.0095  0.9285
   79MOL    H3739193   0.300   5.689   6.360  2.0502 -2.3453  0.0441
   79MOL    H3839194   0.174   5.739   6.629 -1.1958 -0.3711 -0.8938
   79MOL    H3939195   0.405   5.760   6.747  1.1621  0.8599  2.2839
   79MOL    H4039196   0.289   5.876   6.784  1.0400  0.8790  0.7323
   79MOL    H4139197   0.584   5.930   6.694  0.7839  0.4183  1.1308
   79MOL    H4239198   0.522   5.926   6.857 -2.3968  1.6537  0.9116
   79MOL    H4339199   0.445   6.126   6.642 -0.4946  1.5362  1.1792
   79MOL    H4439200   0.378   6.127   6.810 -1.0112 -3.1404  0.7421
   79MOL    H4539201   0.603   6.168   6.904 -1.2316  0.2189  0.6678
   79MOL    H4639202   0.672   6.158   6.746  0.6075 -1.4825  0.8504
   79MOL    H4739203   0.540   6.351   6.668 -1.5021 -0.2503  0.2521
   79MOL    H4839204   0.464   6.355   6.824  0.5425  0.1394  0.5340
   79MOL    H4939205   0.770   6.376   6.789 -1.1359  0.8300 -1.7769
   79MOL    H5039206   0.658   6.514   6.804  0.2267  0.6815  0.5060
   79MOL    H5139207   0.677   6.402   6.937  0.8939 -1.0777 -0.4296
   79MOL    C5239208   0.132   5.860   6.459  0.7958  0.3464 -0.1779
   79MOL    C5339209   0.069   5.979   6.523 -0.6399  0.6871  1.1041
   79MOL    O5439210   0.042   6.073   6.418 -0.0361  0.7981  0.1257
   79MOL    C5539211   0.114   6.188   6.430 -0.0648  0.0997  0.1323
   79MOL    C5639212   0.093   6.291   6.319  0.2734 -0.5772 -0.1310
   79MOL    C5739213   7.743   6.378   6.324  0.0706 -0.2442 -0.5537
   79MOL    C5839214   7.724   6.459   6.191 -0.3462 -0.2615  0.2223
   79MOL    C5939215   7.672   6.379   6.077  0.8869 -0.7003 -0.4743
   79MOL    C6039216   7.657   6.459   5.947  0.7424 -0.0813 -0.1655
   79MOL    H6139217   0.062   5.783   6.427 -0.1090  0.4173  1.5826
   79MOL    H6239218   0.199   5.890   6.378  1.8904  0.6900  0.8333
   79MOL    H6339219   0.129   6.022   6.604  0.0322  0.1125  0.9225
   79MOL    H6439220   0.218   6.156   6.424 -0.6136 -1.2799 -2.7690
   79MOL    H6539221   0.107   6.237   6.527 -0.2240 -0.0685  0.2061
   79MOL    H6639222   0.118   6.234   6.229  2.6412 -0.7771  0.6047
   79MOL    H6739223   0.175   6.362   6.330  0.1833 -0.4296 -0.4070
   79MOL    H6839224   7.657   6.315   6.347  0.9131 -0.4421  2.1581
   79MOL    H6939225   7.758   6.443   6.410  1.5016 -0.4892 -0.6077
   79MOL    H7039226   7.659   6.543   6.217 -1.4580 -1.3761  1.1155
   79MOL    H7139227   0.036   6.511   6.159 -0.2822 -0.4157  0.1511
   79MOL    H7239228   7.749   6.305   6.059  1.9971  0.3482 -0.0515
   79MOL    H7339229   7.575   6.329   6.088  0.4007  0.1209 -1.0048
   79MOL    H7439230   7.698   6.559   5.963  0.6115 -0.0833  0.1993
   79MOL    H7539231   7.714   6.426   5.861  0.9664  0.8675 -0.3810
   79MOL    H7639232   7.554   6.478   5.914  1.2868  1.8156 -0.8646
   79MOL    C7739233   7.708   5.955   6.576 -0.4672  0.6388  1.2064
   79MOL    C7839234   7.668   6.070   6.671 -1.0191 -0.2727  0.2011
   79MOL    O7939235   7.723   6.056   6.804  0.8460  0.2615 -0.5419
   79MOL    C8039236   0.004   6.174   6.843 -0.1949 -0.0816 -0.0257
   79MOL    C8139237   0.044   6.148   6.987 -0.4050  0.0473 -0.0468
   79MOL    C8239238   0.100   6.278   7.053 -0.0136  0.1429 -0.0066
   79MOL    C8339239   0.158   6.252   7.197 -0.6062 -0.1440  0.2089
   79MOL    C8439240   0.209   6.376   7.272  0.2676  0.0049  0.4541
   79MOL    C8539241   0.111   6.448   7.355  0.2519 -0.4001 -0.1257
   79MOL    H8639242   7.700   5.866   6.639 -0.8574  0.5238  0.9951
   79MOL    H8739243   7.641   5.942   6.491  1.0044 -0.0753  0.1378
   79MOL    H8839244   7.682   6.168   6.624 -0.0250 -0.3025  0.4397
   79MOL    H8939245   7.713   6.258   6.848  0.9079  0.9546 -1.4180
   79MOL    H9039246   0.077   6.195   6.764  0.7090  0.0529  0.8360
   79MOL    H9139247   0.114   6.064   6.988 -1.8694 -1.1836  0.2460
   79MOL    H9239248   7.735   6.114   7.042  0.0984  3.5085  3.0829
   79MOL    H9339249   0.174   6.320   6.984  1.0421 -1.6752 -0.0204
   79MOL    H9439250   0.015   6.346   7.062  0.8614  1.3876 -0.8702
   79MOL    H9539251   0.073   6.212   7.253 -2.7544  0.5734 -2.4166
   79MOL    H9639252   0.238   6.178   7.197 -1.3145 -0.9983  3.1227
   79MOL    H9739253   0.286   6.344   7.342  2.0748 -0.5033 -1.7349
   79MOL    H9839254   0.264   6.436   7.200  1.9844 -0.0632  1.6614
   79MOL    H9939255   0.085   6.409   7.453  1.0520  0.4380  0.4263
   79MOL   H10039256   0.139   6.553   7.370  1.2255 -0.5410 -0.8897
   79MOL   H10139257   0.018   6.447   7.299  0.7451 -0.8759 -0.9466
   79MOL   C10239258   7.515   6.055   6.682 -0.8321  0.0175 -0.1868
   79MOL   C10339259   7.438   6.169   6.757  0.3872  0.0186 -0.3934
   79MOL   O10439260   7.442   6.277   6.669 -0.3266  0.2165  0.3530
   79MOL   C10539261   7.471   6.408   6.724 -0.0795 -0.8017 -0.4543
   79MOL   C10639262   7.478   6.504   6.613 -0.4151 -0.0492 -0.4639
   79MOL   C10739263   7.340   6.530   6.547  0.1331 -0.0352 -0.0049
   79MOL   C10839264   7.346   6.579   6.401  0.3291 -0.3661 -0.0756
   79MOL   C10939265   7.208   6.581   6.338  0.6827  0.1552 -0.5856
   79MOL   C11039266   7.206   6.663   6.210  0.0614  0.5516 -0.6058
   79MOL   H11139267   7.461   6.042   6.588 -1.0011 -0.7654  0.0091
   79MOL   H11239268   7.494   5.955   6.721 -1.7209  0.2212 -0.1302
   79MOL   H11339269   7.477   6.195   6.856  0.2029 -2.4625  0.3710
   79MOL   H11439270   7.568   6.418   6.772 -0.8554 -1.7071  1.3964
   79MOL   H11539271   7.391   6.434   6.794 -1.4188 -1.7966 -1.5804
   79MOL   H11639272   7.543   6.469   6.533 -1.0572 -1.6408 -0.2906
   79MOL   H11739273   7.534   6.593   6.645  1.0125 -0.8216 -0.8007
   79MOL   H11839274   7.292   6.433   6.547  0.4158 -0.1813 -1.7127
   79MOL   H11939275   7.282   6.591   6.617  1.1972  0.6350  0.3077
   79MOL   H12039276   7.377   6.683   6.409 -0.6576  0.0971 -1.8786
   79MOL   H12139277   7.418   6.518   6.346  1.2582  0.6188  0.0465
   79MOL   H12239278   7.186   6.475   6.327  2.9131 -0.4822  0.6379
   79MOL   H12339279   7.137   6.629   6.406 -1.7086  2.3842 -4.4832
   79MOL   H12439280   7.277   6.618   6.140 -0.2506  0.6840 -1.0105
   79MOL   H12539281   7.111   6.669   6.157 -0.5727  0.1839  0.4932
   79MOL   H12639282   7.243   6.765   6.223 -0.4173  0.6856 -0.3067
   79MOL   C12739283   7.286   6.133   6.777 -0.0998  0.2944  0.3604
   79MOL   C12839284   7.253   6.087   6.919 -0.2094  0.2405 -0.0174
   79MOL   O12939285   7.318   5.961   6.927 -0.6309  0.4954  0.3516
   79MOL   C13039286   7.366   5.928   7.057  0.3245 -0.2557 -0.4266
   79MOL   C13139287   7.440   5.789   7.052 -0.0978 -0.1556  0.4796
   79MOL   C13239288   7.584   5.800   6.992 -0.6087  0.3533 -0.3060
   79MOL   C13339289   7.645   5.667   6.974  0.1527  0.3305 -0.1719
   79MOL   C13439290   0.013   5.671   6.923  0.0479  0.8113  0.2196
   79MOL   C13539291   0.067   5.538   6.873 -0.0352 -0.3761 -0.6429
   79MOL   H13639292   7.217   6.209   6.741 -0.4002 -0.5379 -0.8924
   79MOL   H13739293   7.257   6.053   6.708 -1.1983  0.9343  0.0707
   79MOL   H13839294   7.283   6.155   7.000 -0.3731  0.0590  0.1956
   79MOL   H13939295   7.282   5.920   7.126  1.8021  1.5488  1.6765
   79MOL   H14039296   7.440   6.001   7.089  0.4542 -0.5736  0.0173
   79MOL   H14139297   7.374   5.717   7.003 -1.7058 -1.1476  3.9223
   79MOL   H14239298   7.443   5.747   7.153  1.5168 -1.0989  0.0419
   79MOL   H14339299   7.574   5.837   6.890 -0.8471 -0.6958 -0.6727
   79MOL   H14439300   7.653   5.866   7.045 -1.1374 -0.3275  1.2520
   79MOL   H14539301   7.643   5.604   7.063  1.4880 -0.7004 -0.8521
   79MOL   H14639302   7.588   5.624   6.892 -2.7890  1.4525  1.2286
   79MOL   H14739303   0.022   5.741   6.840  0.7133  1.3405  0.7345
   79MOL   H14839304   0.074   5.722   6.997 -1.7803  2.2481  0.7959
   79MOL   H14939305   0.018   5.519   6.778  0.6338 -1.5184 -0.7735
   79MOL   H15039306   0.174   5.537   6.853 -0.1008 -0.5674 -0.9858
   79MOL   H15139307   0.049   5.458   6.945 -1.3185  0.2212 -0.2907
   79MOL   C15239308   7.104   6.068   6.946  0.1928 -0.0796  1.2013
   79MOL   C15339309   7.036   6.197   6.992  0.3536 -0.0138 -0.2631
   79MOL   O15439310   6.899   6.180   6.941 -0.3175  0.2628  0.5054
   79MOL   C15539311   6.880   6.233   6.811  0.1887 -0.1371  0.5548
   79MOL   C15639312   6.727   6.230   6.784  0.3242 -0.2334 -0.4065
   79MOL   C15739313   6.688   6.262   6.638 -0.0054  0.2117  0.8889
   79MOL   C15839314   6.699   6.412   6.607  0.2508  0.2849 -0.0516
   79MOL   C15939315   6.595   6.467   6.503 -0.1523 -0.0750  0.3903
   79MOL   C16039316   6.617   6.618   6.492 -0.1927 -0.1783  0.5583
   79MOL   H16139317   7.055   6.028   6.858  2.0586 -0.5828  0.3536
   79MOL   H16239318   7.089   5.995   7.026 -0.7668 -1.1126  0.0982
   79MOL   H16339319   7.078   6.286   6.945 -0.1710  0.0788 -0.5601
   79MOL   H16439320   6.935   6.176   6.736 -3.7723 -2.4772 -0.6843
   79MOL   H16539321   6.911   6.337   6.820 -2.3273  0.6577  0.3089
   79MOL   H16639322   6.669   6.284   6.859  1.0611  1.5313 -1.0861
   79MOL   H16739323   6.688   6.129   6.798 -0.5196  0.0606 -0.5769
   79MOL   H16839324   6.742   6.193   6.574  1.2355  1.0449  1.0356
   79MOL   H16939325   6.584   6.227   6.637  0.0882 -0.0350 -0.0065
   79MOL   H17039326   6.692   6.467   6.701 -1.5229  2.6791 -1.5265
   79MOL   H17139327   6.795   6.439   6.563 -0.7028 -0.0158 -2.3975
   79MOL   H17239328   6.613   6.421   6.406 -2.3009  1.2566 -0.6866
   79MOL   H17339329   6.489   6.460   6.529 -0.9952  1.0992 -2.5258
   79MOL   H17439330   6.721   6.625   6.460 -0.5986  4.8851 -0.0457
   79MOL   H17539331   6.560   6.669   6.415 -0.0895  0.7675  1.0989
   79MOL   H17639332   6.623   6.662   6.592 -1.0910 -0.6037  0.8007
   79MOL   C17739333   7.050   6.220   7.152 -0.2659  0.2832  0.2474
   79MOL   C17839334   6.978   6.337   7.211 -0.1428  0.1887  0.7706
   79MOL   O17939335   7.020   6.330   7.348  0.5940 -0.0134 -0.1134
   79MOL   C18039336   6.914   6.312   7.443  1.0069 -0.1168 -0.2378
   79MOL   C18139337   6.975   6.315   7.582  0.1568  0.1483 -0.4017
   79MOL   C18239338   7.018   6.457   7.620 -0.3598 -0.0276 -0.5514
   79MOL   C18339339   6.913   6.564   7.653  0.5965 -0.0940  0.4062
   79MOL   C18439340   6.865   6.550   0.021 -0.1139 -0.1276 -0.4190
   79MOL   C18539341   6.712   6.589   0.031 -1.1296 -0.5193 -0.3737
   79MOL   H18639342   6.994   6.131   7.184 -0.8923  0.3872 -0.5360
   79MOL   H18739343   7.156   6.216   7.173 -0.1491  1.2783 -0.1463
   79MOL   H18839344   6.873   6.312   7.197  0.4108 -0.6139 -2.3780
   79MOL   H18939345   6.878   6.213   7.414  0.6229  0.5704 -2.1729
   79MOL   H19039346   6.841   6.392   7.432 -0.2313 -0.8725  2.2703
   79MOL   H19139347   7.066   6.255   7.594  1.3878  2.0316 -0.0828
   79MOL   H19239348   6.909   6.271   7.657  2.0019 -0.9621  0.6165
   79MOL   H19339349   7.078   6.441   7.710  0.8024 -1.4146 -1.5710
   79MOL   H19439350   7.088   6.497   7.548 -0.6009  1.0766 -0.1891
   79MOL   H19539351   6.951   6.663   7.630  1.6019 -0.3741  0.8241
   79MOL   H19639352   6.823   6.551   7.593 -1.1263  0.5066  2.7639
   79MOL   H19739353   6.872   6.449   0.061  0.2739  0.4088  0.8668
   79MOL   H19839354   6.924   6.612   0.088 -1.8063  3.3346 -2.0143
   79MOL   H19939355   6.641   6.524   7.759 -0.8757 -0.5887 -0.6424
   79MOL   H20039356   6.670   6.568   0.130  0.5068 -1.5477  0.1398
   79MOL   H20139357   6.698   6.690   7.773 -1.8715 -1.0412 -1.5485
   79MOL   C20239358   7.013   6.474   7.148  0.5076  0.3855  0.2714
   79MOL   C20339359   6.946   6.617   7.179 -0.3727  0.1318  0.1911
   79MOL   O20439360   6.939   6.699   7.063 -0.8350  0.3679  0.5335
   79MOL   C20539361   6.826   6.680   6.983  0.8917 -0.2370  0.1978
   79MOL   C20639362   6.818   6.784   6.878 -0.1513 -0.1312  0.3345
   79MOL   C20739363   6.905   6.757   6.761 -0.1509 -0.2496  0.3787
   79MOL   C20839364   6.927   6.873   6.663  0.6885 -0.0234 -1.1101
   79MOL   C20939365   7.009   6.829   6.540  0.9583 -0.4484  0.9197
   79MOL   C21039366   7.077   6.936   6.459  0.2020 -0.1316 -0.0325
   79MOL   H21139367   7.122   6.472   7.150  0.5837  1.6256 -0.9406
   79MOL   H21239368   6.992   6.445   7.045 -0.1477 -1.6243  0.9511
   79MOL   H21339369   6.855   6.589   7.232  0.4969 -0.0021  1.6304
   79MOL   H21439370   6.742   6.683   7.053  0.1814 -0.0854 -0.6492
   79MOL   H21539371   6.825   6.581   6.937 -0.8255  0.5883 -1.6375
   79MOL   H21639372   6.835   6.884   6.916  1.4843 -0.5671  0.8198
   79MOL   H21739373   6.717   6.763   6.844  0.1423  1.6213 -1.7056
   79MOL   H21839374   6.998   6.734   6.813 -0.3638  1.4888  1.5944
   79MOL   H21939375   6.870   6.668   6.710 -2.3507  0.3788  0.7657
   79MOL   H22039376   6.827   6.907   6.633  1.3208  1.8826 -1.1290
   79MOL   H22139377   6.974   6.954   6.718 -0.5379  0.6553 -1.0286
   79MOL   H22239378   7.076   6.748   6.569 -0.1685 -0.9060  2.2659
   79MOL   H22339379   6.937   6.784   6.472  0.4978  0.5727  0.7192
   79MOL   H22439380   7.158   6.984   6.515  1.0478 -0.7379 -0.7140
   79MOL   H22539381   7.137   6.882   6.385  1.3120  1.9630 -0.7133
   79MOL   H22639382   7.013   7.009   6.409 -0.0282 -0.7077 -0.5908
   79MOL   C22739383   7.030   6.701   7.274  0.1020 -0.1881  0.1262
   79MOL   C22839384   6.957   6.813   7.347  0.2013  0.5303  0.0810
   79MOL   O22939385   6.846   6.753   7.406 -0.0956  0.7068 -0.9621
   79MOL   C23039386   6.724   6.805   7.354  0.2535 -0.0984 -0.4245
   79MOL   C23139387   6.604   6.736   7.406 -0.3194  0.1564 -0.0830
   79MOL   C23239388   6.466   6.771   7.354 -0.3402  0.2999  0.4303
   79MOL   C23339389   6.408   6.910   7.381 -0.6082 -0.4337 -0.3424
   79MOL   C23439390   6.252   6.930   7.373 -0.0766 -0.3759 -0.4629
   79MOL   C23539391   6.200   7.060   7.424 -0.2405  0.3972 -0.4329
   79MOL   H23639392   7.099   6.647   7.339 -0.0457  2.5476  2.6700
   79MOL   H23739393   7.105   6.748   7.211  2.7778 -2.7845  1.2539
   79MOL   H23839394   6.920   6.880   7.269  0.6929 -0.2276 -0.8285
   79MOL   H23939395   6.738   6.791   7.247 -1.2977  1.2551 -0.8186
   79MOL   H24039396   6.710   6.907   7.391  0.1717 -0.2722  0.0176
   79MOL   H24139397   6.606   6.736   7.515  1.6515  2.0650 -0.0926
   79MOL   H24239398   6.623   6.630   7.390 -0.6818 -0.4369  3.1268
   79MOL   H24339399   6.460   6.729   7.253  1.7899  1.8484 -0.3566
   79MOL   H24439400   6.393   6.700   7.394  0.6555 -0.3389  1.1263
   79MOL   H24539401   6.428   6.925   7.487  0.3656  1.0818 -0.7309
   79MOL   H24639402   6.451   6.982   7.312  0.1400 -0.8057 -0.2649
   79MOL   H24739403   6.226   6.931   7.268 -3.1404 -0.4973  0.2537
   79MOL   H24839404   6.203   6.848   7.426  2.7103 -2.0830 -0.4450
   79MOL   H24939405   6.092   7.067   7.409 -0.2514  1.4796  0.1281
   79MOL   H25039406   6.227   7.074   7.528 -0.0218 -1.5590 -0.2123
   79MOL   H25139407   6.244   7.141   7.366 -0.5722  0.2934 -0.8397
   79MOL   C25239408   7.035   6.899   7.448  0.8271  0.0320 -0.8421
   79MOL   C25339409   7.162   6.973   7.389 -0.1251  0.8527  0.1327
   79MOL   O25439410   7.271   6.876   7.359  0.3085 -0.9363 -0.0320
   79MOL   C25539411   7.343   6.895   7.236 -0.5181  0.4868  0.3300
   79MOL   C25639412   7.467   6.799   7.208 -0.7268  0.9928 -0.2821
   79MOL   C25739413   7.421   6.650   7.196  0.3854 -0.3431 -0.4286
   79MOL   C25839414   7.530   6.570   7.136  0.8235 -0.5598  0.0045
   79MOL   C25939415   7.495   6.428   7.102  0.1589 -0.5341  0.1330
   79MOL   C26039416   7.466   6.351   7.230  0.5137  0.2636  0.0367
   79MOL   H26139417   6.954   6.963   7.483 -0.2517 -0.3256 -2.5810
   79MOL   H26239418   7.061   6.834   7.531 -1.0744  0.4696  0.1240
   79MOL   H26339419   7.130   7.017   7.295 -0.9869 -0.4194 -0.1781
   79MOL   H26439420   7.390   6.990   7.258 -0.0621  0.2005  0.6029
   79MOL   H26539421   7.283   6.904   7.146  2.3966  2.1642 -1.5238
   79MOL   H26639422   7.536   6.814   7.292 -0.0027 -0.7120 -0.5511
   79MOL   H26739423   7.514   6.829   7.114  0.5620 -0.2129 -0.0406
   79MOL   H26839424   7.405   6.619   7.300  1.4418  0.0925 -0.1340
   79MOL   H26939425   7.327   6.658   7.142  0.6308  3.6282 -0.4405
   79MOL   H27039426   7.545   6.628   7.045 -0.6304  1.3791  0.9820
   79MOL   H27139427   7.618   6.573   7.200  0.6385  1.8574  0.1927
   79MOL   H27239428   7.413   6.424   7.030 -0.5713  0.5676  0.8644
   79MOL   H27339429   7.575   6.388   7.041  1.1736  1.0969  0.3598
   79MOL   H27439430   7.550   6.357   7.299 -0.1362  1.3430  0.7447
   79MOL   H27539431   7.376   6.393   7.275  0.1155 -1.2480  0.6519
   79MOL   H27639432   7.444   6.247   7.209 -1.0322  1.0031 -2.2178
   79MOL   C27739433   7.212   7.077   7.482 -0.3982  0.2399  0.0373
   79MOL   C27839434   7.129   7.211   7.490  0.6631  0.6205  0.6921
   79MOL   O27939435   7.200   7.302   7.569  0.0134  0.1308  0.1805
   79MOL   C28039436   7.183   7.275   7.709  0.0826 -0.0098 -0.4345
   79MOL   C28139437   7.211   7.404   0.015  0.6848  0.1579  0.4754
   79MOL   C28239438   7.112   7.518   7.749  0.6088  0.3629  0.0632
   79MOL   C28339439   7.133   7.647   0.034  0.5798  0.2259 -0.1712
   79MOL   C28439440   7.077   7.761   7.728  0.3492 -0.1161 -0.2017
   79MOL   C28539441   6.931   0.011   7.755 -0.3912  0.2567 -0.3532
   79MOL   H28639442   7.213   7.032   7.581  1.2365  0.7970  0.2792
   79MOL   H28739443   7.315   7.094   7.453 -0.5686 -1.2981 -1.5423
   79MOL   H28839444   7.034   7.188   7.538  1.2426 -0.8611  1.1687
   79MOL   H28939445   7.247   7.189   7.726 -0.2712 -0.5163 -1.6366
   79MOL   H29039446   7.079   7.247   7.725  0.6478 -2.4862 -0.9116
   79MOL   H29139447   7.314   7.439   0.011  0.1330  1.6883 -0.8952
   79MOL   H29239448   7.187   7.382   0.119  0.8336  1.6252  0.8288
   79MOL   H29339449   7.126   7.528   7.641  0.2515 -0.8291 -0.0920
   79MOL   H29439450   7.010   7.489   7.773 -0.0567  0.7749 -2.0950
   79MOL   H29539451   7.086   7.642   0.132 -0.6805 -2.1816 -0.8815
   79MOL   H29639452   7.240   7.652   0.054  0.3952  3.3401  0.2982
   79MOL   H29739453   7.129   0.075   7.751 -1.3894  0.7046  0.5392
   79MOL   H29839454   7.103   7.753   7.623  4.0270  0.4269  0.5995
   79MOL   H29939455   6.891   0.090   7.692  0.3098  0.3313 -0.7118
   79MOL   H30039456   6.871   7.699   7.754  0.1257 -0.0850 -0.8185
   79MOL   H30139457   6.917   0.048   0.078 -0.1134 -1.3613  0.2979
   79MOL   C30239458   7.110   7.281   7.355 -0.5251  0.3558  0.5585
   79MOL   C30339459   6.977   7.238   7.281 -0.0802  0.1130 -0.6713
   79MOL   O30439460   6.999   7.261   7.141  0.5700  0.2878 -1.1741
   79MOL   C30539461   7.060   7.152   7.075 -0.0817 -0.4383 -0.7776
   79MOL   C30639462   7.090   7.198   6.930 -0.6916 -0.0938 -0.1217
   79MOL   C30739463   6.963   7.239   6.853  0.4114  1.0239 -0.2742
   79MOL   C30839464   6.991   7.289   6.711  0.1631  0.0252 -0.1618
   79MOL   C30939465   6.871   7.329   6.629 -0.3701  0.4020  0.2804
   79MOL   C31039466   6.786   7.446   6.682  0.4850 -0.3596 -0.5608
   79MOL   H31139467   7.095   7.386   7.377 -2.4452  0.5010 -1.2632
   79MOL   H31239468   7.200   7.259   7.297 -0.0237  0.6499  1.2214
   79MOL   H31339469   6.945   7.135   7.294 -0.5905  0.4577  0.7989
   79MOL   H31439470   6.995   7.065   7.083 -0.9352 -0.1403 -3.7748
   79MOL   H31539471   7.160   7.129   7.114 -0.4187 -0.6858 -0.0474
   79MOL   H31639472   7.134   7.107   6.888 -1.9148 -0.7211 -0.0482
   79MOL   H31739473   7.163   7.279   6.931  0.4647 -1.1045  1.7939
   79MOL   H31839474   6.886   7.162   6.855  0.0479  1.3978  0.9283
   79MOL   H31939475   6.911   7.319   6.907  2.4326  1.3965  1.1935
   79MOL   H32039476   7.057   7.375   6.722 -0.9904  0.8637  0.2685
   79MOL   H32139477   7.053   7.217   6.657  0.5741  0.6541 -0.5394
   79MOL   H32239478   6.901   7.374   6.534  3.4741  0.7589  1.6018
   79MOL   H32339479   6.816   7.239   6.602 -0.2058  0.8346 -1.5993
   79MOL   H32439480   6.718   7.479   6.603  2.6908  3.2238 -1.0333
   79MOL   H32539481   6.723   7.412   6.765 -0.1908  1.0945 -0.4568
   79MOL   H32639482   6.832   7.540   6.713 -1.2704  0.4389 -0.3162
   79MOL   C32739483   6.859   7.322   7.332 -0.0951  0.3019 -0.2732
   79MOL   C32839484   6.714   7.291   7.287  0.1959 -0.1943  0.5191
   79MOL   O32939485   6.634   7.369   7.371  0.7173 -0.1134  0.4375
   79MOL   C33039486   6.519   7.299   7.406  0.1249 -0.3631 -0.6985
   79MOL   C33139487   6.418   7.391   7.470 -0.0430 -0.0042  0.2632
   79MOL   C33239488   6.452   7.435   7.605 -0.7498 -0.1363 -0.5583
   79MOL   C33339489   6.358   7.531   7.676  0.1842 -0.2236  0.4919
   79MOL   C33439490   6.366   7.684   7.642 -0.3947 -0.1222  0.3968
   79MOL   C33539491   6.484   7.764   7.693  0.3326  0.2609 -0.2756
   79MOL   H33639492   6.879   7.429   7.336 -3.2778  0.9473 -0.0109
   79MOL   H33739493   6.851   7.293   7.437  0.6791 -0.9909 -0.5650
   79MOL   H33839494   6.697   7.183   7.297 -2.3586  0.2966  1.9865
   79MOL   H33939495   6.555   7.217   7.468  1.6136  0.6580 -0.1814
   79MOL   H34039496   6.470   7.249   7.323  1.8374 -1.7421 -0.9068
   79MOL   H34139497   6.321   7.344   7.486 -0.0718 -0.2606 -0.6227
   79MOL   H34239498   6.405   7.478   7.405  1.0631 -0.3717 -0.4621
   79MOL   H34339499   6.463   7.346   7.668 -0.4511  0.2737 -0.0256
   79MOL   H34439500   6.552   7.479   7.600  0.0437 -1.7289  0.8223
   79MOL   H34539501   6.256   7.494   7.660  0.1621 -0.8252  1.9663
   79MOL   H34639502   6.377   7.506   0.002  0.8260  0.1837  0.4737
   79MOL   H34739503   6.347   7.700   7.536  0.1409 -0.2067  0.2841
   79MOL   H34839504   6.279   7.727   7.691 -0.3555  0.0059  0.3534
   79MOL   H34939505   6.575   7.748   7.635 -0.3168 -0.5457 -1.0863
   79MOL   H35039506   6.467   0.093   7.683 -0.6241  0.2042  0.7295
   79MOL   H35139507   6.503   7.748   0.020 -0.6710  2.4964  0.2694
   79MOL   C35239508   6.689   7.337   7.142 -0.5016 -0.1462 -1.1587
   79MOL   C35339509   6.584   7.255   7.064 -0.3571 -0.0849 -0.1781
   79MOL   O35439510   6.453   7.281   7.104 -0.9587 -0.4561 -0.1269
   79MOL   C35539511   6.408   7.417   7.097 -0.1354  0.5645 -0.0824
   79MOL   C35639512   6.261   7.428   7.136  0.7497  0.1640 -0.2538
   79MOL   C35739513   6.218   7.577   7.189 -0.6155 -0.0299  0.1639
   79MOL   C35839514   6.073   7.582   7.228  0.1693 -0.3481  0.1508
   79MOL   C35939515   6.030   7.733   7.269  0.5698 -0.0087  0.6209
   79MOL   C36039516   6.087   0.012   7.400 -0.4699  0.0387  0.8383
   79MOL   H36139517   6.670   7.443   7.130 -1.3680  0.2084  2.8571
   79MOL   H36239518   6.780   7.307   7.090 -0.4111 -2.1323  0.0749
   79MOL   H36339519   6.586   7.301   6.966  1.3343  0.1789 -0.0368
   79MOL   H36439520   6.432   7.454   6.998  1.8999  1.6663  0.7924
   79MOL   H36539521   6.467   7.477   7.167  2.0860 -0.9187 -0.6217
   79MOL   H36639522   6.222   7.349   7.200  0.0381  1.5389  1.0115
   79MOL   H36739523   6.201   7.393   7.051  0.6378 -1.4790  0.4818
   79MOL   H36839524   6.283   7.614   7.268 -2.1645  0.3537  1.2681
   79MOL   H36939525   6.234   7.643   7.104 -1.3903 -1.2220 -0.9172
   79MOL   H37039526   6.006   7.546   7.149 -0.8575  0.2243  0.7472
   79MOL   H37139527   6.057   7.509   7.308  0.1146  0.3872  0.8136
   79MOL   H37239528   6.043   0.021   7.184 -3.0472  0.0632  0.0187
   79MOL   H37339529   5.921   7.724   7.279  0.6801 -0.2630  1.6523
   79MOL   H37439530   6.195   0.026   7.388 -0.6107  0.2653 -0.2283
   79MOL   H37539531   6.035   0.105   7.422  1.7942  1.9959 -1.6883
   79MOL   H37639532   6.073   7.719   7.481 -1.3807  0.3160  0.9254
   79MOL   C37739533   6.596   7.100   7.054 -0.2084 -0.7622 -0.6472
   79MOL   C37839534   6.522   7.042   6.935 -0.3973 -0.1920  0.1837
   79MOL   O37939535   6.524   6.900   6.956 -0.2872  0.7131  0.1616
   79MOL   C38039536   6.407   6.827   6.911  0.5672 -0.2400  0.7007
   79MOL   C38139537   6.436   6.674   6.910 -0.2767 -0.1460  0.0285
   79MOL   C38239538   6.337   6.606   6.825 -0.1609  0.0318  0.5904
   79MOL   C38339539   6.348   6.459   6.829 -0.1572 -0.6127  0.4134
   79MOL   C38439540   6.224   6.400   6.767 -0.5985  0.1979 -0.4195
   79MOL   C38539541   6.224   6.242   6.781 -0.5920 -0.4427  0.2421
   79MOL   H38639542   6.701   7.077   7.040 -0.3303  0.5164 -4.3196
   79MOL   H38739543   6.581   7.045   7.146  2.6972 -1.7157 -0.6988
   79MOL   H38839544   6.420   7.080   6.930 -0.3293  0.0227  0.4439
   79MOL   H38939545   6.386   6.876   6.816  0.7228 -0.4977  0.5340
   79MOL   H39039546   6.330   6.848   6.986 -0.0922  2.0945 -0.5891
   79MOL   H39139547   6.419   6.643   7.014 -1.2711  0.9087  0.1941
   79MOL   H39239548   6.538   6.651   6.880  0.6361 -0.0036  2.8747
   79MOL   H39339549   6.240   6.641   6.859  0.4704  1.4449  0.9715
   79MOL   H39439550   6.363   6.647   6.727  0.3340 -2.4062 -0.3454
   79MOL   H39539551   6.437   6.420   6.778 -0.6574  0.5884 -1.4289
   79MOL   H39639552   6.358   6.418   6.929  0.5605  0.6232  0.8571
   79MOL   H39739553   6.130   6.440   6.806 -0.4410  0.0064  0.1497
   79MOL   H39839554   6.221   6.414   6.658  2.6300  0.3821 -0.5118
   79MOL   H39939555   6.222   6.216   6.887 -0.9415 -0.8653  0.1380
   79MOL   H40039556   6.134   6.203   6.732  0.6580 -1.4774 -1.2656
   79MOL   H40139557   6.295   6.188   6.719  1.4807  1.4130  0.9643
   79MOL   C40239558   6.589   7.074   6.798  0.2774 -0.1777 -0.3169
   79MOL   C40339559   6.487   7.125   6.693 -1.0932  0.0901  0.0996
   79MOL   O40439560   6.562   7.131   6.573  0.4657  0.6964  0.2501
   79MOL   C40539561   6.577   7.013   6.497 -0.0383  0.0267  0.0944
   79MOL   C40639562   6.664   7.030   6.370  1.1839 -0.2313  0.9341
   79MOL   C40739563   6.647   6.896   6.278  0.3620  0.4562 -0.6420
   79MOL   C40839564   6.709   6.918   6.135  0.0258  0.0708 -0.0708
   79MOL   C40939565   6.865   6.933   6.136  0.3804  0.0189  0.2101
   79MOL   C41039566   6.913   6.925   5.992 -0.8350  0.0176 -1.2326
   79MOL   H41139567   6.632   6.981   6.762 -1.1459 -0.8066 -0.4452
   79MOL   H41239568   6.674   7.140   6.813  0.2190 -0.4237  1.2445
   79MOL   H41339569   6.405   7.054   6.682 -1.9070  0.9820  0.3116
   79MOL   H41439570   6.479   6.986   6.458 -0.8035 -1.0608  2.6524
   79MOL   H41539571   6.615   6.921   6.541  0.2572 -0.9107 -2.0567
   79MOL   H41639572   6.767   7.035   6.402  1.8377 -0.0156 -1.1246
   79MOL   H41739573   6.640   7.122   6.316 -0.4326 -1.4793 -0.5613
   79MOL   H41839574   6.691   6.811   6.329 -0.8421  0.1579 -0.0801
   79MOL   H41939575   6.539   6.881   6.275  0.5308 -0.8932 -0.0232
   79MOL   H42039576   6.680   6.831   6.076  0.3455 -0.9325  1.2597
   79MOL   H42139577   6.663   7.005   6.087 -1.4155 -0.6309  0.0095
   79MOL   H42239578   6.902   7.025   6.182 -0.8141  0.2380  0.7444
   79MOL   H42339579   6.902   6.853   6.200 -2.2671 -2.9036 -1.7778
   79MOL   H42439580   7.021   6.938   5.995 -0.3542 -3.9598  1.2732
   79MOL   H42539581   6.908   6.829   5.941 -1.4273  0.6934 -2.4709
   79MOL   H42639582   6.868   7.008   5.937 -2.6431  0.2703  0.5833
   79MOL   C42739583   6.430   7.268   6.727  0.8777  0.1199 -0.1502
   79MOL   C42839584   6.297   7.309   6.649 -0.1167  0.6813  0.7537
   79MOL   O42939585   6.255   7.431   6.702 -0.5415  0.1888 -0.3524
   79MOL   C43039586   6.121   7.429   6.738  0.2206  0.5806 -0.2589
   79MOL   C43139587   6.083   7.571   6.777  0.5465  0.2413 -0.0408
   79MOL   C43239588   5.930   7.580   6.760 -0.4664  0.1261  0.2350
   79MOL   C43339589   5.889   7.725   6.755 -0.0740  0.5800  0.4423
   79MOL   C43439590   5.741   7.753   6.734  0.1119  0.5866  0.1928
   79MOL   C43539591   5.708   0.119   6.684 -0.1860 -0.2076  0.0044
   79MOL   H43639592   6.417   7.265   6.836  0.5613  0.5821 -0.1764
   79MOL   H43739593   6.503   7.347   6.714  0.1409  1.1460  1.6555
   79MOL   H43839594   6.223   7.229   6.656  1.2068 -0.7432 -1.1289
   79MOL   H43939595   6.112   7.348   6.810  1.6995 -0.4873 -1.2262
   79MOL   H44039596   6.066   7.399   6.649  1.4559  1.1283 -1.2209
   79MOL   H44139597   6.123   7.648   6.712  0.0441 -0.2757 -0.9862
   79MOL   H44239598   6.123   7.594   6.875 -0.0433 -1.0364  0.5198
   79MOL   H44339599   5.902   7.537   6.664 -0.2392  1.3737 -0.3989
   79MOL   H44439600   5.877   7.525   6.838  2.8579 -0.8218  1.9341
   79MOL   H44539601   5.934   7.778   6.840  2.8840 -0.1289 -0.6193
   79MOL   H44639602   5.924   7.766   6.661 -0.2913 -0.9062 -0.2881
   79MOL   H44739603   5.698   7.683   6.663  0.8315  0.4072 -0.0730
   79MOL   H44839604   5.673   7.747   6.818 -2.5911 -2.5615 -2.0943
   79MOL   H44939605   5.756   0.188   6.754 -1.4212  1.2579 -0.5582
   79MOL   H45039606   5.751   0.138   6.586 -0.4348 -1.9294 -0.4438
   79MOL   H45139607   5.600   0.131   6.678 -0.1374  0.0680 -0.3661
   79MOL   C45239608   6.330   7.322   6.501  0.0070 -0.3167 -0.2138
   79MOL   C45339609   6.232   7.251   6.402  0.0459  0.1934  0.0709
   79MOL   O45439610   6.265   7.110   6.399 -0.3663 -0.4964  0.0850
   79MOL   C45539611   6.160   7.023   6.343 -0.4504  0.1686  0.2543
   79MOL   C45639612   6.206   6.886   6.353 -0.8648  0.1144 -0.3446
   79MOL   C45739613   6.114   6.787   6.277 -0.0548 -0.6854  0.1119
   79MOL   C45839614   6.160   6.642   6.310  0.3756 -0.6556 -0.3168
   79MOL   C45939615   6.283   6.600   6.227  0.4378 -0.4430  0.3613
   79MOL   C46039616   6.321   6.453   6.239 -0.3346  0.0769 -0.1375
   79MOL   H46139617   6.316   7.426   6.474 -0.6630 -0.5733 -0.8772
   79MOL   H46239618   6.431   7.294   6.472 -0.1280 -1.7855  0.6722
   79MOL   H46339619   6.129   7.273   6.428 -1.0907 -3.4581 -1.0974
   79MOL   H46439620   6.133   7.050   6.241 -1.1134  1.5050  0.7556
   79MOL   H46539621   6.066   7.027   6.398  0.6072  0.6334  2.0685
   79MOL   H46639622   6.222   6.871   6.459  2.4764 -1.6459 -0.9885
   79MOL   H46739623   6.312   6.878   6.326 -0.7891  2.6203 -0.8787
   79MOL   H46839624   6.013   6.788   6.317 -0.2525 -3.3425 -0.2334
   79MOL   H46939625   6.114   6.818   6.172  0.8723  0.1787  0.3650
   79MOL   H47039626   6.179   6.640   6.418  2.4488  0.3309 -0.6300
   79MOL   H47139627   6.080   6.570   6.298  0.1326 -0.4365 -0.0179
   79MOL   H47239628   6.247   6.622   6.127  0.1890  0.4550  0.6459
   79MOL   H47339629   6.367   6.665   6.249 -0.4072  0.3866  1.1822
   79MOL   H47439630   6.366   6.405   6.152  1.9733  1.9504 -0.0304
   79MOL   H47539631   6.386   6.446   6.326 -1.6769 -0.3363  0.8624
   79MOL   H47639632   6.230   6.397   6.263  0.1566  0.2422  2.2635
   79MOL   C47739633   6.248   7.308   6.261  0.1834 -0.2991 -0.2086
   79MOL   C47839634   6.373   7.258   6.186  0.2114  1.3490  0.3663
   79MOL   O47939635   6.370   7.308   6.055  0.0901  0.3232 -0.0818
   79MOL   C48039636   6.475   7.261   5.971  0.1871 -0.2611 -0.1520
   79MOL   C48139637   6.484   7.359   5.852 -0.0938 -1.1123 -0.9063
   79MOL   C48239638   6.595   7.314   5.758 -0.7113 -0.3759 -0.5422
   79MOL   C48339639   6.734   7.291   5.806 -0.1564  1.1476  0.1325
   79MOL   C48439640   6.812   7.410   5.868  0.0622 -0.5089 -0.5106
   79MOL   C48539641   6.932   7.353   5.948 -0.5144  0.3796 -0.6022
   79MOL   H48639642   6.155   7.288   6.208 -0.5432  0.1198  0.9027
   79MOL   H48739643   6.256   7.416   6.272  0.0365 -0.5916  3.4769
   79MOL   H48839644   6.459   7.287   6.246 -1.1826  1.4986  2.3547
   79MOL   H48939645   6.446   7.160   5.942  0.6515 -0.3344 -0.3628
   79MOL   H49039646   6.569   7.255   6.026 -0.5732  0.5573  1.2600
   79MOL   H49139647   6.522   7.446   5.905 -0.8279 -1.2026 -0.2311
   79MOL   H49239648   6.396   7.387   5.794  0.4908  1.1160 -0.7697
   79MOL   H49339649   6.545   7.238   5.698 -4.0275  0.2855  1.2196
   79MOL   H49439650   6.603   7.387   5.678 -0.7378  1.0307  0.7150
   79MOL   H49539651   6.736   7.206   5.874 -0.5073 -1.4657 -2.9934
   79MOL   H49639652   6.788   7.256   5.718  1.1194  2.1770  0.4867
   79MOL   H49739653   6.845   7.477   5.789  0.7201 -2.6620 -2.0844
   79MOL   H49839654   6.746   7.470   5.932 -1.0368 -0.6563 -1.4762
   79MOL   H49939655   6.899   7.310   6.043  2.0150  0.2799  0.2598
   79MOL   H50039656   7.000   7.291   5.889  0.0518  0.5676 -0.1474
   79MOL   H50139657   6.994   7.440   5.970 -0.1005  0.5183 -2.2393
   79MOL   H50239658   6.381   7.150   6.175  1.5504  1.7188 -2.8422
   80MOL     C139659   0.924   5.659   1.096 -0.1482 -0.0561 -0.0554
   80MOL     C239660   1.007   5.545   1.027 -1.1495  0.3032 -0.2881
   80MOL     O339661   1.088   5.594   0.921 -0.0662  0.6149  0.4601
   80MOL     C439662   1.194   5.681   0.963 -0.0902  0.2497  0.1856
   80MOL     C539663   1.280   5.689   0.836  0.6925  0.6055  0.2248
   80MOL     C639664   1.420   5.743   0.879  0.2289 -0.2689 -0.6955
   80MOL     C739665   1.506   5.762   0.758 -0.5657 -0.3903 -0.0223
   80MOL     C839666   1.643   5.828   0.797  0.1530  0.3205 -0.3039
   80MOL     C939667   1.724   5.847   0.670  0.1793 -0.8222  0.5087
   80MOL    H1039668   0.865   5.615   1.176 -1.6795  1.2319 -0.4404
   80MOL    H1139669   0.989   5.736   1.136 -0.5804  0.7733 -0.9398
   80MOL    H1239670   1.070   5.503   1.106 -0.9398  1.3290  0.0989
   80MOL    H1339671   1.264   5.646   1.040  0.7749  1.4872 -0.0210
   80MOL    H1439672   1.158   5.778   0.997 -0.6953 -0.1667  0.7195
   80MOL    H1539673   1.232   5.763   0.771 -0.3424  0.2725  0.5889
   80MOL    H1639674   1.280   5.602   0.770 -1.4703  0.5914  0.2000
   80MOL    H1739675   1.408   5.842   0.924 -1.9324 -0.3009 -1.1376
   80MOL    H1839676   1.468   5.673   0.947  0.7433  1.3587  0.6648
   80MOL    H1939677   1.522   5.661   0.720  4.4649  0.2582  0.1252
   80MOL    H2039678   1.461   5.829   0.684  3.8166  2.1800 -0.4930
   80MOL    H2139679   1.694   5.758   0.862  0.6057  0.5132 -0.4463
   80MOL    H2239680   1.626   5.920   0.852 -2.0847 -1.5018  2.1626
   80MOL    H2339681   1.757   5.749   0.635 -0.2188 -0.2004 -1.7172
   80MOL    H2439682   1.660   5.883   0.590  0.6292  0.4832  0.7360
   80MOL    H2539683   1.808   5.916   0.665  0.3631 -1.1862 -1.9353
   80MOL    H2639684   0.859   5.712   1.027 -0.7302 -0.9862 -0.2304
   80MOL    C2739685   0.926   5.423   0.986  0.5874 -0.3526  0.7643
   80MOL    C2839686   1.005   5.293   0.969  0.1051 -0.3882 -0.0488
   80MOL    O2939687   1.008   5.244   1.106  0.4870 -0.7604 -0.1025
   80MOL    C3039688   1.130   5.191   1.156 -0.0651 -0.1435  0.0442
   80MOL    C3139689   1.133   5.136   1.301 -0.2503  0.2104  0.2778
   80MOL    C3239690   1.100   5.248   1.399  1.2142  1.1123  0.8945
   80MOL    C3339691   1.098   5.221   1.548 -0.4262 -0.0303 -0.5502
   80MOL    C3439692   0.964   5.164   1.592  0.9127 -0.3661 -0.6415
   80MOL    C3539693   0.965   5.013   1.617  0.6074 -0.3442 -0.1124
   80MOL    H3639694   0.843   5.393   1.049 -0.0643 -3.6966 -1.5282
   80MOL    H3739695   0.892   5.449   0.885  0.7201 -0.6458  0.6448
   80MOL    H3839696   1.109   5.320   0.950 -0.2077  2.3907  1.7889
   80MOL    H3939697   1.209   5.263   1.131 -2.0470  1.9433 -0.3683
   80MOL    H4039698   1.165   5.115   1.086 -1.2820 -1.3970  0.7920
   80MOL    H4139699   1.234   5.096   1.310 -0.4258 -0.6797 -1.3551
   80MOL    H4239700   1.064   5.055   1.324  0.7064  0.2853  3.7701
   80MOL    H4339701   1.172   5.328   1.382 -0.0884  1.9398 -0.9194
   80MOL    H4439702   1.009   5.297   1.362  0.5622 -0.9392 -0.2977
   80MOL    H4539703   1.176   5.158   1.590 -1.9560 -2.3401 -1.0621
   80MOL    H4639704   1.105   5.312   1.607 -1.9340 -0.0369 -0.3390
   80MOL    H4739705   0.931   5.207   1.687  0.4820  0.1260 -1.0138
   80MOL    H4839706   0.880   5.186   1.526 -1.9909  2.4835  3.6855
   80MOL    H4939707   0.868   4.975   1.648  0.7955  0.0064  0.9305
   80MOL    H5039708   0.985   4.966   1.521  3.0003  0.3733 -0.0031
   80MOL    H5139709   1.037   4.994   1.697  0.1946 -0.4329  0.2375
   80MOL    C5239710   0.936   5.181   0.882 -0.1279 -0.2303  0.3381
   80MOL    C5339711   1.018   5.040   0.873  0.4023  0.2616  0.4831
   80MOL    O5439712   0.945   4.949   0.775 -0.3367 -0.2610 -0.6145
   80MOL    C5539713   0.819   4.903   0.825  0.3392  0.4963  0.5673
   80MOL    C5639714   0.838   4.777   0.913 -0.1009 -0.0461  0.2395
   80MOL    C5739715   0.710   4.739   0.990 -0.7093 -0.1873 -0.1081
   80MOL    C5839716   0.730   4.621   1.083 -0.5861  0.0237 -0.2472
   80MOL    C5939717   0.779   4.486   1.021  0.1790 -0.5523 -0.2222
   80MOL    C6039718   0.820   4.375   1.121 -0.8888 -0.1259 -0.3589
   80MOL    H6139719   0.927   5.214   0.778  1.7999 -0.8211 -0.0288
   80MOL    H6239720   0.834   5.167   0.917 -0.9912  2.5987 -0.8363
   80MOL    H6339721   1.027   4.996   0.972  0.1485  0.4118  0.5749
   80MOL    H6439722   0.777   4.882   0.727  2.5858  1.4709 -0.6445
   80MOL    H6539723   0.750   4.978   0.865 -1.2606 -1.5546  1.7196
   80MOL    H6639724   0.915   4.796   0.988  0.9405  0.7549 -1.0005
   80MOL    H6739725   0.870   4.696   0.849 -2.6175  0.4934 -1.7793
   80MOL    H6839726   0.667   4.823   1.044 -1.4881 -0.7749  0.2050
   80MOL    H6939727   0.633   4.715   0.917 -1.0917 -0.6197  0.4322
   80MOL    H7039728   0.797   4.659   1.160  0.1867 -0.4657 -0.6807
   80MOL    H7139729   0.639   4.609   1.143 -1.2991  0.1091 -1.3011
   80MOL    H7239730   0.698   4.443   0.962 -1.1692 -0.2738  1.3737
   80MOL    H7339731   0.853   4.495   0.942  1.4516 -2.8227  0.6596
   80MOL    H7439732   0.893   4.303   1.085  0.7884  1.2655  0.1447
   80MOL    H7539733   0.886   4.432   1.186  1.2404 -1.5596 -1.2157
   80MOL    H7639734   0.741   4.331   1.182 -1.3046  0.1765 -0.6736
   80MOL    C7739735   1.159   5.062   0.805  0.0135  0.4969 -0.3636
   80MOL    C7839736   1.251   4.943   0.809 -0.0008  0.1469  0.6606
   80MOL    O7939737   1.284   4.900   0.941 -0.0748  0.2354  0.1897
   80MOL    C8039738   1.258   4.765   0.979  0.4375 -0.2373  0.2716
   80MOL    C8139739   1.212   4.787   1.130  0.0477  0.6303 -0.0008
   80MOL    C8239740   1.140   4.675   1.188 -0.2839 -0.1846 -0.2848
   80MOL    C8339741   1.096   4.707   1.330  0.3601 -0.4580  0.4635
   80MOL    C8439742   1.041   4.592   1.409  0.4035  0.0290 -0.0628
   80MOL    C8539743   1.019   4.625   1.558 -0.5157 -0.7096 -0.1009
   80MOL    H8639744   1.213   5.138   0.862 -0.4442 -0.0394  0.8022
   80MOL    H8739745   1.158   5.082   0.698  0.9693 -2.2235 -0.9212
   80MOL    H8839746   1.186   4.871   0.760 -0.2437  0.0653  1.0935
   80MOL    H8939747   1.343   4.696   0.980  1.2553  0.7501  0.0425
   80MOL    H9039748   1.175   4.724   0.922  1.2678  1.1444 -1.9734
   80MOL    H9139749   1.152   4.878   1.141 -0.3920  0.2279  1.0302
   80MOL    H9239750   1.297   4.808   1.195 -0.6932  0.1058  1.1502
   80MOL    H9339751   1.050   4.646   1.134 -1.0014  0.2277  0.6727
   80MOL    H9439752   1.213   4.594   1.190 -0.4950 -0.4055 -1.3034
   80MOL    H9539753   1.189   4.744   1.375  0.1345 -0.9763  1.3461
   80MOL    H9639754   1.026   4.791   1.335  2.3203  1.2583  0.1324
   80MOL    H9739755   0.948   4.550   1.371  0.0512  0.9673 -0.2399
   80MOL    H9839756   1.114   4.512   1.397  0.5345  0.2576 -0.8364
   80MOL    H9939757   0.967   4.721   1.568  0.8013 -0.1473  1.6658
   80MOL   H10039758   0.944   4.558   1.599  1.3513 -1.6134  1.9211
   80MOL   H10139759   1.100   4.622   1.630 -1.0895 -0.0396  0.5823
   80MOL   C10239760   1.379   4.951   0.731 -0.2338 -0.3099 -0.2129
   80MOL   C10339761   1.491   5.056   0.777 -0.3192 -0.5390 -0.2742
   80MOL   O10439762   1.619   4.996   0.743 -0.0442  0.8074 -0.4008
   80MOL   C10539763   1.672   4.928   0.857 -0.4779 -0.1628  0.1365
   80MOL   C10639764   1.806   4.880   0.813 -0.2046 -0.5550  1.0199
   80MOL   C10739765   1.908   4.993   0.815 -0.2403  0.0560 -0.2578
   80MOL   C10839766   2.051   4.935   0.789 -0.9527 -0.4884  0.2054
   80MOL   C10939767   2.150   5.057   0.784 -0.1888  0.5448  0.4153
   80MOL   C11039768   2.284   5.015   0.727 -0.0222  0.1657  0.5913
   80MOL   H11139769   1.420   4.851   0.742 -1.7424 -0.8486  0.5864
   80MOL   H11239770   1.366   4.962   0.623  0.2778 -1.4937 -0.4019
   80MOL   H11339771   1.490   5.070   0.885  3.6429  1.1743 -0.3877
   80MOL   H11439772   1.602   4.851   0.888 -2.0421  2.2486  2.8461
   80MOL   H11539773   1.687   4.993   0.944  1.0878 -1.2674  0.7193
   80MOL   H11639774   1.816   4.832   0.715 -0.0933  0.6320  0.4391
   80MOL   H11739775   1.830   4.804   0.887  1.0271 -0.5943  0.5897
   80MOL   H11839776   1.881   5.068   0.741 -0.1134  0.1416 -0.2162
   80MOL   H11939777   1.912   5.043   0.911 -0.4453 -0.3792 -0.0173
   80MOL   H12039778   2.085   4.854   0.853  1.8082  0.8196  0.4677
   80MOL   H12139779   2.054   4.891   0.689  0.7544  0.2210 -0.0828
   80MOL   H12239780   2.098   5.126   0.717 -2.5214  0.3581  2.0115
   80MOL   H12339781   2.153   5.106   0.881 -0.0518 -1.0622  1.2350
   80MOL   H12439782   2.343   5.105   0.710 -2.7868  1.8807 -0.2291
   80MOL   H12539783   2.332   4.948   0.799  0.6288  0.1988  0.1913
   80MOL   H12639784   2.272   4.955   0.636  2.9000 -0.0375  0.2786
   80MOL   C12739785   1.487   5.196   0.712  0.0140  0.2581 -0.2862
   80MOL   C12839786   1.599   5.296   0.761 -0.0296  0.3149  0.3000
   80MOL   O12939787   1.545   5.367   0.874 -0.2219 -0.3834 -0.2772
   80MOL   C13039788   1.638   5.433   0.960 -0.7465 -0.0223  0.5091
   80MOL   C13139789   1.597   5.446   1.110  0.4925 -0.3269 -0.0300
   80MOL   C13239790   1.565   5.310   1.177 -0.3201 -0.2035 -0.5004
   80MOL   C13339791   1.536   5.322   1.323 -0.2630  0.2916  0.9861
   80MOL   C13439792   1.509   5.185   1.373  0.1392 -0.1828 -0.8488
   80MOL   C13539793   1.464   5.189   1.522 -0.1750  0.5268  0.1709
   80MOL   H13639794   1.498   5.168   0.607 -0.2671 -0.2421 -0.1846
   80MOL   H13739795   1.392   5.247   0.723  0.1194  0.5202 -0.6049
   80MOL   H13839796   1.686   5.242   0.800 -1.3255  0.2494  3.2655
   80MOL   H13939797   1.654   5.539   0.937  0.4364 -0.1615  0.6567
   80MOL   H14039798   1.738   5.391   0.964 -0.3194  0.8427 -0.6736
   80MOL   H14139799   1.506   5.501   1.133  1.0622  0.0166  1.4603
   80MOL   H14239800   1.675   5.497   1.167  0.4116 -1.0165  0.7108
   80MOL   H14339801   1.482   5.265   1.124 -0.6792  0.0667 -0.1693
   80MOL   H14439802   1.645   5.240   1.152  0.0195 -0.2574  0.7062
   80MOL   H14539803   1.615   5.373   1.378  0.8363 -0.0097 -0.2864
   80MOL   H14639804   1.454   5.392   1.337  0.6234  1.2932  1.2332
   80MOL   H14739805   1.438   5.132   1.311  0.0333  0.9793 -1.7310
   80MOL   H14839806   1.596   5.120   1.358  1.4692  1.9765 -2.8453
   80MOL   H14939807   1.375   5.250   1.537  0.8848  1.7888  1.4752
   80MOL   H15039808   1.445   5.087   1.556  1.9082  0.0301 -0.0684
   80MOL   H15139809   1.538   5.217   1.597  2.5107 -0.6877 -1.9390
   80MOL   C15239810   1.639   5.396   0.649 -0.1857  0.0513  0.3906
   80MOL   C15339811   1.757   5.359   0.562 -0.4969 -0.3940 -0.4300
   80MOL   O15439812   1.875   5.350   0.641  0.4587 -0.6394  0.4857
   80MOL   C15539813   1.972   5.447   0.607 -0.2415  0.1725 -0.8080
   80MOL   C15639814   2.104   5.431   0.687  0.4551  0.6313  1.1562
   80MOL   C15739815   2.078   5.400   0.835  0.1390 -0.1966  0.1903
   80MOL   C15839816   2.216   5.399   0.909 -0.4192 -0.3854 -0.3902
   80MOL   C15939817   2.214   5.368   1.066  0.2473  0.5367  0.2957
   80MOL   C16039818   2.118   5.438   1.159  0.6517  0.0133  0.3317
   80MOL   H16139819   1.556   5.437   0.591  1.9191 -0.4221 -3.0918
   80MOL   H16239820   1.669   5.491   0.694 -2.7100  0.9376  0.2750
   80MOL   H16339821   1.779   5.435   0.487  0.9417  0.6402  0.9952
   80MOL   H16439822   1.923   5.539   0.640 -1.0274 -0.9056  1.0834
   80MOL   H16539823   1.988   5.444   0.499  0.7040 -0.5040 -0.6585
   80MOL   H16639824   2.163   5.522   0.674 -0.2949  1.4293  3.1468
   80MOL   H16739825   2.174   5.357   0.647  0.0115  0.0668  1.4263
   80MOL   H16839826   2.022   5.482   0.882  2.3471  2.4165 -1.5563
   80MOL   H16939827   2.020   5.310   0.853 -2.7383  1.4406 -0.5140
   80MOL   H17039828   2.271   5.318   0.860 -1.1928 -0.6340 -0.8488
   80MOL   H17139829   2.269   5.492   0.888  1.9017 -1.7148 -0.6706
   80MOL   H17239830   2.205   5.264   1.094 -2.9027  0.9253  0.8878
   80MOL   H17339831   2.312   5.405   1.099  1.8592 -0.9471 -2.6089
   80MOL   H17439832   2.015   5.411   1.140  0.5652  0.5841 -0.0301
   80MOL   H17539833   2.139   5.394   1.256  0.1477  1.0409  0.9195
   80MOL   H17639834   2.122   5.547   1.163  1.6020  0.0144 -0.4263
   80MOL   C17739835   1.738   5.230   0.479 -0.0509  0.3382  0.0968
   80MOL   C17839836   1.863   5.192   0.397 -0.0207  0.5633 -0.3806
   80MOL   O17939837   1.844   5.062   0.340  0.1441  0.2021 -0.1906
   80MOL   C18039838   1.880   4.957   0.431  0.5109  0.0456  0.3546
   80MOL   C18139839   1.820   4.827   0.367 -0.5036 -0.2939  0.4837
   80MOL   C18239840   1.837   4.701   0.447 -0.1295  0.1080  0.2935
   80MOL   C18339841   1.800   4.575   0.369 -0.7120  0.1382 -0.6542
   80MOL   C18439842   1.655   4.570   0.316 -0.3230  0.5152 -0.0852
   80MOL   C18539843   1.601   4.431   0.290 -0.0595  0.0859  0.4621
   80MOL   H18639844   1.719   5.148   0.548 -1.0393  2.0070  1.8852
   80MOL   H18739845   1.650   5.241   0.416 -1.0451 -1.5431  1.1353
   80MOL   H18839846   1.948   5.181   0.464 -1.6797 -2.0639  1.3733
   80MOL   H18939847   1.836   4.961   0.530 -1.0572 -2.7343 -0.1804
   80MOL   H19039848   1.987   4.952   0.450  0.4267 -0.0424  0.8019
   80MOL   H19139849   1.865   4.805   0.270 -2.0476 -0.6018 -0.1695
   80MOL   H19239850   1.715   4.854   0.357 -0.2528  0.2399 -0.8108
   80MOL   H19339851   1.937   4.694   0.490  0.7527  4.2112 -0.9209
   80MOL   H19439852   1.765   4.710   0.529  0.6829  0.7284  0.9443
   80MOL   H19539853   1.872   4.569   0.288 -0.2230  0.5431 -0.2539
   80MOL   H19639854   1.826   4.487   0.428  1.4115  1.1293 -0.0721
   80MOL   H19739855   1.591   4.609   0.395  0.0044  2.0558 -0.5674
   80MOL   H19839856   1.640   4.618   0.220 -0.9293 -1.8665 -1.2396
   80MOL   H19939857   1.507   4.421   0.236  0.7570 -0.1776 -0.9467
   80MOL   H20039858   1.682   4.377   0.241  0.0586  1.7572 -1.2464
   80MOL   H20139859   1.572   4.370   0.375  0.4944 -2.7206 -1.2666
   80MOL   C20239860   1.893   5.282   0.272  0.4621  0.0324 -0.5957
   80MOL   C20339861   2.017   5.245   0.194  0.3909  0.4274 -0.4137
   80MOL   O20439862   2.141   5.272   0.260  0.0128 -0.2450 -0.1911
   80MOL   C20539863   2.195   5.161   0.326  0.2115 -0.4813  0.3279
   80MOL   C20639864   2.342   5.181   0.345  0.5115  0.5443  0.0031
   80MOL   C20739865   2.420   5.252   0.230 -0.5300 -0.4064  0.8454
   80MOL   C20839866   2.573   5.268   0.262 -0.4592  0.2772 -0.3465
   80MOL   C20939867   2.650   5.347   0.161  0.3621 -0.0918  0.3987
   80MOL   C21039868   2.614   5.501   0.168 -0.3020 -0.0935 -0.0126
   80MOL   H21139869   1.812   5.281   0.199 -0.6323  1.6118  0.5615
   80MOL   H21239870   1.897   5.389   0.290  0.3415 -0.2782  1.3866
   80MOL   H21339871   2.001   5.142   0.162  0.1321  0.6763 -1.0917
   80MOL   H21439872   2.169   5.069   0.272  1.2232 -0.7343  0.2554
   80MOL   H21539873   2.164   5.132   0.426 -0.3159 -0.6529  0.1182
   80MOL   H21639874   2.387   5.088   0.379 -1.6758  0.0585  1.6670
   80MOL   H21739875   2.341   5.257   0.423  0.9821  0.7765 -0.2127
   80MOL   H21839876   2.418   5.183   0.146 -3.2791  0.6785 -0.0291
   80MOL   H21939877   2.371   5.344   0.196  3.5147  0.8917 -2.0140
   80MOL   H22039878   2.586   5.318   0.359 -0.3922  0.3866 -0.4120
   80MOL   H22139879   2.616   5.168   0.267  0.5916  0.6873 -1.1309
   80MOL   H22239880   2.756   5.343   0.185  0.1556 -1.4804  1.1406
   80MOL   H22339881   2.625   5.306   0.063 -0.5493 -0.8331  0.9254
   80MOL   H22439882   2.510   5.510   0.137 -0.6010  0.9288  1.2256
   80MOL   H22539883   2.619   5.544   0.268  0.1803  1.9324 -0.8634
   80MOL   H22639884   2.677   5.571   0.112 -2.1980  0.1205 -1.9411
   80MOL   C22739885   2.035   5.334   0.075 -0.4854 -0.1359  1.1413
   80MOL   C22839886   2.124   5.289   7.730 -0.1258 -0.0431 -0.0648
   80MOL   O22939887   2.043   5.196   7.658 -0.3984  0.2691  0.2046
   80MOL   C23039888   2.100   5.064   7.649  1.1371  0.0707 -0.4654
   80MOL   C23139889   2.009   4.960   7.579 -0.0902 -0.1425 -0.7030
   80MOL   C23239890   1.884   4.971   7.661 -0.0651 -0.0548 -0.3731
   80MOL   C23339891   1.778   4.868   7.611  0.6004  0.9348 -0.0520
   80MOL   C23439892   1.649   4.879   7.697  0.1466  0.9751 -0.5218
   80MOL   C23539893   1.550   4.764   7.670  0.3086 -0.3944  0.2377
   80MOL   H23639894   1.939   5.363   0.033 -0.0979 -0.8188 -0.2283
   80MOL   H23739895   2.076   5.429   0.108  0.6245 -1.3991  3.5427
   80MOL   H23839896   2.213   5.241   7.770 -1.5515 -1.5023  1.5147
   80MOL   H23939897   2.143   5.030   7.743  0.6397  0.6097 -0.0391
   80MOL   H24039898   2.183   5.075   7.579 -0.0854 -0.1038 -1.9682
   80MOL   H24139899   2.038   4.856   7.570  1.8420  0.0748  2.4502
   80MOL   H24239900   1.994   4.995   7.476 -2.6117 -2.7095 -1.2798
   80MOL   H24339901   1.908   4.938   7.762 -0.9961  0.8037  0.1364
   80MOL   H24439902   1.839   5.071   7.657 -0.2685 -0.1152  0.4562
   80MOL   H24539903   1.767   4.882   7.503 -2.6853  2.3170  0.3929
   80MOL   H24639904   1.824   4.771   7.629 -0.2663  0.5524  0.1411
   80MOL   H24739905   1.670   4.878   0.026  1.4162 -1.8239 -0.7568
   80MOL   H24839906   1.601   4.976   7.680  0.3659  1.2280  0.2727
   80MOL   H24939907   1.599   4.667   7.672 -0.5931 -0.8809 -0.6191
   80MOL   H25039908   1.468   4.762   7.741  0.7525  0.5973  0.7964
   80MOL   H25139909   1.497   4.766   7.574  0.5561  0.4530  0.1146
   80MOL   C25239910   2.156   5.409   7.638  0.8610 -0.3751 -0.3606
   80MOL   C25339911   2.204   5.375   7.496 -0.2781 -0.0844 -0.0810
   80MOL   O25439912   2.336   5.328   7.514  0.5777 -0.1280 -0.3674
   80MOL   C25539913   2.394   5.261   7.402  0.0505  0.2307  0.4211
   80MOL   C25639914   2.543   5.251   7.439 -0.3422 -0.3523  0.3201
   80MOL   C25739915   2.619   5.380   7.472  0.1257  0.3859  0.9800
   80MOL   C25839916   2.764   5.364   7.496  0.5159  0.2005  0.1182
   80MOL   C25939917   2.824   5.495   7.525  0.0012  0.6016 -0.0394
   80MOL   C26039918   2.976   5.485   7.533 -0.0797 -0.3143  0.4189
   80MOL   H26139919   2.065   5.469   7.635  0.3325 -1.0474  1.1328
   80MOL   H26239920   2.231   5.461   7.696  1.6687  0.9656 -2.5718
   80MOL   H26339921   2.146   5.292   7.457 -0.4274 -0.6823  1.3738
   80MOL   H26439922   2.379   5.307   7.304  0.7518  1.0971  0.7043
   80MOL   H26539923   2.366   5.157   7.388 -0.3012  0.8857 -4.8189
   80MOL   H26639924   2.590   5.192   7.361  0.0123  0.4122 -0.0572
   80MOL   H26739925   2.539   5.190   7.529  0.0221  1.6818  1.7519
   80MOL   H26839926   2.615   5.439   7.379  1.1177 -1.6126 -0.3626
   80MOL   H26939927   2.572   5.441   7.549 -3.6286  1.5646 -2.0753
   80MOL   H27039928   2.788   5.293   7.576 -1.8186 -1.1099 -0.3043
   80MOL   H27139929   2.809   5.321   7.407 -1.0798 -0.6414 -0.3035
   80MOL   H27239930   2.803   5.555   7.436  1.8869  1.4016  0.0462
   80MOL   H27339931   2.780   5.548   7.610  1.9987  1.6801  0.3512
   80MOL   H27439932   3.019   5.431   7.449  1.1494 -1.8783  2.0146
   80MOL   H27539933   3.013   5.587   7.539  2.1180 -1.1143  0.9709
   80MOL   H27639934   3.024   5.437   7.618  1.8887 -0.0472 -0.5214
   80MOL   C27739935   2.208   5.502   7.405  0.7162 -0.3891  0.1112
   80MOL   C27839936   2.074   5.535   7.345  0.8739 -0.3804  0.5391
   80MOL   O27939937   1.986   5.584   7.442 -0.1432 -0.1334  0.0142
   80MOL   C28039938   1.851   5.565   7.411  1.4294  0.0181  0.3816
   80MOL   C28139939   1.803   5.421   7.459 -0.4419  1.5339 -0.2657
   80MOL   C28239940   1.659   5.383   7.439 -0.7429 -0.0053  0.7486
   80MOL   C28339941   1.642   5.241   7.486  0.3240 -0.8214  0.2701
   80MOL   C28439942   1.506   5.179   7.452  0.2018 -0.7244  0.8052
   80MOL   C28539943   1.477   5.150   7.301  0.2991  0.2632 -0.0781
   80MOL   H28639944   2.246   5.586   7.461  0.8519 -0.8642  0.7369
   80MOL   H28739945   2.274   5.487   7.320  0.2154 -1.3390 -0.1237
   80MOL   H28839946   2.029   5.451   7.293 -0.0651  0.5551 -0.1849
   80MOL   H28939947   1.842   5.569   7.303  1.4215  0.9254  0.4072
   80MOL   H29039948   1.784   5.638   7.457  0.1806  0.5725 -2.2219
   80MOL   H29139949   1.819   5.416   7.566  0.2316 -1.4094 -0.4685
   80MOL   H29239950   1.869   5.340   7.428 -1.9239  0.3075 -0.2820
   80MOL   H29339951   1.589   5.454   7.483  1.9399  3.2049  0.0755
   80MOL   H29439952   1.638   5.379   7.332 -1.9939  1.3369  0.9334
   80MOL   H29539953   1.724   5.186   7.440  1.0663  1.1949 -0.8987
   80MOL   H29639954   1.656   5.245   7.594 -1.7369 -3.6601  0.6879
   80MOL   H29739955   1.489   5.089   7.510 -0.8429 -1.5217 -0.7199
   80MOL   H29839956   1.435   5.257   7.478 -0.5057 -1.1575  0.1915
   80MOL   H29939957   1.501   5.232   7.233 -0.1120  1.6370  1.4151
   80MOL   H30039958   1.534   5.064   7.266 -0.3918 -1.2787  2.4313
   80MOL   H30139959   1.372   5.127   7.280 -0.0164  0.7740  0.8769
   80MOL   C30239960   2.097   5.643   7.229 -0.4123  0.3373  0.5557
   80MOL   C30339961   2.132   5.585   7.092  0.4904 -0.6158 -0.5954
   80MOL   O30439962   2.265   5.531   7.109 -0.1133 -0.6150  0.0978
   80MOL   C30539963   2.296   5.407   7.035  0.0413 -0.6136 -0.2822
   80MOL   C30639964   2.445   5.382   7.027  0.2394 -0.1728  0.0406
   80MOL   C30739965   2.476   5.241   6.962  0.0962 -0.1789  0.3202
   80MOL   C30839966   2.623   5.200   6.932  0.1807 -0.0322 -0.3727
   80MOL   C30939967   2.714   5.234   7.048 -0.6131  0.5748 -0.4802
   80MOL   C31039968   2.841   5.153   7.064 -0.3518  0.6995  0.0293
   80MOL   H31139969   2.007   5.695   7.197  0.9970  0.9873 -2.5707
   80MOL   H31239970   2.171   5.720   7.252  0.7673 -0.9026  0.9868
   80MOL   H31339971   2.058   5.508   7.070  1.0509 -1.5987  0.8222
   80MOL   H31439972   2.241   5.394   6.942  1.5190  0.1044 -1.2793
   80MOL   H31539973   2.257   5.323   7.092  1.1921 -0.1928  1.1401
   80MOL   H31639974   2.494   5.403   7.122 -0.1004  0.1897  0.1357
   80MOL   H31739975   2.484   5.468   6.973  1.3817 -1.2226 -0.8391
   80MOL   H31839976   2.426   5.162   7.018 -0.6558  0.3893  0.4671
   80MOL   H31939977   2.423   5.251   6.867  2.4224  1.4898 -0.8399
   80MOL   H32039978   2.630   5.092   6.921 -1.7267 -0.3971  1.5953
   80MOL   H32139979   2.653   5.239   6.835 -0.8428 -0.1461 -0.7473
   80MOL   H32239980   2.749   5.337   7.040 -2.2119  1.0701 -1.2428
   80MOL   H32339981   2.658   5.221   7.141  1.2781  0.9056  0.7256
   80MOL   H32439982   2.817   5.047   7.075  0.5749  0.3222 -1.4119
   80MOL   H32539983   2.898   5.161   6.972 -0.8759 -1.4144 -0.5060
   80MOL   H32639984   2.914   5.187   7.138  0.8029  0.5321 -1.0174
   80MOL   C32739985   2.148   5.689   6.986 -0.2905 -0.1490  0.2666
   80MOL   C32839986   2.146   5.629   6.836  0.1358 -0.1211 -0.4962
   80MOL   O32939987   2.032   5.680   6.771 -0.3885  1.0017 -0.1593
   80MOL   C33039988   1.904   5.667   6.824  0.8758  0.7106  0.2845
   80MOL   C33139989   1.794   5.737   6.742  0.3619 -0.0463  0.3833
   80MOL   C33239990   1.655   5.702   6.790  0.6333 -0.8083  0.5059
   80MOL   C33339991   1.544   5.778   6.711 -0.0247 -0.5125 -0.4547
   80MOL   C33439992   1.401   5.710   6.721 -0.4080 -0.6191  1.1034
   80MOL   C33539993   1.334   5.675   6.860  0.6021  0.1153  0.3586
   80MOL   H33639994   2.238   5.746   7.011 -0.5293  0.5521 -0.4428
   80MOL   H33739995   2.080   5.775   6.988  1.4393  1.2603 -0.1753
   80MOL   H33839996   2.132   5.522   6.849  0.2960  0.2528  3.2317
   80MOL   H33939997   1.896   5.703   6.927  2.1315 -1.7556  1.2783
   80MOL   H34039998   1.879   5.561   6.828 -0.4084  1.0383  1.2910
   80MOL   H34139999   1.803   5.712   6.637  0.7743  0.8638  0.2026
   80MOL   H34240000   1.820   5.842   6.752  2.7750 -0.5843  0.1399
   80MOL   H34340001   1.643   5.596   6.770 -1.8723 -0.2503 -1.2246
   80MOL   H34440002   1.639   5.704   6.898 -3.2669 -1.0134  0.0156
   80MOL   H34540003   1.536   5.882   6.744  0.9427 -0.3985 -0.5405
   80MOL   H34640004   1.568   5.787   6.605  0.1339 -1.1745 -0.4742
   80MOL   H34740005   1.332   5.781   6.674 -0.7665 -1.3690  0.4785
   80MOL   H34840006   1.399   5.620   6.660  1.0773 -0.5382  0.9357
   80MOL   H34940007   1.227   5.654   6.857  0.4441  1.0461 -1.1908
   80MOL   H35040008   1.379   5.588   6.907  0.3317 -0.5069 -0.5447
   80MOL   H35140009   1.340   5.758   6.931  2.1775  0.8676 -0.6158
   80MOL   C35240010   2.278   5.652   6.757  0.1690  0.5853  0.3362
   80MOL   C35340011   2.276   5.558   6.631 -0.9268  0.2824 -0.4554
   80MOL   O35440012   2.292   5.426   6.674  0.1343 -0.1325 -0.2289
   80MOL   C35540013   2.236   5.330   6.585  0.2747 -0.0391 -0.1371
   80MOL   C35640014   2.254   5.193   6.654  0.0681 -0.2184  0.2765
   80MOL   C35740015   2.184   5.071   6.582 -0.2640  0.7451  0.4096
   80MOL   C35840016   2.225   4.931   6.642  0.0041  0.1303 -0.3483
   80MOL   C35940017   2.166   4.799   6.571 -0.0038 -0.3345  0.2565
   80MOL   C36040018   2.242   4.676   6.603  0.2253  0.1880  0.0699
   80MOL   H36140019   2.284   5.760   6.745  3.2588  0.4915  0.6575
   80MOL   H36240020   2.370   5.630   6.812 -0.3516 -2.2389  0.1300
   80MOL   H36340021   2.184   5.581   6.576 -2.1463 -2.5273  0.3043
   80MOL   H36440022   2.295   5.334   6.494  1.3426  1.0179  0.5838
   80MOL   H36540023   2.132   5.351   6.561  0.0912 -2.2430 -1.3295
   80MOL   H36640024   2.208   5.198   6.753 -0.0822 -0.8699  0.2446
   80MOL   H36740025   2.357   5.158   6.663 -0.0770 -1.4611 -2.4163
   80MOL   H36840026   2.076   5.072   6.598 -0.7731 -0.6131 -2.4928
   80MOL   H36940027   2.198   5.072   6.474  0.3473 -1.9827  0.4299
   80MOL   H37040028   2.334   4.930   6.638  0.2107 -2.9063  3.2433
   80MOL   H37140029   2.198   4.920   6.747  0.2520 -0.5357 -0.3524
   80MOL   H37240030   2.063   4.781   6.601 -1.0837 -0.1850 -3.1102
   80MOL   H37340031   2.167   4.811   6.463  0.0938 -1.4559  0.1330
   80MOL   H37440032   2.348   4.676   6.579 -0.2092 -1.1727 -2.0971
   80MOL   H37540033   2.226   4.647   6.707 -1.2006 -2.4311 -0.8259
   80MOL   H37640034   2.199   4.592   6.548 -1.2745  1.3596 -0.5901
   80MOL   C37740035   2.399   5.589   6.545  0.8138  0.7127  0.5993
   80MOL   C37840036   2.402   5.725   6.471 -1.1776 -0.2632 -0.5592
   80MOL   O37940037   2.318   5.691   6.359 -0.1579  0.1732 -0.3569
   80MOL   C38040038   2.227   5.792   6.306 -0.0772  0.1778 -0.0575
   80MOL   C38140039   2.105   5.812   6.392  0.0269 -0.2611 -0.4118
   80MOL   C38240040   2.000   5.905   6.328 -0.1826  0.1037 -0.0629
   80MOL   C38340041   1.869   5.916   6.401 -0.0805 -0.0156  0.6864
   80MOL   C38440042   1.764   6.016   6.347 -0.7498 -0.0100  0.3039
   80MOL   C38540043   1.643   6.004   6.437  0.3538 -0.2237  0.4793
   80MOL   H38640044   2.487   5.562   6.604  0.3833 -1.0499  0.4443
   80MOL   H38740045   2.401   5.510   6.470 -2.9206  0.4159  0.7231
   80MOL   H38840046   2.355   5.805   6.527  1.2333 -1.2475  3.0501
   80MOL   H38940047   2.214   5.755   6.204 -0.8342 -1.7339  0.7269
   80MOL   H39040048   2.276   5.890   6.296  1.0428 -0.3365  0.2757
   80MOL   H39140049   2.132   5.842   6.494 -1.5439 -0.7681  0.1681
   80MOL   H39240050   2.055   5.717   6.411  1.3854 -1.3392 -2.0763
   80MOL   H39340051   2.032   6.008   6.312 -0.4194  0.6081  2.5775
   80MOL   H39440052   1.979   5.873   6.226  1.7960 -0.2165 -0.3735
   80MOL   H39540053   1.827   5.816   6.406 -1.4359  0.5140  0.1071
   80MOL   H39640054   1.884   5.940   6.506 -1.4398 -2.3105  1.4293
   80MOL   H39740055   1.812   6.114   6.357  0.5584 -0.6319  0.3064
   80MOL   H39840056   1.742   5.993   6.243 -0.1850  0.5521  0.0567
   80MOL   H39940057   1.609   5.901   6.445  0.8163 -0.3228  1.2581
   80MOL   H40040058   1.662   6.038   6.539  1.7243  0.5297 -0.0091
   80MOL   H40140059   1.567   6.074   6.402  0.3380  0.0398  1.0357
   80MOL   C40240060   2.549   5.758   6.415 -0.0904 -0.0879  0.2937
   80MOL   C40340061   2.633   5.817   6.523 -0.5969 -0.9042  0.3201
   80MOL   O40440062   2.574   5.934   6.570 -0.6243 -0.4018  0.8729
   80MOL   C40540063   2.565   5.941   6.713 -0.6307  0.2332  0.0532
   80MOL   C40640064   2.482   6.065   6.746  0.0479 -0.2809  0.0470
   80MOL   C40740065   2.330   6.041   6.750  0.3435 -0.2538  0.1678
   80MOL   C40840066   2.242   6.165   6.726 -0.0443 -0.7173  0.1158
   80MOL   C40940067   2.095   6.141   6.700 -0.6147 -0.7660  1.2490
   80MOL   C41040068   2.017   6.133   6.833  0.7816  0.1051  0.3138
   80MOL   H41140069   2.542   5.813   6.321 -2.6630 -1.7992 -0.5762
   80MOL   H41240070   2.597   5.661   6.402  0.9498  0.2725  1.3295
   80MOL   H41340071   2.627   5.743   6.603 -1.1860 -0.8797  0.3010
   80MOL   H41440072   2.657   5.947   6.771 -1.4458  0.5565  1.3391
   80MOL   H41540073   2.522   5.849   6.753 -1.1275  0.1742 -0.6034
   80MOL   H41640074   2.504   6.141   6.672  1.4073 -1.2951 -0.6145
   80MOL   H41740075   2.523   6.093   6.844  2.6621  0.1773 -1.1288
   80MOL   H41840076   2.322   5.971   6.667  1.2820 -1.7907  1.3384
   80MOL   H41940077   2.290   5.997   6.842 -0.0583  0.3078  0.2621
   80MOL   H42040078   2.258   6.243   6.801  0.1592 -0.3978 -0.2577
   80MOL   H42140079   2.286   6.204   6.634  1.2563 -0.0703  1.0013
   80MOL   H42240080   2.066   6.230   6.643  3.9789 -0.7800 -1.3903
   80MOL   H42340081   2.081   6.055   6.635  3.7906 -1.6247  1.2959
   80MOL   H42440082   1.914   6.121   6.802  1.1053 -1.9309 -0.0291
   80MOL   H42540083   2.050   6.056   6.903 -0.0499  0.3982  1.0472
   80MOL   H42640084   2.023   6.228   6.885 -1.4011  1.4457 -1.7764
   80MOL   C42740085   2.780   5.842   6.485 -0.6259  0.0361  0.5568
   80MOL   C42840086   2.884   5.743   6.550 -0.3003  0.6495 -0.4762
   80MOL   O42940087   2.854   5.608   6.525 -0.0066  0.2240  0.0376
   80MOL   C43040088   2.863   5.511   6.627  0.2046  0.5320 -0.6174
   80MOL   C43140089   2.849   5.374   6.560 -0.0840 -0.1778  0.3367
   80MOL   C43240090   2.697   5.344   6.523  0.3163 -0.7699  0.6628
   80MOL   C43340091   2.691   5.227   6.423 -0.0331  0.6587 -0.5239
   80MOL   C43440092   2.546   5.181   6.403  0.4237  0.5051 -0.5860
   80MOL   C43540093   2.526   5.060   6.306 -0.2476 -0.0544 -0.0295
   80MOL   H43640094   2.791   5.816   6.380  0.7656 -2.1287  1.2082
   80MOL   H43740095   2.809   5.946   6.504 -0.6234 -0.1101  1.3839
   80MOL   H43840096   2.886   5.760   6.657  0.3946  1.9549 -0.6781
   80MOL   H43940097   2.771   5.519   6.685  0.1642 -1.8244 -0.2969
   80MOL   H44040098   2.943   5.532   6.698  1.3080 -0.6789 -1.4685
   80MOL   H44140099   2.900   5.287   6.602 -1.1272 -0.3557  1.2631
   80MOL   H44240100   2.907   5.399   6.472  1.3424  0.9412  1.5558
   80MOL   H44340101   2.647   5.321   6.617 -4.9160  0.9976 -1.5447
   80MOL   H44440102   2.657   5.438   6.485  2.9278  0.2548  0.3080
   80MOL   H44540103   2.738   5.252   6.328 -2.3490  1.0253 -1.6111
   80MOL   H44640104   2.751   5.146   6.464 -2.5475 -0.4527  1.0381
   80MOL   H44740105   2.514   5.140   6.499 -2.3806  0.9718 -1.2915
   80MOL   H44840106   2.490   5.267   6.368  0.9060  0.9305 -0.3242
   80MOL   H44940107   2.579   4.973   6.343  0.4761  0.4198  0.0661
   80MOL   H45040108   2.423   5.033   6.287 -0.6260  0.1176  1.6948
   80MOL   H45140109   2.579   5.082   6.213  0.4936 -2.5520 -0.2366
   80MOL   C45240110   3.030   5.770   6.502 -0.1357  0.4275  0.0937
   80MOL   C45340111   3.144   5.692   6.571  0.7561 -0.0476 -0.7202
   80MOL   O45440112   3.135   5.735   6.710  0.6148 -0.2445 -0.0251
   80MOL   C45540113   3.197   5.647   6.804  0.6147  0.4818 -0.4370
   80MOL   C45640114   3.172   5.715   6.940 -0.4519 -0.3494  0.1836
   80MOL   C45740115   3.237   5.640   7.051 -0.1026  0.2455  0.0595
   80MOL   C45840116   3.224   5.707   7.185 -0.3442  1.0438  0.6335
   80MOL   C45940117   3.310   5.628   7.281 -0.5931 -0.6593  0.1358
   80MOL   C46040118   3.306   5.669   7.426  0.0075 -0.5526 -0.1660
   80MOL   H46140119   3.036   5.764   6.393  2.1680  0.5677  0.1745
   80MOL   H46240120   3.061   5.872   6.525 -0.9437  0.4500  1.0948
   80MOL   H46340121   3.131   5.585   6.555 -0.3820  0.2936 -2.2238
   80MOL   H46440122   3.304   5.657   6.788  0.9732 -2.0276  0.0804
   80MOL   H46540123   3.163   5.544   6.787 -0.4603  0.5569  1.1876
   80MOL   H46640124   3.067   5.740   6.956 -0.6287  1.0193 -2.7721
   80MOL   H46740125   3.219   5.813   6.938  0.2937 -0.6724  1.2398
   80MOL   H46840126   3.182   5.546   7.060  2.2582 -1.0088  2.1500
   80MOL   H46940127   3.341   5.624   7.023  0.8356  1.9048  2.3723
   80MOL   H47040128   3.256   5.810   7.173  0.2567  0.9275  1.2410
   80MOL   H47140129   3.120   5.700   7.217  0.0773 -0.8455  1.6375
   80MOL   H47240130   3.278   5.524   7.280  0.0540 -0.8814  1.1315
   80MOL   H47340131   3.412   5.623   7.243 -1.2630 -0.9999 -1.6428
   80MOL   H47440132   3.356   5.759   7.460 -0.1250 -0.3338 -0.5462
   80MOL   H47540133   3.210   5.688   7.474  0.0565  0.1739 -0.3593
   80MOL   H47640134   3.358   5.600   7.493  1.8051 -0.1682 -1.1346
   80MOL   C47740135   3.285   5.733   6.522 -0.1755 -0.3490  0.1804
   80MOL   C47840136   3.298   5.756   6.368 -0.1220  0.5844 -0.4383
   80MOL   O47940137   3.433   5.750   6.315  0.6309 -0.2016 -0.1842
   80MOL   C48040138   3.445   5.811   6.189  0.2024  0.1625  0.0081
   80MOL   C48140139   3.510   5.715   6.089  0.2032 -0.0399  0.1179
   80MOL   C48240140   3.577   5.777   5.963 -0.0699  0.6490 -0.9363
   80MOL   C48340141   3.594   5.662   5.858  0.1308  0.3857 -0.3215
   80MOL   C48440142   3.699   5.551   5.907 -0.2994 -0.4047  0.0065
   80MOL   C48540143   3.718   5.449   5.792  0.5244  0.1895  0.7122
   80MOL   H48640144   3.321   5.820   6.577 -1.1771  2.1469 -2.9455
   80MOL   H48740145   3.357   5.654   6.543 -0.0814 -0.4977 -0.6652
   80MOL   H48840146   3.255   5.669   6.319  2.7430 -1.2712  0.2520
   80MOL   H48940147   3.510   5.897   6.205  0.0671  0.3227 -0.3025
   80MOL   H49040148   3.352   5.851   6.147  0.3542  1.8898  1.2366
   80MOL   H49140149   3.426   5.654   6.057  1.3040 -1.3607 -0.3247
   80MOL   H49240150   3.576   5.643   6.137 -1.5482 -2.1072 -0.5000
   80MOL   H49340151   3.523   5.858   5.913  1.5233  0.8954 -2.3133
   80MOL   H49440152   3.677   5.814   5.984  0.8412 -1.4951 -1.4049
   80MOL   H49540153   3.500   5.614   5.830  0.9872 -1.2591 -0.3894
   80MOL   H49640154   3.630   5.701   5.763  0.9666 -0.0699 -0.1907
   80MOL   H49740155   3.792   5.606   5.925 -1.4770  1.3281  0.9946
   80MOL   H49840156   3.668   5.500   5.998 -0.4021 -0.9057 -0.3125
   80MOL   H49940157   3.780   5.480   5.708 -2.3320  1.5574 -0.9320
   80MOL   H50040158   3.764   5.354   5.818 -0.0527 -0.3220 -0.1465
   80MOL   H50140159   3.618   5.433   5.753 -0.0061  1.1466  1.6278
   80MOL   H50240160   3.254   5.853   6.346  0.7587  0.9487 -0.6119
   81MOL     C140161   5.550   7.166   4.121 -1.0952  0.3670  0.4210
   81MOL     C240162   5.424   7.191   4.206  0.3183  0.5110 -0.4297
   81MOL     O340163   5.323   7.230   4.113  0.2617  0.1127 -0.2609
   81MOL     C440164   5.245   7.125   4.050 -0.6494 -0.1722 -0.1562
   81MOL     C540165   5.182   7.179   3.927  0.4186 -0.0366 -0.2037
   81MOL     C640166   5.081   7.088   3.854 -0.5646 -0.4306 -0.3611
   81MOL     C740167   5.002   7.150   3.746 -0.1699 -0.5273  0.8075
   81MOL     C840168   4.905   7.258   3.796 -0.1558  0.2678  0.3160
   81MOL     C940169   4.842   7.339   3.683 -0.0630  0.7218 -0.4460
   81MOL    H1040170   5.622   7.247   4.113  1.8518 -2.1581  0.0574
   81MOL    H1140171   5.606   7.096   4.184 -0.6477  0.4804  0.1584
   81MOL    H1240172   5.390   7.097   4.250 -2.6114  1.4140 -0.6321
   81MOL    H1340173   5.171   7.086   4.120  1.8472 -0.3155  2.5610
   81MOL    H1440174   5.313   7.042   4.030  1.0374  1.2029 -0.3027
   81MOL    H1540175   5.257   7.215   3.857  1.2976  1.8051  1.6486
   81MOL    H1640176   5.122   7.266   3.951 -0.4099  0.5290 -3.9764
   81MOL    H1740177   5.140   7.007   3.813  1.9623  0.8739  0.5609
   81MOL    H1840178   5.015   7.037   3.924  0.3232  0.3306  1.0780
   81MOL    H1940179   5.081   7.198   3.689 -2.3280 -0.3795 -2.1621
   81MOL    H2040180   4.946   7.080   3.685 -0.4046  1.1836 -1.0050
   81MOL    H2140181   4.952   7.327   3.866 -0.1756 -0.4558  1.0449
   81MOL    H2240182   4.829   7.209   3.856 -0.3365 -0.5535 -0.5850
   81MOL    H2340183   4.746   7.374   3.722  0.3210  1.8959 -0.5239
   81MOL    H2440184   4.905   7.427   3.667 -0.3876  1.0023 -0.1974
   81MOL    H2540185   4.844   7.284   3.589  0.5744 -0.6478  0.3546
   81MOL    H2640186   5.533   7.136   4.017  1.0541  0.0854  0.1067
   81MOL    C2740187   5.440   7.295   4.317  0.3804 -0.0030  0.8306
   81MOL    C2840188   5.307   7.331   4.388  0.3017 -0.7779  0.1435
   81MOL    O2940189   5.283   7.219   4.479  1.0185 -0.1465 -0.2111
   81MOL    C3040190   5.184   7.117   4.449 -0.0253  0.1334  0.0783
   81MOL    C3140191   5.151   7.035   4.570  0.3578  0.2946  0.0389
   81MOL    C3240192   5.071   6.910   4.523  0.5552  0.1445 -0.4128
   81MOL    C3340193   5.018   6.835   4.646 -0.2282  0.0297  0.1097
   81MOL    C3440194   4.949   6.701   4.619 -0.3365  0.7246 -0.2624
   81MOL    C3540195   4.895   6.636   4.742  0.3475 -0.2361 -0.4460
   81MOL    H3640196   5.511   7.245   4.382 -1.7042 -0.4142  2.8674
   81MOL    H3740197   5.481   7.383   4.267 -1.8054 -0.1461 -1.2749
   81MOL    H3840198   5.225   7.346   4.318 -0.2404 -2.8810  0.2909
   81MOL    H3940199   5.214   7.053   4.366 -3.4245 -0.4243 -0.7901
   81MOL    H4040200   5.088   7.157   4.416 -1.6085 -3.5898 -0.1293
   81MOL    H4140201   5.089   7.093   4.639  0.8054  0.1562  0.5652
   81MOL    H4240202   5.238   7.002   4.627 -0.9179 -1.7359  0.8804
   81MOL    H4340203   4.983   6.936   4.464 -1.0932 -4.1644 -0.0375
   81MOL    H4440204   5.135   6.846   4.462 -0.2599  1.0854 -2.2772
   81MOL    H4540205   5.099   6.821   4.719 -0.4045 -0.8248  0.1499
   81MOL    H4640206   4.944   6.903   4.686  0.1980  1.0331 -0.7883
   81MOL    H4740207   4.860   6.715   4.559 -1.2827  0.7871  1.1462
   81MOL    H4840208   5.011   6.633   4.561 -2.4271  0.1517 -1.8797
   81MOL    H4940209   4.967   6.623   4.823 -1.2911 -0.6741  0.9711
   81MOL    H5040210   4.815   6.698   4.782  0.7878  0.5004 -0.7060
   81MOL    H5140211   4.851   6.539   4.721  0.7333 -0.1318 -1.7691
   81MOL    C5240212   5.319   7.457   4.484 -0.5187 -0.0716 -0.0450
   81MOL    C5340213   5.200   7.487   4.584  0.4598 -0.1211  0.5348
   81MOL    O5440214   5.254   7.526   4.711  0.4272  0.6834  0.2835
   81MOL    C5540215   5.272   7.414   4.799  0.0243  0.2634 -0.1246
   81MOL    C5640216   5.311   7.455   4.944  0.4785  0.5395  0.1548
   81MOL    C5740217   5.188   7.529   5.008 -0.1431  0.4545 -0.3900
   81MOL    C5840218   5.209   7.548   5.162 -0.0364  0.1097  0.2279
   81MOL    C5940219   5.091   7.616   5.229  0.0893 -0.8103 -0.7233
   81MOL    C6040220   4.969   7.525   5.254  0.5715  0.2716 -0.2072
   81MOL    H6140221   5.333   7.548   4.425 -1.1883 -0.6942 -1.1918
   81MOL    H6240222   5.408   7.446   4.546 -0.2359  1.8168 -0.0948
   81MOL    H6340223   5.145   7.395   4.604 -1.0431  0.4500 -0.8743
   81MOL    H6440224   5.353   7.358   4.753  1.3217  0.4017  1.9080
   81MOL    H6540225   5.185   7.348   4.794 -2.3633  3.3979 -2.1012
   81MOL    H6640226   5.405   7.509   4.940 -0.5871  2.4337 -0.0860
   81MOL    H6740227   5.329   7.365   5.002 -0.3829  0.6973  0.6824
   81MOL    H6840228   5.159   7.618   4.953 -3.2134 -0.2026  0.1168
   81MOL    H6940229   5.103   7.463   4.992  0.7861 -0.8817  0.0853
   81MOL    H7040230   5.228   7.447   5.199 -3.5032 -1.1480 -1.2074
   81MOL    H7140231   5.297   7.611   5.176  0.9087 -1.1459  0.0500
   81MOL    H7240232   5.112   7.650   5.331  2.3379 -0.0158 -1.4300
   81MOL    H7340233   5.072   7.710   5.176  3.2387  0.7907  0.8683
   81MOL    H7440234   5.001   7.426   5.287 -1.3662  0.3095  1.9394
   81MOL    H7540235   4.914   7.552   5.345 -0.8517 -1.0132 -0.6552
   81MOL    H7640236   4.909   7.506   5.165  0.6485  0.9428 -0.4081
   81MOL    C7740237   5.092   7.579   4.519  0.4528 -0.6210 -0.1277
   81MOL    C7840238   4.954   7.581   4.586  0.2808  0.4101  0.6349
   81MOL    O7940239   4.855   7.647   4.511 -0.0795 -0.1005 -0.0936
   81MOL    C8040240   4.789   7.564   4.418  0.9120 -0.0137  0.1926
   81MOL    C8140241   4.682   7.653   4.334  0.2684  0.6253 -0.5105
   81MOL    C8240242   4.581   7.566   4.254 -0.4895 -0.4465 -0.1613
   81MOL    C8340243   4.452   7.639   4.217  0.6373 -0.1002  0.2624
   81MOL    C8440244   4.474   7.754   4.122 -0.0450 -0.2098  0.4942
   81MOL    C8540245   4.334   0.024   4.079  0.0918  0.0226  0.7520
   81MOL    H8640246   5.073   7.562   4.413 -1.0103  0.4185 -0.0587
   81MOL    H8740247   5.126   7.683   4.523 -3.2048  0.7312 -1.6978
   81MOL    H8840248   4.926   7.476   4.597 -0.0303  0.4229 -0.0152
   81MOL    H8940249   4.736   7.490   4.478  2.0184 -0.6532  0.3863
   81MOL    H9040250   4.856   7.510   4.352  1.7811 -0.1125  1.1391
   81MOL    H9140251   4.733   7.715   4.260  1.8199 -2.4300 -2.0929
   81MOL    H9240252   4.638   7.723   4.405  1.6281  1.3383 -0.3384
   81MOL    H9340253   4.635   7.523   4.169  0.5018 -0.4217  0.4440
   81MOL    H9440254   4.553   7.482   4.317 -1.9770  0.7563  0.8347
   81MOL    H9540255   4.393   7.559   4.172  0.3146  0.5195 -0.4402
   81MOL    H9640256   4.403   7.685   4.303 -2.0812  1.7982 -2.1524
   81MOL    H9740257   4.519   0.059   4.178  0.2203  0.7711 -1.1581
   81MOL    H9840258   4.540   7.732   4.039 -0.0245 -1.2304  0.7714
   81MOL    H9940259   4.288   0.096   4.147  1.3109 -0.0927  1.7109
   81MOL   H10040260   4.336   0.074   3.982 -0.5881 -1.2044  0.0928
   81MOL   H10140261   4.266   7.718   4.076  2.0459 -1.5587 -0.6806
   81MOL   C10240262   4.952   7.653   4.721 -0.7202  0.0362  0.0543
   81MOL   C10340263   4.830   7.605   4.810  0.2281 -0.3216 -0.1285
   81MOL   O10440264   4.858   7.466   4.835 -0.0962  0.3024  0.4416
   81MOL   C10540265   4.753   7.373   4.800  0.0617 -0.3121 -0.0859
   81MOL   C10640266   4.813   7.231   4.818  0.4518  0.9357  0.0111
   81MOL   C10740267   4.704   7.115   4.818  0.4954  0.6254 -0.1247
   81MOL   C10840268   4.634   7.102   4.964  0.6315  0.1155  0.5554
   81MOL   C10940269   4.524   7.005   4.953 -0.5596 -0.2997 -0.8661
   81MOL   C11040270   4.464   6.978   5.092  0.3947  0.6779  0.1291
   81MOL   H11140271   5.038   7.636   4.786 -0.5814  1.2917  0.2096
   81MOL   H11240272   4.944   7.760   4.704 -0.1457  0.2172  0.9003
   81MOL   H11340273   4.741   7.614   4.748  1.1065 -1.3639 -1.5921
   81MOL   H11440274   4.721   7.379   4.696  1.5885  0.5960 -0.5132
   81MOL   H11540275   4.663   7.399   4.857  0.2843  0.1862  0.0407
   81MOL   H11640276   4.886   7.219   4.899  2.7858  1.1553 -1.9847
   81MOL   H11740277   4.875   7.214   4.730  2.4164  2.3367  1.0910
   81MOL   H11840278   4.624   7.138   4.748  0.9677 -0.9578 -1.2232
   81MOL   H11940279   4.753   7.024   4.783  0.8998  0.7630  0.0691
   81MOL   H12040280   4.704   7.063   5.038  0.6393 -0.2571  0.3499
   81MOL   H12140281   4.605   7.200   5.002  0.9651  1.1289 -1.7120
   81MOL   H12240282   4.444   7.025   4.881 -0.6023  1.7021 -0.2860
   81MOL   H12340283   4.578   6.917   4.917 -0.6604 -0.6638 -0.1194
   81MOL   H12440284   4.370   6.924   5.081  1.1163 -0.4708 -0.5127
   81MOL   H12540285   4.527   6.904   5.141 -1.7142 -1.9685 -1.0284
   81MOL   H12640286   4.442   7.056   5.164  0.2756 -1.0937  2.0527
   81MOL   C12740287   4.824   7.691   4.938  0.2955 -0.3874 -0.2429
   81MOL   C12840288   4.705   7.677   5.032  0.0861  0.3602  0.6839
   81MOL   O12940289   4.596   7.752   4.977 -0.3355 -0.3120  0.5430
   81MOL   C13040290   4.485   7.680   4.933  0.3229 -0.1163  0.5368
   81MOL   C13140291   4.377   0.015   4.910 -0.4512  0.0345 -0.1319
   81MOL   C13240292   4.405   0.085   4.777 -0.2177 -0.3086 -0.2863
   81MOL   C13340293   4.307   0.198   4.748  0.1091  0.6556  0.3957
   81MOL   C13440294   4.340   0.255   4.610  0.5980 -0.0583 -0.2335
   81MOL   C13540295   4.476   0.336   4.602  0.0717 -0.1828  0.6408
   81MOL   H13640296   4.915   7.661   4.989  1.1201 -0.4997 -1.7570
   81MOL   H13740297   4.841   0.019   4.921  0.0623 -0.5807 -1.7405
   81MOL   H13840298   4.675   7.573   5.048  0.5858 -0.1463 -1.4601
   81MOL   H13940299   4.471   7.604   5.010  0.3147 -0.0396  0.6099
   81MOL   H14040300   4.505   7.621   4.843  0.7587  0.5659  0.1824
   81MOL   H14140301   4.379   0.080   4.998 -0.4071 -2.1082  1.5004
   81MOL   H14240302   4.277   7.749   4.905 -0.4207  0.0032 -0.4692
   81MOL   H14340303   4.509   0.118   4.782 -0.3161  0.9070 -4.6012
   81MOL   H14440304   4.413   0.007   4.701  0.3253 -0.6493  0.1119
   81MOL   H14540305   4.208   0.156   4.768 -0.0401  0.7275 -0.1850
   81MOL   H14640306   4.331   0.276   4.821  3.3095 -1.4170  1.6193
   81MOL   H14740307   4.349   0.175   4.537 -0.4009  0.4134 -0.8780
   81MOL   H14840308   4.260   0.322   4.579 -1.8133 -2.5733  0.3659
   81MOL   H14940309   4.556   0.261   4.597 -0.9119 -1.2447  0.6729
   81MOL   H15040310   4.496   0.391   4.511  0.1459  0.2589  0.9241
   81MOL   H15140311   4.493   0.401   4.688 -0.6675  0.4525  0.3055
   81MOL   C15240312   4.727   7.752   5.165 -0.5981 -0.3362  0.2919
   81MOL   C15340313   4.619   7.731   5.271  0.8530  0.0657 -0.0494
   81MOL   O15440314   4.641   7.592   5.301  0.1744  1.1398 -0.4955
   81MOL   C15540315   4.529   7.513   5.337 -0.1799 -0.0333 -0.0533
   81MOL   C15640316   4.572   7.371   5.383  0.4720  0.0057  0.1804
   81MOL   C15740317   4.645   7.298   5.272 -0.1769 -0.2894 -0.0797
   81MOL   C15840318   4.720   7.165   5.303  0.0446 -0.2884  0.0320
   81MOL   C15940319   4.819   7.174   5.419 -0.8923 -0.4244 -0.2076
   81MOL   C16040320   4.909   7.051   5.421 -0.8841  0.4494 -0.0430
   81MOL   H16140321   4.825   7.719   5.199  0.6594  0.4701 -2.4098
   81MOL   H16240322   4.727   0.082   5.162  1.8586 -0.3379 -0.8029
   81MOL   H16340323   4.521   7.728   5.222  0.7469 -1.4886  0.2209
   81MOL   H16440324   4.457   7.503   5.256 -0.3147  1.4833 -0.1246
   81MOL   H16540325   4.475   7.549   5.424  0.0984 -0.2373  0.2061
   81MOL   H16640326   4.473   7.330   5.406  0.6848 -1.0206 -0.6827
   81MOL   H16740327   4.632   7.372   5.474 -0.6734 -0.9532  0.9625
   81MOL   H16840328   4.567   7.288   5.197 -0.5794  2.6583 -0.1203
   81MOL   H16940329   4.714   7.370   5.227 -0.8030 -0.9289 -2.1014
   81MOL   H17040330   4.659   7.079   5.328  1.7964 -1.5319  0.1121
   81MOL   H17140331   4.775   7.127   5.217  3.0056  0.1431  1.6840
   81MOL   H17240332   4.892   7.253   5.402  0.2345 -1.3087  0.4030
   81MOL   H17340333   4.781   7.199   5.518  2.4310 -0.4181  1.1501
   81MOL   H17440334   4.844   6.964   5.436  1.6577 -1.6135 -0.7816
   81MOL   H17540335   4.959   7.030   5.327 -2.1046  0.0808 -0.6216
   81MOL   H17640336   4.983   7.046   5.501 -0.6997  2.1053 -0.0898
   81MOL   C17740337   4.641   0.040   5.399  0.0870 -0.1563 -0.0524
   81MOL   C17840338   4.645   0.197   5.392 -0.2783 -0.0063  0.9131
   81MOL   O17940339   4.538   0.254   5.320 -0.4561 -0.1249 -0.6671
   81MOL   C18040340   4.561   0.343   5.207  0.5438 -0.2447  0.3533
   81MOL   C18140341   4.431   0.393   5.159 -0.4990  0.2480 -0.4097
   81MOL   C18240342   4.361   0.483   5.260  0.6009 -0.2030 -0.4164
   81MOL   C18340343   4.225   0.536   5.220  0.5008 -0.4612 -0.2219
   81MOL   C18440344   4.144   0.596   5.337  0.4852 -0.2295  0.0090
   81MOL   C18540345   4.001   0.619   5.281  0.4563  0.1977  0.2743
   81MOL   H18640346   4.554   0.016   5.461 -0.2159 -0.4465 -0.5846
   81MOL   H18740347   4.726   7.778   5.455  1.1766  1.6092 -0.4147
   81MOL   H18840348   4.732   0.234   5.339 -0.7014  2.5779  1.9423
   81MOL   H18940349   4.615   0.291   5.128  0.2421  0.6606 -0.4602
   81MOL   H19040350   4.637   0.418   5.231 -0.3226  0.8614 -0.3666
   81MOL   H19140351   4.367   0.314   5.119 -0.4358 -0.1723  0.3238
   81MOL   H19240352   4.456   0.446   5.067  0.4377 -2.8406 -2.0303
   81MOL   H19340353   4.344   0.412   5.340 -1.0981 -0.8419 -1.3242
   81MOL   H19440354   4.434   0.563   5.277  1.3752 -1.1705  0.9070
   81MOL   H19540355   4.240   0.604   5.136 -0.7815 -1.3081 -1.1440
   81MOL   H19640356   4.165   0.464   5.164  0.3366  0.3663 -1.1283
   81MOL   H19740357   4.149   0.525   5.420 -1.3231 -1.9897 -1.3467
   81MOL   H19840358   4.188   0.694   5.360 -2.2723  1.4975 -1.7982
   81MOL   H19940359   3.942   0.687   5.342 -0.3912 -0.4694  0.2021
   81MOL   H20040360   3.998   0.635   5.173 -2.1705 -2.3128 -0.1041
   81MOL   H20140361   3.937   0.531   5.293  0.3766  0.0799 -0.8924
   81MOL   C20240362   4.656   0.251   5.538 -0.2729  0.0789 -0.4849
   81MOL   C20340363   4.801   0.288   5.584  0.5678  0.0423  0.0291
   81MOL   O20440364   4.845   0.403   5.507 -0.4988  0.1127  0.2859
   81MOL   C20540365   4.864   0.518   5.583  0.3770  0.0877  0.1127
   81MOL   C20640366   4.892   0.634   5.480  0.1704  0.4367 -0.6306
   81MOL   C20740367   4.925   0.763   5.556  0.2754  0.6882  0.3910
   81MOL   C20840368   4.983   0.867   5.461 -0.2180  0.1875 -0.2425
   81MOL   C20940369   4.992   1.014   5.516 -0.9241  0.3283 -0.0385
   81MOL   C21040370   4.852   1.067   5.544  0.0333  0.2716 -0.2686
   81MOL   H21140371   4.608   0.349   5.528 -3.1953 -1.0277  1.8614
   81MOL   H21240372   4.595   0.193   5.607 -1.1297 -0.7161 -1.8881
   81MOL   H21340373   4.793   0.325   5.687  0.0219 -1.0978  0.3966
   81MOL   H21440374   4.942   0.506   5.659 -0.9177  0.9689  1.5972
   81MOL   H21540375   4.772   0.549   5.631  0.1559  1.6912 -1.2870
   81MOL   H21640376   4.815   0.646   5.404 -1.5752 -0.2864  0.9858
   81MOL   H21740377   4.987   0.600   5.439  0.3899  1.2012 -0.7730
   81MOL   H21840378   4.838   0.793   5.614 -1.3945  1.6291 -2.5080
   81MOL   H21940379   4.997   0.740   5.635 -0.1496 -2.2472 -0.0013
   81MOL   H22040380   5.072   0.829   5.412 -0.9844 -1.4675 -0.4185
   81MOL   H22140381   4.905   0.886   5.387  0.6704  0.5631 -1.0768
   81MOL   H22240382   5.051   1.020   5.608 -2.5433  1.2305  0.9646
   81MOL   H22340383   5.051   1.076   5.449 -1.0737  0.0500 -0.4253
   81MOL   H22440384   4.801   1.090   5.450  1.8253  0.3162 -1.2569
   81MOL   H22540385   4.780   1.003   5.595  2.0423 -1.6730  0.1850
   81MOL   H22640386   4.860   1.167   5.587 -0.1949 -0.2889  1.1087
   81MOL   C22740387   4.908   0.167   5.573  0.2616 -0.2126 -0.4165
   81MOL   C22840388   5.024   0.175   5.665 -0.5554  0.0985 -0.8185
   81MOL   O22940389   4.986   0.118   5.791  0.3117  0.1076  0.2181
   81MOL   C23040390   5.048   0.172   5.899  0.5076 -0.2139 -0.2041
   81MOL   C23140391   5.020   0.098   6.027  0.0291 -0.4922 -1.1219
   81MOL   C23240392   5.066   7.730   6.029 -0.3485 -0.8199  0.0421
   81MOL   C23340393   5.046   7.666   6.170 -0.2646 -0.0004  0.4809
   81MOL   C23440394   5.099   7.520   6.189 -0.1344 -0.7378  0.4649
   81MOL   C23540395   4.991   7.421   6.146 -0.0022  0.2109 -0.6533
   81MOL   H23640396   4.848   0.082   5.605 -0.0196  1.0152  2.4537
   81MOL   H23740397   4.950   0.148   5.474 -0.5513  1.2370 -1.0505
   81MOL   H23840398   5.065   0.275   5.675 -0.5713  0.0972 -0.7398
   81MOL   H23940399   5.024   0.278   5.894  1.5762  0.1037  1.1571
   81MOL   H24040400   5.155   0.168   5.881  0.4793  0.5597 -0.5871
   81MOL   H24140401   4.914   0.110   6.047 -0.6553  0.3011 -4.8701
   81MOL   H24240402   5.071   0.153   6.107 -0.8227  0.8404 -1.4774
   81MOL   H24340403   5.027   7.673   5.944  2.1292 -1.7235 -0.5544
   81MOL   H24440404   5.174   7.725   6.010 -0.1731 -1.0914  1.1164
   81MOL   H24540405   5.087   7.732   6.246  1.3905  2.5538 -2.5133
   81MOL   H24640406   4.939   7.667   6.188 -0.7272  1.1634 -2.0771
   81MOL   H24740407   5.199   7.505   6.149 -0.0832  1.5619 -0.3617
   81MOL   H24840408   5.101   7.505   6.297  0.9588 -2.9064  0.1670
   81MOL   H24940409   4.895   7.456   6.185 -0.3678  0.6565 -1.9247
   81MOL   H25040410   4.984   7.395   6.040  2.4468  2.1910 -1.3432
   81MOL   H25140411   4.996   7.319   6.185  0.7527  0.5138  0.0453
   81MOL   C25240412   5.139   0.082   5.621 -0.0255 -0.3938  0.9342
   81MOL   C25340413   5.252   0.150   5.538  0.0513 -0.3082 -0.1164
   81MOL   O25440414   5.193   0.196   5.422 -0.1913 -0.2503 -0.0670
   81MOL   C25540415   5.213   0.334   5.377 -0.1249  0.1085  0.0903
   81MOL   C25640416   5.168   0.351   5.226  0.1920 -0.0955 -0.1703
   81MOL   C25740417   5.027   0.304   5.213 -0.4474  0.0532 -0.2594
   81MOL   C25840418   4.999   0.283   5.068  0.2941 -0.8693 -0.2254
   81MOL   C25940419   5.026   0.397   4.971 -0.0179 -0.2702  0.3126
   81MOL   C26040420   4.954   0.362   4.829 -0.5096  0.0223 -0.2000
   81MOL   H26140421   5.191   0.042   5.708 -0.4974  0.6152  1.6884
   81MOL   H26240422   5.105   7.771   5.569  0.0868  0.9240 -1.4718
   81MOL   H26340423   5.309   0.224   5.593  0.3681 -0.4477 -0.2532
   81MOL   H26440424   5.316   0.371   5.381 -0.2519  0.6540 -1.2937
   81MOL   H26540425   5.147   0.396   5.438 -0.7818 -1.4105  0.9431
   81MOL   H26640426   5.235   0.288   5.167 -0.7455 -0.8364 -0.4708
   81MOL   H26740427   5.170   0.454   5.190 -0.5703 -0.1418 -0.3741
   81MOL   H26840428   5.012   0.211   5.268  2.3549  0.6140  1.5640
   81MOL   H26940429   4.952   0.374   5.252  0.1478 -0.4376  1.8402
   81MOL   H27040430   5.060   0.201   5.030  3.3168  1.2368 -0.1451
   81MOL   H27140431   4.894   0.256   5.068  0.1536 -0.3504 -0.9501
   81MOL   H27240432   4.992   0.493   5.012  1.6859  0.0513  1.0369
   81MOL   H27340433   5.134   0.407   4.955  0.4155 -3.7703  0.6510
   81MOL   H27440434   5.006   0.276   4.787 -0.6118  0.9327 -2.2301
   81MOL   H27540435   4.849   0.339   4.843 -1.2056  2.5277 -0.9862
   81MOL   H27640436   4.947   0.434   4.747 -1.3351 -0.5239 -0.6196
   81MOL   C27740437   5.361   0.042   5.503 -0.3711 -0.0675 -0.2492
   81MOL   C27840438   5.483   0.093   5.422  0.3780 -0.3251 -0.3609
   81MOL   O27940439   5.555   0.179   5.510 -0.5941  0.4201  0.5545
   81MOL   C28040440   5.662   0.245   5.446 -0.0358  0.2009  1.0255
   81MOL   C28140441   5.705   0.354   5.543  0.2860 -0.2047 -0.4567
   81MOL   C28240442   5.844   0.409   5.504  0.7442  0.2479 -0.0935
   81MOL   C28340443   5.907   0.531   5.578  0.4137 -0.0187  0.7608
   81MOL   C28440444   6.039   0.570   5.517  0.6406 -0.9462  0.3881
   81MOL   C28540445   6.092   0.688   5.597  0.5513 -0.0868  0.5515
   81MOL   H28640446   5.390   7.767   5.594 -0.9793  0.3241  0.1801
   81MOL   H28740447   5.306   7.748   5.444  1.7459  0.1915 -2.6034
   81MOL   H28840448   5.438   0.146   5.338  0.3648  1.5780  0.8258
   81MOL   H28940449   5.630   0.283   5.349  0.9116  0.2916  0.7518
   81MOL   H29040450   5.733   0.166   5.420  0.7744  2.1961 -3.2506
   81MOL   H29140451   5.721   0.307   5.641 -1.3295  2.9784  1.4190
   81MOL   H29240452   5.629   0.429   5.563  1.3853  0.2919  2.0411
   81MOL   H29340453   5.917   0.328   5.504 -0.6884 -1.0772 -0.4610
   81MOL   H29440454   5.829   0.424   5.397 -1.0113 -3.2656 -0.3967
   81MOL   H29540455   5.837   0.615   5.574 -1.2257 -1.3335  1.4695
   81MOL   H29640456   5.911   0.500   5.682  0.3217 -0.4536  0.6368
   81MOL   H29740457   6.109   0.486   5.525  1.9477 -0.2311 -3.0286
   81MOL   H29840458   6.045   0.597   5.412  0.0096  0.0194  0.5960
   81MOL   H29940459   6.183   0.730   5.553  0.4430 -0.4798 -0.0490
   81MOL   H30040460   6.027   0.775   5.590 -0.1701 -0.6694 -0.1045
   81MOL   H30140461   6.105   0.665   5.703 -2.1207 -1.1432  0.6932
   81MOL   C30240462   5.560   7.741   5.375  0.7060  0.3845  0.2388
   81MOL   C30340463   5.629   7.742   5.242  0.1589  0.4143 -0.2270
   81MOL   O30440464   5.525   7.750   5.146  0.1762 -0.1535  0.0008
   81MOL   C30540465   5.550   0.061   5.032 -0.1770 -0.2532 -0.9489
   81MOL   C30640466   5.440   0.024   4.933  0.3634  0.3432  0.2016
   81MOL   C30740467   5.399   0.143   4.843 -0.2967 -0.1031 -0.3087
   81MOL   C30840468   5.277   0.098   4.752 -0.0428  0.6478  0.2946
   81MOL   C30940469   5.251   0.211   4.646  0.0376  0.5405 -0.3379
   81MOL   C31040470   5.370   0.238   4.557 -0.4562 -0.5294  0.4571
   81MOL   H31140471   5.639   7.716   5.446 -0.1632  1.6873  1.6996
   81MOL   H31240472   5.494   7.654   5.378 -1.1559  1.7595  0.0953
   81MOL   H31340473   5.686   0.056   5.229  0.7366 -0.1148 -1.5369
   81MOL   H31440474   5.648   0.041   4.990 -0.4213 -2.7515 -0.4300
   81MOL   H31540475   5.540   0.166   5.059 -1.6821 -0.4905 -0.4925
   81MOL   H31640476   5.351   7.770   4.988  2.1419 -3.1090  1.2533
   81MOL   H31740477   5.467   7.716   4.872 -2.1371 -0.4931  0.2165
   81MOL   H31840478   5.368   0.228   4.904  1.4495  0.2994  0.0435
   81MOL   H31940479   5.483   0.174   4.782  0.3335  0.1180  0.6579
   81MOL   H32040480   5.309   0.007   4.702  0.1814  0.0396  1.5290
   81MOL   H32140481   5.182   0.072   4.798 -1.0212  1.3895 -1.2635
   81MOL   H32240482   5.171   0.180   4.579  0.0709 -0.0765 -0.0978
   81MOL   H32340483   5.225   0.302   4.699  0.5507 -0.0937  1.0349
   81MOL   H32440484   5.419   0.149   4.519 -1.2653 -0.7882  0.0039
   81MOL   H32540485   5.362   0.293   4.463  1.3533  1.5014  1.4438
   81MOL   H32640486   5.435   0.295   4.623  0.4399 -2.1004  0.9621
   81MOL   C32740487   5.718   7.611   5.213  0.0974 -0.2439  0.1597
   81MOL   C32840488   5.807   7.611   5.086 -0.0269 -0.0563  0.4579
   81MOL   O32940489   5.896   7.725   5.098 -0.0341 -0.3805  0.5490
   81MOL   C33040490   5.962   7.772   4.985 -0.3015 -0.2791  0.3725
   81MOL   C33140491   6.095   0.051   5.038  0.3459 -0.8693 -0.0666
   81MOL   C33240492   6.061   0.184   5.095  0.3732 -0.8935 -0.1201
   81MOL   C33340493   6.185   0.244   5.161  0.7527  0.1290  0.3940
   81MOL   C33440494   6.152   0.369   5.248 -0.2715 -0.2502 -0.0617
   81MOL   C33540495   6.282   0.437   5.282 -0.3101  1.3472 -0.0758
   81MOL   H33640496   5.654   7.522   5.207 -0.6722  0.3670 -0.9487
   81MOL   H33740497   5.787   7.608   5.297  1.7480  0.0022 -1.1750
   81MOL   H33840498   5.738   7.622   5.003 -0.0662 -3.3054  0.0147
   81MOL   H33940499   5.901   0.071   4.939  0.3107  0.3056  0.5309
   81MOL   H34040500   5.986   7.692   4.915  0.1133  0.3722 -0.2401
   81MOL   H34140501   6.176   0.067   4.967  0.1502 -2.5775 -0.6885
   81MOL   H34240502   6.141   7.768   5.115  0.4417 -1.1772 -0.3675
   81MOL   H34340503   6.017   0.259   5.031 -2.7423 -0.8683  1.9614
   81MOL   H34440504   5.995   0.158   5.178  1.4666 -3.4284  0.0037
   81MOL   H34540505   6.238   0.176   5.228  1.9004  2.6435  2.1005
   81MOL   H34640506   6.254   0.269   5.079 -0.6466  4.0193  0.3352
   81MOL   H34740507   6.087   0.442   5.200 -0.8763 -0.1478  0.9065
   81MOL   H34840508   6.097   0.325   5.331  0.1462 -2.6971 -1.0373
   81MOL   H34940509   6.253   0.520   5.345 -2.8921  0.3688  0.0974
   81MOL   H35040510   6.366   0.380   5.321  0.0839  2.7781  1.1860
   81MOL   H35140511   6.323   0.486   5.194  2.1934 -2.3922 -1.1400
   81MOL   C35240512   5.902   7.486   5.065 -0.2191  0.0264 -0.8096
   81MOL   C35340513   5.842   7.347   5.086  0.3778 -0.7135  1.0602
   81MOL   O35440514   5.935   7.246   5.034  0.0476 -0.3467 -0.0537
   81MOL   C35540515   6.040   7.215   5.120 -0.0527  0.8329  0.0943
   81MOL   C35640516   6.090   7.079   5.075 -0.1872  0.5489  0.4422
   81MOL   C35740517   5.983   6.973   5.084 -0.0911  0.0016 -0.0199
   81MOL   C35840518   6.042   6.843   5.153 -0.3025 -0.0226  0.1198
   81MOL   C35940519   6.080   6.853   5.299  0.0800  0.1321  0.4553
   81MOL   C36040520   6.076   6.719   5.370  0.0958  0.1110 -0.3234
   81MOL   H36140521   5.942   7.480   4.964 -0.8908 -1.8854 -0.9938
   81MOL   H36240522   5.984   7.496   5.135  0.4639 -2.0631 -1.2740
   81MOL   H36340523   5.817   7.329   5.190 -1.4198 -1.4845  0.5160
   81MOL   H36440524   6.022   7.220   5.227 -2.1580  5.1573 -0.3457
   81MOL   H36540525   6.113   7.296   5.111 -2.0489  2.5035 -1.5962
   81MOL   H36640526   6.168   7.044   5.143 -0.6228  0.4727  0.9100
   81MOL   H36740527   6.136   7.079   4.977 -2.4231  1.0002 -0.6464
   81MOL   H36840528   5.890   7.010   5.129 -1.7074 -2.7216 -0.9731
   81MOL   H36940529   5.958   6.952   4.980 -0.2625  0.2767 -0.0363
   81MOL   H37040530   5.963   6.769   5.145 -0.1613 -0.1453 -0.1276
   81MOL   H37140531   6.130   6.805   5.101 -0.9510 -0.8753 -0.3514
   81MOL   H37240532   6.184   6.883   5.310 -0.2011  0.9903  0.8501
   81MOL   H37340533   6.004   6.913   5.348 -1.8616  0.0706 -2.3662
   81MOL   H37440534   6.133   6.645   5.314 -1.4551 -0.5576 -1.0309
   81MOL   H37540535   6.108   6.719   5.474  1.0690 -0.0822 -0.6162
   81MOL   H37640536   5.972   6.689   5.371 -0.6444  2.5566  0.7816
   81MOL   C37740537   5.714   7.329   5.000 -0.3663 -0.0533  0.3101
   81MOL   C37840538   5.653   7.184   4.999 -0.7889 -0.5163  0.2769
   81MOL   O37940539   5.598   7.165   4.876  0.2157  0.6055  0.2809
   81MOL   C38040540   5.589   7.036   4.817 -0.8191 -0.1808 -0.0327
   81MOL   C38140541   5.520   7.039   4.674 -0.2188 -0.1401 -0.3042
   81MOL   C38240542   5.524   6.896   4.613  0.1393 -0.0607 -0.4809
   81MOL   C38340543   5.478   6.874   4.467 -0.4703 -0.7829  0.1049
   81MOL   C38440544   5.495   6.737   4.401  0.8932  0.1910 -0.7029
   81MOL   C38540545   5.438   6.738   4.255 -0.1353  0.0676  0.3948
   81MOL   H38640546   5.634   7.400   5.023 -2.0969 -1.7174 -0.4580
   81MOL   H38740547   5.738   7.364   4.900  2.3979 -0.0219  0.9268
   81MOL   H38840548   5.727   7.105   5.013 -1.5413 -1.0814  1.1251
   81MOL   H38940549   5.521   6.979   4.881  0.2546  0.3083  1.5784
   81MOL   H39040550   5.690   6.995   4.820 -0.5494  0.5100  0.7212
   81MOL   H39140551   5.569   7.105   4.602 -0.0817  1.3912  1.1664
   81MOL   H39240552   5.415   7.070   4.676  0.1385  1.1145 -0.4280
   81MOL   H39340553   5.623   6.854   4.628  0.2575  0.1160 -0.7730
   81MOL   H39440554   5.451   6.835   4.668 -0.4624 -0.0115 -1.2214
   81MOL   H39540555   5.375   6.910   4.459 -0.3092 -0.2449  0.4149
   81MOL   H39640556   5.528   6.949   4.406  1.0541 -3.8228 -2.5503
   81MOL   H39740557   5.601   6.713   4.398  0.7862 -0.6162  1.1121
   81MOL   H39840558   5.446   6.655   4.455 -1.9653  0.6733 -2.4684
   81MOL   H39940559   5.433   6.642   4.203 -0.3335 -0.4733  1.3889
   81MOL   H40040560   5.336   6.774   4.257  0.5896  2.1662  0.4063
   81MOL   H40140561   5.478   6.815   4.190 -1.0947  0.1434 -0.1027
   81MOL   C40240562   5.556   7.160   5.117  0.1306  0.2836 -0.3026
   81MOL   C40340563   5.611   7.158   5.267  0.3236  0.6420  0.1687
   81MOL   O40440564   5.573   7.035   5.322  0.7029 -0.0504  0.4510
   81MOL   C40540565   5.667   6.932   5.296  0.3477 -0.6576 -0.7996
   81MOL   C40640566   5.608   6.802   5.353  0.4906  0.4865  0.2539
   81MOL   C40740567   5.460   6.769   5.296  0.5069 -0.3319 -0.0411
   81MOL   C40840568   5.416   6.644   5.364 -0.6893  0.4168  0.7844
   81MOL   C40940569   5.272   6.612   5.344 -0.0350 -0.9261  0.4406
   81MOL   C41040570   5.220   6.492   5.427 -0.2038  0.2920 -0.6777
   81MOL   H41140571   5.496   7.069   5.113 -1.2306  1.2658 -4.5094
   81MOL   H41240572   5.481   7.238   5.119 -0.1062  0.0556 -0.3361
   81MOL   H41340573   5.719   7.173   5.264  0.2058  1.1414 -2.7168
   81MOL   H41440574   5.760   6.941   5.352 -0.9225  0.8368  1.1132
   81MOL   H41540575   5.681   6.920   5.189  2.1707  0.7203 -0.7306
   81MOL   H41640576   5.599   6.815   5.461 -0.9570 -1.7342  0.4195
   81MOL   H41740577   5.681   6.725   5.332  1.4010  1.2324  0.6246
   81MOL   H41840578   5.396   6.853   5.321  1.1037  0.5269 -1.3094
   81MOL   H41940579   5.471   6.750   5.189  1.7430 -1.2727  0.2424
   81MOL   H42040580   5.478   6.559   5.336 -1.8342 -0.1341 -0.1160
   81MOL   H42140581   5.429   6.656   5.472  2.9234 -1.3901  0.6331
   81MOL   H42240582   5.204   6.697   5.346  1.1403  0.1763 -2.8355
   81MOL   H42340583   5.261   6.585   5.239  0.3288 -1.4093  0.5265
   81MOL   H42440584   5.118   6.473   5.396 -0.4638  0.1803  0.2410
   81MOL   H42540585   5.271   6.400   5.398 -1.8805 -0.7125 -0.4482
   81MOL   H42640586   5.230   6.512   5.534 -0.6565 -0.6816 -0.4483
   81MOL   C42740587   5.539   7.253   5.354 -0.3872 -0.0203  0.0770
   81MOL   C42840588   5.563   7.244   5.509  0.2694 -0.1874  0.1852
   81MOL   O42940589   5.686   7.314   5.538  0.0075 -0.4558 -0.2018
   81MOL   C43040590   5.798   7.226   5.578  0.2667  0.1277  0.0770
   81MOL   C43140591   5.922   7.296   5.552 -0.2861 -0.1088  0.2639
   81MOL   C43240592   6.041   7.202   5.566 -0.7813  0.3881  0.0608
   81MOL   C43340593   6.171   7.276   5.523 -0.1883  0.1252  0.3897
   81MOL   C43440594   6.298   7.199   5.572  0.6260 -0.2167 -0.0197
   81MOL   C43540595   6.327   7.068   5.506  0.1023 -0.2639  0.5813
   81MOL   H43640596   5.528   7.356   5.319 -1.1132 -0.0265  0.2638
   81MOL   H43740597   5.431   7.235   5.349 -0.5081  0.7136  0.0407
   81MOL   H43840598   5.571   7.142   5.546 -0.3545 -1.3664 -2.7793
   81MOL   H43940599   5.788   7.146   5.505  1.6857 -0.0927  0.1246
   81MOL   H44040600   5.780   7.187   5.678 -1.4519  1.5837  0.3665
   81MOL   H44140601   5.926   7.384   5.615 -0.8610 -0.8316  1.3309
   81MOL   H44240602   5.931   7.335   5.450  0.0896 -0.3820  0.1912
   81MOL   H44340603   6.056   7.170   5.669  1.6340 -0.3280 -0.4908
   81MOL   H44440604   6.036   7.121   5.493  0.4572  0.0255  0.3693
   81MOL   H44540605   6.186   7.300   5.418 -0.7752  2.9626  0.9027
   81MOL   H44640606   6.174   7.373   5.574 -0.4940 -1.0923  2.7881
   81MOL   H44740607   6.387   7.259   5.552  0.9228 -0.7911 -0.4471
   81MOL   H44840608   6.296   7.183   5.680 -0.9879 -0.3982 -0.0592
   81MOL   H44940609   6.356   7.091   5.404 -0.4808 -0.9627  0.2512
   81MOL   H45040610   6.409   7.006   5.543  0.7590  0.1391 -0.1961
   81MOL   H45140611   6.237   7.006   5.514  0.1942 -0.3834  0.6957
   81MOL   C45240612   5.447   7.317   5.585 -0.0087 -0.3156  0.4242
   81MOL   C45340613   5.473   7.312   5.737 -0.6715 -0.3382 -0.2493
   81MOL   O45440614   5.423   7.191   5.795 -0.0582 -0.0466 -0.4299
   81MOL   C45540615   5.515   7.089   5.824 -0.2667 -0.0314 -0.2633
   81MOL   C45640616   5.432   6.961   5.860 -0.1722  0.0563  0.5213
   81MOL   C45740617   5.337   6.925   5.749  0.6615 -0.3069  0.0876
   81MOL   C45840618   5.236   6.811   5.773 -0.3547  0.0284  0.1116
   81MOL   C45940619   5.131   6.806   5.669 -0.0764  0.3770  0.6790
   81MOL   C46040620   5.022   6.704   5.690 -0.3106 -0.0050 -0.3956
   81MOL   H46140621   5.450   7.417   5.541 -0.6032 -0.8443 -0.8311
   81MOL   H46240622   5.357   7.269   5.548  0.3124 -1.2937  0.8970
   81MOL   H46340623   5.577   7.319   5.771  0.4123  2.4067 -3.8553
   81MOL   H46440624   5.565   7.105   5.920  2.7562 -0.4842 -1.6983
   81MOL   H46540625   5.589   7.063   5.748 -0.1995 -0.5284 -0.0296
   81MOL   H46640626   5.367   6.988   5.943  0.0426  2.5323 -0.0590
   81MOL   H46740627   5.504   6.883   5.886 -3.5321 -2.8426  1.5075
   81MOL   H46840628   5.285   7.019   5.727  0.4705 -0.5223 -0.3992
   81MOL   H46940629   5.389   6.901   5.656  1.0630 -0.7080  0.4143
   81MOL   H47040630   5.288   6.715   5.771 -0.0848  0.1875 -1.5673
   81MOL   H47140631   5.181   6.820   5.866 -1.9315  0.4041 -0.8322
   81MOL   H47240632   5.080   6.902   5.663  2.7061  1.7511 -3.1765
   81MOL   H47340633   5.175   6.780   5.573 -3.0481 -1.0709 -0.3292
   81MOL   H47440634   4.966   6.735   5.778  2.7977  1.1655  1.2921
   81MOL   H47540635   4.947   6.703   5.611  0.3914  0.5689 -1.0825
   81MOL   H47640636   5.067   6.606   5.706 -0.3012 -0.0166 -0.4898
   81MOL   C47740637   5.385   7.416   5.805 -0.4729  0.4542  0.5319
   81MOL   C47840638   5.447   7.556   5.810  0.1465 -0.3342  0.1946
   81MOL   O47940639   5.564   7.548   5.880  0.2240 -0.0425  0.0696
   81MOL   C48040640   5.631   7.673   5.916  0.3912  0.1493  0.9152
   81MOL   C48140641   5.676   7.755   5.786 -0.7328 -0.3679 -0.7141
   81MOL   C48240642   5.784   7.672   5.714  0.2398  0.0525 -0.9221
   81MOL   C48340643   5.881   7.753   5.630 -0.0409 -0.1745 -0.1426
   81MOL   C48440644   5.991   7.687   5.540  0.6438 -0.8789 -0.6371
   81MOL   C48540645   6.043   0.014   5.440 -0.0178 -0.3340  0.1772
   81MOL   H48640646   5.289   7.435   5.758 -1.2027  0.0981  1.8448
   81MOL   H48740647   5.342   7.386   5.901  0.1990  2.0229  1.3274
   81MOL   H48840648   5.465   7.592   5.709 -1.0259  0.4351  0.2575
   81MOL   H48940649   5.719   7.641   5.972 -0.1629 -0.8776  1.2130
   81MOL   H49040650   5.568   7.734   5.981 -0.2889 -0.0229  0.4165
   81MOL   H49140651   5.701   0.078   5.818 -0.3040 -0.1448 -1.7302
   81MOL   H49240652   5.592   0.001   5.721 -2.0043 -0.0777  1.0041
   81MOL   H49340653   5.843   7.616   5.786 -0.1464  1.7199  0.7583
   81MOL   H49440654   5.739   7.602   5.644 -1.1217 -0.3461  0.3045
   81MOL   H49540655   5.819   0.040   5.569  0.0857 -0.2486 -0.3498
   81MOL   H49640656   5.935   0.050   5.688  0.6548  0.5847 -1.7546
   81MOL   H49740657   6.079   7.657   5.598 -0.7243  0.5772  2.3216
   81MOL   H49840658   5.950   7.597   5.494  0.3634  0.1304 -2.3721
   81MOL   H49940659   6.127   7.750   5.384 -2.8507 -2.9311 -2.2929
   81MOL   H50040660   5.964   0.033   5.367  0.2615  0.6541  0.1235
   81MOL   H50140661   6.070   0.103   5.497  0.8494 -0.0540 -0.6495
   81MOL   H50240662   5.371   7.621   5.853  1.1951  0.3628  1.0354
   82MOL     C140663   4.563   7.121   1.743 -0.7109 -0.5487 -0.5621
   82MOL     C240664   4.556   7.010   1.636 -0.1695 -0.1972  0.6302
   82MOL     O340665   4.620   7.049   1.506  0.1207  0.0028 -0.2135
   82MOL     C440666   4.765   7.064   1.521 -0.5895  0.1480 -0.0549
   82MOL     C540667   4.845   6.949   1.470 -0.2835 -0.0244  0.4724
   82MOL     C640668   4.807   6.916   1.325  0.1118 -0.3301 -0.6600
   82MOL     C740669   4.909   6.817   1.248  0.3743 -0.4562 -0.3888
   82MOL     C840670   5.047   6.881   1.232  0.3139 -0.5530  0.6943
   82MOL     C940671   5.149   6.797   1.154  0.3678  0.3694  0.0245
   82MOL    H1040672   4.666   7.137   1.774 -0.9249 -2.3158  1.1313
   82MOL    H1140673   4.528   7.220   1.712  0.3010 -0.3164 -0.9824
   82MOL    H1240674   4.596   6.914   1.668 -2.9993 -1.6115  0.0877
   82MOL    H1340675   4.794   7.060   1.626  1.6326 -0.6960 -0.6728
   82MOL    H1440676   4.774   7.164   1.478 -0.8060  0.3776  0.4340
   82MOL    H1540677   4.824   6.871   1.543  4.1239  1.0825  3.1390
   82MOL    H1640678   4.948   6.985   1.477 -0.2812  0.6815 -2.5336
   82MOL    H1740679   4.705   6.876   1.318 -0.3398  0.9815 -1.9221
   82MOL    H1840680   4.801   7.008   1.266 -2.7091  1.8232  2.7378
   82MOL    H1940681   4.913   6.725   1.306 -0.8236 -1.1768 -1.4069
   82MOL    H2040682   4.869   6.785   1.151 -2.5931 -0.3879  0.7503
   82MOL    H2140683   5.088   6.904   1.331  0.6075 -0.1495  0.4801
   82MOL    H2240684   5.035   6.974   1.178  2.0098  0.6682  2.3391
   82MOL    H2340685   5.177   6.701   1.196 -2.1052 -0.7154 -0.7095
   82MOL    H2440686   5.115   6.783   1.051 -0.8494  1.7812  0.2058
   82MOL    H2540687   5.246   6.847   1.148  0.5158  0.0521 -0.2038
   82MOL    H2640688   4.507   7.095   1.833  1.4924 -1.7593  0.4800
   82MOL    C2740689   4.411   6.985   1.599 -0.2054  0.3187  0.6151
   82MOL    C2840690   4.380   6.857   1.515 -0.1946  0.2954 -0.0261
   82MOL    O2940691   4.248   6.819   1.544 -0.0938 -0.3114 -0.1038
   82MOL    C3040692   4.241   6.695   1.616  0.4460  0.1488 -0.2711
   82MOL    C3140693   4.115   6.688   1.700  0.7059 -0.5376 -0.1407
   82MOL    C3240694   4.097   6.800   1.811  0.0105 -0.5136  0.3740
   82MOL    C3340695   3.992   6.763   1.912  0.3165  0.1312 -0.2177
   82MOL    C3440696   3.949   6.883   1.999  0.5467 -0.1068 -0.0086
   82MOL    C3540697   3.859   6.835   2.111  0.6165  0.4411 -0.7606
   82MOL    H3640698   4.363   6.971   1.695 -0.7415  0.2344  0.3360
   82MOL    H3740699   4.374   7.074   1.548  0.0344  0.5569  0.8554
   82MOL    H3840700   4.458   6.781   1.527  0.6540  0.9171 -1.4460
   82MOL    H3940701   4.322   6.675   1.687  0.7004 -2.2846 -1.1799
   82MOL    H4040702   4.261   6.610   1.550  0.3848 -1.1528  1.3561
   82MOL    H4140703   4.098   6.592   1.748 -3.1182  0.4391  0.6447
   82MOL    H4240704   4.023   6.690   1.641  2.2620  0.6344 -2.6069
   82MOL    H4340705   4.187   6.825   1.867 -0.7314  0.6289  1.0736
   82MOL    H4440706   4.073   6.897   1.767  4.8124 -0.1033 -1.7449
   82MOL    H4540707   3.895   6.738   1.869  0.0885  2.0297 -0.8480
   82MOL    H4640708   4.016   6.674   1.970  1.2461  1.1995  1.0754
   82MOL    H4740709   4.032   6.933   2.048  1.2778 -1.6126  0.3224
   82MOL    H4840710   3.894   6.963   1.948  1.7486  1.1900  0.7041
   82MOL    H4940711   3.818   6.918   2.171 -1.6203 -0.1316 -1.4448
   82MOL    H5040712   3.779   6.766   2.083 -2.0225  2.2080  2.0273
   82MOL    H5140713   3.917   6.773   2.179  0.0802 -1.5691 -2.1184
   82MOL    C5240714   4.375   6.891   1.357 -0.9806 -0.0211 -0.0675
   82MOL    C5340715   4.333   6.777   1.262  1.0631  0.0775  0.0115
   82MOL    O5440716   4.339   6.829   1.131  0.1569 -0.0649  0.0277
   82MOL    C5540717   4.214   6.833   1.067  0.3653  0.6847 -0.1257
   82MOL    C5640718   4.127   6.953   1.112  0.8754  0.6051 -0.1411
   82MOL    C5740719   3.985   6.957   1.052 -0.7024  0.0403 -1.0284
   82MOL    C5840720   3.924   7.098   1.054 -0.0794  0.5391  0.2083
   82MOL    C5940721   3.845   7.124   1.184 -0.5362 -0.0165 -0.0715
   82MOL    C6040722   3.771   7.260   1.181 -0.0050 -0.2138 -0.3757
   82MOL    H6140723   4.471   6.922   1.317 -2.1353  2.5950 -0.9262
   82MOL    H6240724   4.312   6.980   1.350  1.2159  1.5796 -0.1688
   82MOL    H6340725   4.237   6.743   1.301 -0.0136 -0.6037 -3.1074
   82MOL    H6440726   4.155   6.742   1.078  1.4782 -0.1811 -1.2912
   82MOL    H6540727   4.225   6.852   0.960 -2.2574 -1.8444 -0.9242
   82MOL    H6640728   4.183   7.045   1.094 -0.4597  1.4196 -0.1615
   82MOL    H6740729   4.111   6.944   1.220 -2.3810  1.3688 -0.5024
   82MOL    H6840730   3.992   6.916   0.951 -0.9330  0.8353 -1.3741
   82MOL    H6940731   3.925   6.894   1.118  0.7760 -0.3967 -0.0819
   82MOL    H7040732   4.000   7.177   1.048  0.6300 -0.1216  0.4318
   82MOL    H7140733   3.859   7.113   0.968 -0.3458 -5.2924 -0.7643
   82MOL    H7240734   3.775   7.044   1.206  0.2618 -1.1058 -1.3746
   82MOL    H7340735   3.903   7.119   1.276  1.1821  0.3037 -1.0984
   82MOL    H7440736   3.685   7.241   1.116  0.3921 -0.3837 -0.8599
   82MOL    H7540737   3.737   7.291   1.280 -0.5360 -4.7083  0.9468
   82MOL    H7640738   3.821   7.350   1.146  0.9103 -0.5477  0.0397
   82MOL    C7740739   4.453   6.670   1.257 -0.3676 -0.2329 -0.2857
   82MOL    C7840740   4.412   6.529   1.219  0.3839  0.2119  0.9305
   82MOL    O7940741   4.318   6.477   1.318 -0.0769  0.0433 -0.3602
   82MOL    C8040742   4.201   6.423   1.254  0.8247 -0.3667 -0.2984
   82MOL    C8140743   4.108   6.395   1.374 -0.6554  0.5228  0.4708
   82MOL    C8240744   4.017   6.513   1.415 -0.0225  0.3019  0.6382
   82MOL    C8340745   3.907   6.554   1.321 -0.1560  0.5922  1.2264
   82MOL    C8440746   3.810   6.658   1.383 -0.0029  0.5987  0.1507
   82MOL    C8540747   3.714   6.699   1.270  0.1400  0.3473  0.6139
   82MOL    H8640748   4.496   6.659   1.357 -2.5075 -0.8111  0.6094
   82MOL    H8740749   4.533   6.703   1.191  0.6241  0.5186  1.2697
   82MOL    H8840750   4.370   6.541   1.119 -1.6373 -3.1728  1.3026
   82MOL    H8940751   4.212   6.336   1.189 -0.8224 -0.1291 -0.9219
   82MOL    H9040752   4.154   6.500   1.192  0.9257  0.0108  0.0894
   82MOL    H9140753   4.166   6.358   1.458 -0.0786 -1.1200 -0.6377
   82MOL    H9240754   4.049   6.309   1.343 -0.4090  0.3367  0.5238
   82MOL    H9340755   3.974   6.481   1.510  0.9115 -1.0004  0.6221
   82MOL    H9440756   4.087   6.595   1.430  1.5785 -1.1677  1.3268
   82MOL    H9540757   3.946   6.601   1.231 -2.1289  1.3031  0.7048
   82MOL    H9640758   3.847   6.470   1.285  0.7474 -0.1065  1.3273
   82MOL    H9740759   3.757   6.631   1.474 -1.9169 -1.0577 -1.4078
   82MOL    H9840760   3.866   6.747   1.413  1.7160 -0.1974 -0.6052
   82MOL    H9940761   3.633   6.628   1.255 -0.4935  1.3858 -1.0632
   82MOL   H10040762   3.668   6.796   1.291  2.1706  1.0562  1.9199
   82MOL   H10140763   3.762   6.710   1.173  1.5502  2.0852  1.4728
   82MOL   C10240764   4.528   6.424   1.197  0.1985  0.3569  0.4301
   82MOL   C10340765   4.627   6.460   1.085 -0.0744 -0.2499  0.4513
   82MOL   O10440766   4.739   6.372   1.087  0.2649 -0.1212 -0.1281
   82MOL   C10540767   4.855   6.428   1.142 -0.0536  0.0182  0.2527
   82MOL   C10640768   4.978   6.340   1.108  0.5860 -0.7818 -0.1662
   82MOL   C10740769   4.970   6.195   1.158 -0.2465 -0.0137 -0.6589
   82MOL   C10840770   5.090   6.115   1.106 -0.3576  0.7038 -0.9205
   82MOL   C10940771   5.086   5.962   1.119 -0.3865  0.4144 -0.3225
   82MOL   C11040772   5.124   5.889   1.249 -0.1134 -0.4813 -0.6030
   82MOL   H11140773   4.585   6.393   1.285 -0.8820 -2.2202  0.2566
   82MOL   H11240774   4.486   6.330   1.163 -0.4098  0.0181  2.0366
   82MOL   H11340775   4.671   6.557   1.108  1.9583 -1.3055  1.1811
   82MOL   H11440776   4.836   6.441   1.249 -1.0920 -3.4805  0.5564
   82MOL   H11540777   4.871   6.527   1.099  0.7835 -0.5587 -0.7859
   82MOL   H11640778   5.066   6.386   1.154 -0.2404  0.8010 -0.1472
   82MOL   H11740779   4.990   6.361   1.002 -2.1043  1.5236 -0.0525
   82MOL   H11840780   4.947   6.199   1.264 -1.9495  2.8507 -1.0997
   82MOL   H11940781   4.882   6.152   1.110 -0.8420 -0.4711  0.8286
   82MOL   H12040782   5.098   6.130   0.998  1.1445 -1.8600 -1.2046
   82MOL   H12140783   5.184   6.155   1.144  0.1629 -1.9171  0.6514
   82MOL   H12240784   4.988   5.925   1.087  0.5680 -2.1484 -0.4149
   82MOL   H12340785   5.155   5.924   1.044  1.1885  0.3576  1.1188
   82MOL   H12440786   5.091   5.951   1.332 -1.2968 -1.6565 -0.1604
   82MOL   H12540787   5.085   5.789   1.269  1.8199 -1.1140  0.0887
   82MOL   H12640788   5.230   5.872   1.265 -0.0082 -0.8541 -1.6831
   82MOL   C12740789   4.570   6.454   0.946  1.0738  0.0518 -0.1356
   82MOL   C12840790   4.617   6.567   0.851 -1.3425  0.2202  0.3626
   82MOL   O12940791   4.761   6.567   0.837  0.0315 -0.2049  0.2647
   82MOL   C13040792   4.817   6.458   0.768  0.1484  0.3744  0.2263
   82MOL   C13140793   4.954   6.500   0.704  0.5483  0.0675 -0.1728
   82MOL   C13240794   4.928   6.595   0.591  0.1859  0.5958  0.4255
   82MOL   C13340795   5.049   6.691   0.570  0.0731 -0.3883  0.0651
   82MOL   C13440796   5.167   6.617   0.514 -0.1743 -0.8215  0.5220
   82MOL   C13540797   5.292   6.705   0.496  0.5569 -0.1392 -0.0786
   82MOL   H13640798   4.593   6.355   0.906 -1.2937  0.5562 -2.9679
   82MOL   H13740799   4.461   6.447   0.946  1.1071 -1.7314 -3.1737
   82MOL   H13840800   4.571   6.531   0.759 -1.9100 -1.3502  1.2252
   82MOL   H13940801   4.750   6.410   0.697  0.8736  0.4849 -0.5446
   82MOL   H14040802   4.835   6.383   0.845  1.3892 -0.9599 -1.3300
   82MOL   H14140803   5.000   6.408   0.671 -1.4361 -1.6903  1.8012
   82MOL   H14240804   5.026   6.535   0.778  0.9030  0.8955 -0.8895
   82MOL   H14340805   4.912   6.537   0.500 -2.6257  1.3625  0.3830
   82MOL   H14440806   4.837   6.655   0.600 -1.0709 -1.1555 -0.2524
   82MOL   H14540807   5.022   6.759   0.489 -0.6344 -0.1663  0.4829
   82MOL   H14640808   5.082   6.749   0.656  2.0742 -2.8082  0.9799
   82MOL   H14740809   5.209   6.543   0.581  0.4669 -0.7082  0.2437
   82MOL   H14840810   5.141   6.574   0.417  1.4796 -1.3615  0.3150
   82MOL   H14940811   5.385   6.650   0.478  1.4457  0.4967  2.3473
   82MOL   H15040812   5.275   6.784   0.424  0.5107 -0.9822 -1.0039
   82MOL   H15140813   5.301   6.769   0.584 -0.8010 -0.6788  0.4664
   82MOL   C15240814   4.557   6.713   0.880 -0.5429  0.8413  0.7203
   82MOL   C15340815   4.526   6.820   0.772  0.2499  0.2390  0.2211
   82MOL   O15440816   4.416   6.761   0.699 -0.1635  0.6858  0.0952
   82MOL   C15540817   4.431   6.788   0.558 -0.0919  0.4979  0.5059
   82MOL   C15640818   4.490   6.665   0.494 -0.9619  0.5667 -0.1214
   82MOL   C15740819   4.395   6.538   0.494 -0.6015  0.0208 -0.1392
   82MOL   C15840820   4.464   6.416   0.437 -0.2289  0.2390 -0.0769
   82MOL   C15940821   4.372   6.293   0.424  0.0578 -0.5457 -0.5975
   82MOL   C16040822   4.323   6.271   0.280 -0.2773  0.1771  0.1331
   82MOL   H16140823   4.458   6.685   0.918 -1.3557  0.7739 -1.3858
   82MOL   H16240824   4.608   6.751   0.968 -1.1693 -1.1475  1.9742
   82MOL   H16340825   4.611   6.818   0.704 -2.4708  0.1474 -3.3438
   82MOL   H16440826   4.492   6.877   0.542  0.1632 -0.0277 -1.6704
   82MOL   H16540827   4.335   6.804   0.509 -1.5984 -1.6228  2.6233
   82MOL   H16640828   4.585   6.651   0.545 -1.4114  1.0878  0.8846
   82MOL   H16740829   4.509   6.695   0.391 -1.1078  0.0263 -0.3032
   82MOL   H16840830   4.336   6.522   0.585  1.7819 -1.1729  1.2525
   82MOL   H16940831   4.319   6.550   0.416  0.5179  0.2173 -1.2022
   82MOL   H17040832   4.510   6.445   0.342 -0.5885  0.3632 -0.2146
   82MOL   H17140833   4.546   6.403   0.506  0.7859  2.1620 -0.8601
   82MOL   H17240834   4.432   6.208   0.455  0.5423  0.4505  1.2487
   82MOL   H17340835   4.288   6.289   0.493  0.8236  1.5366  0.4962
   82MOL   H17440836   4.402   6.260   0.205  2.0343 -1.3626  2.7271
   82MOL   H17540837   4.246   6.196   0.265 -0.8591  0.9063 -0.6377
   82MOL   H17640838   4.274   6.360   0.240 -1.1136  0.1870  1.1786
   82MOL   C17740839   4.512   6.963   0.823 -0.1179  0.1904  0.2765
   82MOL   C17840840   4.626   7.033   0.889  0.1858  0.8370  0.0813
   82MOL   O17940841   4.728   7.029   0.786 -0.2821 -0.2691  0.2863
   82MOL   C18040842   4.860   7.010   0.833  0.1849  0.5881  0.0707
   82MOL   C18140843   4.965   7.029   0.725  0.2659  0.0238 -1.0546
   82MOL   C18240844   5.102   7.046   0.778  0.3272  0.4272  0.5047
   82MOL   C18340845   5.202   7.055   0.664  0.0577  0.1421  0.1811
   82MOL   C18440846   5.169   7.178   0.568 -0.0890 -0.2121  0.2638
   82MOL   C18540847   5.282   7.211   0.471 -0.2739 -0.1916  0.3527
   82MOL   H18640848   4.471   7.030   0.747  0.8701 -3.1457 -3.3790
   82MOL   H18740849   4.433   6.956   0.898  0.0431  0.4948  0.4739
   82MOL   H18840850   4.655   6.969   0.972 -0.8112  2.0702  1.3845
   82MOL   H18940851   4.860   6.915   0.886  0.6209  0.3830 -0.2949
   82MOL   H19040852   4.886   7.076   0.916  1.2854 -0.2176  0.3832
   82MOL   H19140853   4.937   7.117   0.667  0.9691  0.1158 -1.2656
   82MOL   H19240854   4.961   6.946   0.655 -0.6765 -1.4846  0.7748
   82MOL   H19340855   5.099   7.131   0.847 -2.4974 -1.6175  3.0061
   82MOL   H19440856   5.121   6.960   0.841  0.0024  0.2604  0.3771
   82MOL   H19540857   5.302   7.062   0.708  0.0547  0.0902  0.1956
   82MOL   H19640858   5.209   6.968   0.600 -2.9078  0.3437 -0.5030
   82MOL   H19740859   5.086   7.153   0.502  1.3719  1.0795 -2.1247
   82MOL   H19840860   5.140   7.267   0.625  0.7064  0.6769 -0.6984
   82MOL   H19940861   5.268   7.314   0.439 -1.8350 -1.1959 -2.4246
   82MOL   H20040862   5.384   7.212   0.511  0.0894 -0.7694 -0.5278
   82MOL   H20140863   5.280   7.141   0.387 -1.7735  0.5910 -0.2636
   82MOL   C20240864   4.589   7.160   0.964 -0.4045  0.5069 -0.1538
   82MOL   C20340865   4.531   7.278   0.881  0.3494 -0.1128 -0.2214
   82MOL   O20440866   4.415   7.237   0.814  0.2069 -0.1802 -0.2023
   82MOL   C20540867   4.314   7.335   0.789 -0.5813  0.7367  0.8503
   82MOL   C20640868   4.226   7.264   0.677  0.7309 -0.6470  0.0901
   82MOL   C20740869   4.169   7.132   0.725  0.1691  0.2709 -1.1030
   82MOL   C20840870   4.079   7.067   0.620  0.2898  0.3514 -0.3858
   82MOL   C20940871   3.954   7.147   0.585 -0.0029 -1.0516 -0.4387
   82MOL   C21040872   3.879   7.065   0.482 -0.4852 -0.2367  0.4438
   82MOL   H21140873   4.508   7.135   1.033 -0.1118 -0.3883 -0.1366
   82MOL   H21240874   4.669   7.211   1.017 -0.2182  2.7794 -2.5149
   82MOL   H21340875   4.503   7.352   0.955  0.0686  0.8473 -1.2690
   82MOL   H21440876   4.356   7.431   0.760 -0.6518  1.0837  1.8609
   82MOL   H21540877   4.260   7.358   0.881 -0.1617  0.7668  1.0922
   82MOL   H21640878   4.291   7.254   0.590 -1.1210 -2.9449 -1.0908
   82MOL   H21740879   4.147   7.333   0.647  0.5432 -0.4675  0.9967
   82MOL   H21840880   4.238   7.058   0.765 -1.0597 -1.3552 -1.9235
   82MOL   H21940881   4.113   7.171   0.810  0.4620  3.3648 -2.2386
   82MOL   H22040882   4.139   7.043   0.532 -0.3119 -0.7332 -0.5104
   82MOL   H22140883   4.049   6.970   0.661  2.2476 -0.3563 -0.5373
   82MOL   H22240884   3.902   7.159   0.680  1.4426 -2.4766  0.5687
   82MOL   H22340885   3.973   7.251   0.561  0.0829 -0.9341  0.1232
   82MOL   H22440886   3.936   7.014   0.404 -0.4420 -0.5561  0.6854
   82MOL   H22540887   3.810   6.992   0.524 -2.0598  0.7774 -0.3084
   82MOL   H22640888   3.821   7.132   0.418  0.9098  1.4539  0.9135
   82MOL   C22740889   4.629   7.342   0.779  0.3101  0.5164  0.7439
   82MOL   C22840890   4.702   7.464   0.830  0.2165 -0.2821 -0.2661
   82MOL   O22940891   4.767   7.439   0.955 -0.4912 -0.2113 -0.2298
   82MOL   C23040892   4.800   7.554   1.036 -0.7280 -0.2587 -0.2291
   82MOL   C23140893   4.854   7.503   1.172  0.3536 -0.7508 -0.0655
   82MOL   C23240894   4.976   7.411   1.153 -0.4686  0.3368 -0.8607
   82MOL   C23340895   5.016   7.360   1.297  0.6494  0.0911  0.0620
   82MOL   C23440896   5.128   7.257   1.284 -0.1617  0.0878 -0.3149
   82MOL   C23540897   5.183   7.218   1.421 -0.5259 -1.0452 -0.0427
   82MOL   H23640898   4.692   7.264   0.737 -1.6676 -0.0693 -1.2221
   82MOL   H23740899   4.579   7.390   0.695  1.1919 -1.2400 -0.8293
   82MOL   H23840900   4.633   7.545   0.850 -2.1325 -2.7616  2.1201
   82MOL   H23940901   4.709   7.610   1.060 -1.4837 -0.5960 -2.2001
   82MOL   H24040902   4.870   7.621   0.985  0.2933 -0.1380  1.3007
   82MOL   H24140903   4.771   7.458   1.227  1.9359 -1.1090  2.1107
   82MOL   H24240904   4.884   7.592   1.226 -1.6304  0.4216 -0.8299
   82MOL   H24340905   4.927   7.334   1.094 -0.3423 -0.8261  0.5225
   82MOL   H24440906   5.055   7.457   1.095  2.3954 -1.0720  1.7962
   82MOL   H24540907   5.059   7.449   1.343 -0.9267  0.4964  0.8062
   82MOL   H24640908   4.943   7.315   1.366 -0.9351  2.0383 -0.3023
   82MOL   H24740909   5.074   7.173   1.239  1.0114  0.0442 -1.6635
   82MOL   H24840910   5.206   7.296   1.219 -2.0279  0.3096 -2.4853
   82MOL   H24940911   5.108   7.245   1.495 -0.5725  0.4861 -0.6267
   82MOL   H25040912   5.212   7.115   1.441  2.8753 -0.2477 -0.5534
   82MOL   H25140913   5.269   7.282   1.443 -1.6567  0.2550  0.6665
   82MOL   C25240914   4.808   7.515   0.732  0.0382 -0.0915 -0.0673
   82MOL   C25340915   4.769   7.536   0.579  0.4232  0.0444 -0.1015
   82MOL   O25440916   4.874   7.582   0.500  0.3641 -0.1580 -0.3436
   82MOL   C25540917   4.992   7.498   0.501  0.4259 -0.2477 -0.4472
   82MOL   C25640918   5.064   7.546   0.377 -0.6879  0.4247  0.4330
   82MOL   C25740919   4.993   7.514   0.241 -0.2944 -0.0452  0.4950
   82MOL   C25840920   5.061   7.574   0.120 -0.2378  0.0014 -0.6460
   82MOL   C25940921   5.205   7.529   0.095  0.2710 -0.3896 -0.2809
   82MOL   C26040922   5.273   7.639   0.012 -0.2461  0.0765 -0.6091
   82MOL   H26140923   4.845   7.614   0.758 -0.0656  0.3552 -1.5654
   82MOL   H26240924   4.892   7.448   0.746 -0.9276 -1.2931  0.1403
   82MOL   H26340925   4.750   7.437   0.538  0.2876  0.1773 -0.3591
   82MOL   H26440926   4.977   7.390   0.491  2.7724 -0.5009 -1.6725
   82MOL   H26540927   5.047   7.514   0.594 -0.8086  1.9466 -0.0689
   82MOL   H26640928   5.162   7.499   0.390 -1.2508 -0.8994  0.0008
   82MOL   H26740929   5.081   7.653   0.389 -1.9136  0.7674 -0.7965
   82MOL   H26840930   4.975   7.407   0.243  0.8795 -0.2760 -0.7831
   82MOL   H26940931   4.893   7.558   0.240 -0.1495  0.2714 -0.8941
   82MOL   H27040932   5.002   7.552   0.031 -0.8013  0.9412 -0.5074
   82MOL   H27140933   5.051   7.682   0.126  0.8710  0.1250 -0.9256
   82MOL   H27240934   5.265   7.502   0.182 -1.5742  0.1633  1.2187
   82MOL   H27340935   5.184   7.440   0.036 -0.5839  0.1691 -0.8341
   82MOL   H27440936   5.381   7.623   0.015 -0.2766 -0.5105 -2.2644
   82MOL   H27540937   5.240   7.637   7.686 -0.3669  0.4689 -0.5775
   82MOL   H27640938   5.262   7.741   0.050 -0.9017  0.2620 -1.2841
   82MOL   C27740939   4.647   7.633   0.554  0.2153 -0.4612 -0.2502
   82MOL   C27840940   4.580   7.613   0.419  0.0365  1.0438 -0.5333
   82MOL   O27940941   4.491   7.499   0.424  0.7407  0.4305 -0.7453
   82MOL   C28040942   4.470   7.430   0.305  0.4180  0.1607  0.0505
   82MOL   C28140943   4.569   7.313   0.307 -0.3940  0.6156 -0.4787
   82MOL   C28240944   4.550   7.216   0.429  0.0711  0.2942 -0.0302
   82MOL   C28340945   4.673   7.128   0.450 -0.3540 -0.0393 -0.1389
   82MOL   C28440946   4.688   6.997   0.363  0.2448 -0.1461 -0.2043
   82MOL   C28540947   4.794   6.898   0.411  0.4808 -0.1371  0.1963
   82MOL   H28640948   4.572   7.629   0.633  1.0522  2.6678  0.7893
   82MOL   H28740949   4.687   7.733   0.569  0.9204 -0.5024 -1.8252
   82MOL   H28840950   4.651   7.605   0.336 -2.1081  2.0599 -2.5324
   82MOL   H28940951   4.500   7.486   0.216 -0.4479 -0.2973 -0.5370
   82MOL   H29040952   4.365   7.405   0.296 -0.3172  2.7057  0.9685
   82MOL   H29140953   4.670   7.353   0.296  0.1371 -0.6156 -0.2107
   82MOL   H29240954   4.541   7.257   0.217  0.6162 -0.0103 -0.4176
   82MOL   H29340955   4.532   7.288   0.509 -0.0218 -1.3760  1.4771
   82MOL   H29440956   4.458   7.159   0.423  0.6706 -0.8156  1.0545
   82MOL   H29540957   4.766   7.186   0.456  0.0388 -0.9148  4.3127
   82MOL   H29640958   4.653   7.083   0.548  1.1112  0.3599  0.3714
   82MOL   H29740959   4.585   6.961   0.365  0.2524 -0.3200 -1.8216
   82MOL   H29840960   4.718   7.039   0.267  1.2229  1.7837  0.9287
   82MOL   H29940961   4.879   6.966   0.417 -2.1001  3.1239  1.6044
   82MOL   H30040962   4.766   6.857   0.508  1.5489 -1.4855 -0.0446
   82MOL   H30140963   4.804   6.818   0.337 -3.9398  1.9385 -2.8701
   82MOL   C30240964   4.494   7.738   0.385  0.5254  0.2373 -0.9570
   82MOL   C30340965   4.488   0.002   0.237 -0.1062 -0.0508  0.1727
   82MOL   O30440966   4.614   0.053   0.210 -0.3086 -0.2982 -0.0963
   82MOL   C30540967   4.678   7.765   0.096 -0.4962 -0.2992 -0.2678
   82MOL   C30640968   4.806   0.063   0.058  0.2700  0.7075  0.2931
   82MOL   C30740969   4.844   0.015   7.692 -0.3079 -0.6847  0.0143
   82MOL   C30840970   4.963   0.096   7.652 -0.2885 -0.1344  0.2270
   82MOL   C30940971   4.980   0.075   7.503 -0.0742  0.2518 -0.0612
   82MOL   C31040972   5.064   7.736   7.479  0.1342  0.2503 -1.0042
   82MOL   H31140973   4.401   7.725   0.441 -0.0819 -1.5076 -2.3116
   82MOL   H31240974   4.543   0.039   0.441  0.7887  0.4730 -1.5162
   82MOL   H31340975   4.463   7.701   0.167  1.0386 -1.9526  1.8952
   82MOL   H31440976   4.616   7.766   0.007 -2.3466 -2.2958  0.9326
   82MOL   H31540977   4.696   7.662   0.127  1.8855 -0.3829 -1.8440
   82MOL   H31640978   4.884   0.049   0.133  2.3797  1.5719 -1.6805
   82MOL   H31740979   4.768   0.165   0.051  2.1746  1.2668 -2.6806
   82MOL   H31840980   4.862   7.686   7.688 -0.1684 -0.6966  0.8116
   82MOL   H31940981   4.760   0.031   7.625 -0.2970  0.6042  0.3021
   82MOL   H32040982   4.967   0.204   7.667  1.4126 -0.3110  1.1561
   82MOL   H32140983   5.042   0.054   7.715  0.0978 -1.1203 -0.8995
   82MOL   H32240984   4.882   0.078   7.456  0.8147 -1.0081 -2.0911
   82MOL   H32340985   5.028   0.164   7.462 -0.4843  0.1442 -0.7851
   82MOL   H32440986   5.065   7.709   7.373  0.4339  0.8528 -1.1550
   82MOL   H32540987   5.167   7.751   7.512  0.2508 -1.1092 -0.7390
   82MOL   H32640988   5.027   7.646   7.527  0.7805  0.5188 -0.0015
   82MOL   C32740989   4.385   0.113   0.221 -0.0331 -0.5080 -0.0153
   82MOL   C32840990   4.356   0.159   0.077 -0.6116  0.2487  0.4056
   82MOL   O32940991   4.286   0.042   0.021  0.5905 -0.1359 -0.1356
   82MOL   C33040992   4.272   0.032   7.658  0.2992  0.4795  0.3877
   82MOL   C33140993   4.285   7.665   7.619  0.4854  1.2529  0.0884
   82MOL   C33240994   4.416   7.599   7.660  0.2567  0.6437  0.3706
   82MOL   C33340995   4.415   7.446   7.636 -0.2330 -0.6710  0.2399
   82MOL   C33440996   4.555   7.386   7.679 -0.3370 -0.0270  0.0530
   82MOL   C33540997   4.560   7.235   7.663 -0.1607 -0.7909 -0.1346
   82MOL   H33640998   4.418   0.204   0.271 -1.1328  0.2373 -0.6134
   82MOL   H33740999   4.292   0.087   0.272  0.4394 -2.2183 -0.0038
   82MOL   H33841000   4.453   0.173   0.029 -1.9652 -1.8047 -3.1174
   82MOL   H33941001   4.348   0.086   7.601 -0.1855  2.4968  1.5835
   82MOL   H34041002   4.177   0.066   7.616  0.7405  0.8491 -0.3132
   82MOL   H34141003   4.278   7.664   7.510 -0.0605  2.0121  0.1159
   82MOL   H34241004   4.196   7.609   7.647  0.1023  0.9240 -1.7203
   82MOL   H34341005   4.503   7.650   7.617  1.8507 -0.8429  1.7622
   82MOL   H34441006   4.435   7.618   7.766  2.8627 -1.1918  0.2770
   82MOL   H34541007   4.340   7.389   7.689 -0.5745  2.4031  3.2526
   82MOL   H34641008   4.399   7.420   7.531  1.9695 -0.3103 -0.2207
   82MOL   H34741009   4.635   7.433   7.622 -1.0729 -1.6240 -2.4002
   82MOL   H34841010   4.582   7.402   0.004 -1.3619  1.1660  0.1512
   82MOL   H34941011   4.642   7.185   7.715 -1.3339 -1.3679  1.1771
   82MOL   H35041012   4.469   7.202   7.712 -1.1619  1.1457 -0.6217
   82MOL   H35141013   4.548   7.207   7.558 -0.0249  1.1440 -0.6938
   82MOL   C35241014   4.268   0.293   0.065 -0.1089 -0.2558  0.0875
   82MOL   C35341015   4.321   0.424   0.142  0.2083 -0.4821  0.2201
   82MOL   O35441016   4.239   0.529   0.101  0.1254 -0.4304  0.2240
   82MOL   C35541017   4.131   0.558   0.186  0.0546 -0.1673  0.2448
   82MOL   C35641018   4.001   0.594   0.108  0.2878 -0.0366 -0.1940
   82MOL   C35741019   3.877   0.595   0.201 -0.8656  0.0311  0.4770
   82MOL   C35841020   3.747   0.606   0.128  1.1780 -0.7280  0.2968
   82MOL   C35941021   3.629   0.610   0.224  0.3941 -0.0422  0.0059
   82MOL   C36041022   3.496   0.592   0.154  0.0079  0.1689  0.6553
   82MOL   H36141023   4.265   0.308   7.735 -1.7234 -0.2290  0.1294
   82MOL   H36241024   4.169   0.260   0.097  0.5922 -3.4718 -0.8749
   82MOL   H36341025   4.322   0.408   0.250  0.9911 -0.5711  0.2033
   82MOL   H36441026   4.154   0.633   0.262 -1.0003  0.6097 -0.1829
   82MOL   H36541027   4.112   0.467   0.243  1.0472  1.2644  2.9585
   82MOL   H36641028   3.996   0.523   0.026 -0.1165 -1.3116  0.9231
   82MOL   H36741029   4.020   0.696   0.073  2.9205 -1.1299 -2.0201
   82MOL   H36841030   3.875   0.496   0.248 -1.4761  0.4050  1.2325
   82MOL   H36941031   3.888   0.659   0.288  0.6101  1.5004 -0.7638
   82MOL   H37041032   3.741   0.697   0.069  0.3065 -0.1712  1.2079
   82MOL   H37141033   3.736   0.530   0.051 -2.2675 -0.2065  0.1585
   82MOL   H37241034   3.634   0.537   0.304 -1.7139 -0.4907 -0.2321
   82MOL   H37341035   3.624   0.707   0.274 -0.4903  0.5615 -1.1897
   82MOL   H37441036   3.457   0.686   0.116  0.7828  0.2145 -0.0622
   82MOL   H37541037   3.514   0.522   0.072 -0.0199  0.8251  0.0771
   82MOL   H37641038   3.419   0.559   0.223 -2.0257 -0.9862 -2.0614
   82MOL   C37741039   4.464   0.466   0.112  0.3835  0.8438 -0.3441
   82MOL   C37841040   4.532   0.558   0.216 -0.1722  0.0166  0.0650
   82MOL   O37941041   4.660   0.584   0.147 -0.3694  0.1467 -0.0928
   82MOL   C38041042   4.733   0.695   0.199  0.4258  0.0090  0.0235
   82MOL   C38141043   4.866   0.711   0.123  0.6791 -0.0026  0.1012
   82MOL   C38241044   4.972   0.780   0.207  0.4198  0.5623 -0.0586
   82MOL   C38341045   5.116   0.771   0.140 -0.4097 -0.6585 -0.4041
   82MOL   C38441046   5.130   0.857   0.023  0.2477  0.1223 -0.6474
   82MOL   C38541047   5.274   0.868   7.742 -0.6729  0.2594  0.3380
   82MOL   H38641048   4.533   0.384   0.091 -0.6847  0.1486 -1.2345
   82MOL   H38741049   4.456   0.524   0.021 -0.0649  2.0605  0.4611
   82MOL   H38841050   4.483   0.656   0.220 -0.0628  0.0917 -0.3747
   82MOL   H38941051   4.753   0.682   0.306  0.6751 -1.1834 -0.1583
   82MOL   H39041052   4.679   0.787   0.179 -0.3257 -0.2232  0.9108
   82MOL   H39141053   4.854   0.741   0.019  1.1812  0.0449  0.0583
   82MOL   H39241054   4.902   0.608   0.118 -0.3334 -0.4102  0.8139
   82MOL   H39341055   4.943   0.882   0.234 -0.5477 -0.0538  1.2623
   82MOL   H39441056   4.988   0.723   0.299  1.0451 -1.8698 -1.6323
   82MOL   H39541057   5.199   0.783   0.210 -0.8180  0.2004 -0.0608
   82MOL   H39641058   5.133   0.667   0.113  0.8336 -0.5312 -0.1372
   82MOL   H39741059   5.063   0.817   7.725 -1.1767  1.3487 -0.0496
   82MOL   H39841060   5.099   0.958   0.045 -1.9598 -0.4934 -0.8332
   82MOL   H39941061   5.343   0.902   0.041  0.7885 -2.0831  0.0979
   82MOL   H40041062   5.308   0.772   7.705 -3.4183 -0.1306 -1.3040
   82MOL   H40141063   5.278   0.946   7.666 -0.7515  1.3145  1.3955
   82MOL   C40241064   4.553   0.488   0.352  0.8056 -0.6931  0.4770
   82MOL   C40341065   4.450   0.533   0.471  0.2454 -0.3933  0.0257
   82MOL   O40441066   4.477   0.672   0.495  0.4248 -0.2211 -0.0737
   82MOL   C40541067   4.365   0.748   0.521  0.0394 -0.5951 -0.1295
   82MOL   C40641068   4.416   0.889   0.556  0.2793  0.1851  0.0866
   82MOL   C40741069   4.471   0.975   0.447 -0.2184  0.3993  0.4245
   82MOL   C40841070   4.501   1.118   0.482  0.1542 -0.2533  0.5742
   82MOL   C40941071   4.516   1.206   0.362  0.3766 -0.1197  0.6302
   82MOL   C41041072   4.626   1.169   0.273  0.7939  0.1387 -0.3709
   82MOL   H41141073   4.654   0.503   0.389  1.5320 -1.0697 -1.3329
   82MOL   H41241074   4.561   0.380   0.339  0.0872 -1.0472  2.7330
   82MOL   H41341075   4.348   0.522   0.434  0.7736 -0.5943 -1.4335
   82MOL   H41441076   4.315   0.701   0.605 -0.7807 -0.7484 -0.6913
   82MOL   H41541077   4.292   0.749   0.440  0.1665  1.8521 -0.2506
   82MOL   H41641078   4.483   0.880   0.642  0.4157 -2.7526 -0.2457
   82MOL   H41741079   4.324   0.934   0.595 -0.9118 -0.1125 -2.3102
   82MOL   H41841080   4.566   0.931   0.416  0.0183 -0.0696  1.7809
   82MOL   H41941081   4.401   0.974   0.363 -0.0179 -0.8653  0.2628
   82MOL   H42041082   4.421   1.150   0.549  0.3118  0.8963  0.2161
   82MOL   H42141083   4.588   1.123   0.548  0.1949  2.7588  0.3776
   82MOL   H42241084   4.421   1.223   0.313  0.2933  0.2191  0.9111
   82MOL   H42341085   4.533   1.307   0.398 -0.3317  0.4785 -0.6868
   82MOL   H42441086   4.718   1.156   0.330  0.7567  1.2415 -0.0540
   82MOL   H42541087   4.611   1.069   0.232  0.5295  0.4612 -1.0607
   82MOL   H42641088   4.650   1.238   0.193 -3.2587  1.7427 -0.3319
   82MOL   C42741089   4.460   0.453   0.605  0.4695 -0.2884 -0.6237
   82MOL   C42841090   4.604   0.440   0.667  0.0378 -0.2023 -0.2161
   82MOL   O42941091   4.646   0.551   0.742 -0.0822 -0.2938 -0.8656
   82MOL   C43041092   4.730   0.639   0.683 -0.5129 -0.3270 -0.0232
   82MOL   C43141093   4.752   0.757   0.774  0.1445  0.0081  0.1985
   82MOL   C43241094   4.839   0.857   0.703  0.1395  0.3683  0.1824
   82MOL   C43341095   4.894   0.974   0.791  0.2007 -0.1172 -0.3699
   82MOL   C43441096   4.968   1.085   0.718 -0.1328 -0.3847  0.1330
   82MOL   C43541097   5.007   1.204   0.807 -0.4143 -0.1512  0.1607
   82MOL   H43641098   4.388   0.482   0.681  0.4507 -0.0113 -0.7446
   82MOL   H43741099   4.428   0.353   0.573 -1.2369 -0.3976  1.3253
   82MOL   H43841100   4.669   0.423   0.581  0.2229 -2.1649  0.2676
   82MOL   H43941101   4.704   0.675   0.583  2.0081 -1.1147 -1.0047
   82MOL   H44041102   4.828   0.596   0.664 -0.4318 -1.0791  1.9811
   82MOL   H44141103   4.790   0.718   0.868 -0.8295  0.8860  0.9703
   82MOL   H44241104   4.648   0.788   0.785  0.0082 -0.9696  1.8341
   82MOL   H44341105   4.924   0.809   0.654  0.1655  0.4592  0.1385
   82MOL   H44441106   4.775   0.906   0.629  0.5291 -0.3021 -0.6076
   82MOL   H44541107   4.813   1.005   0.857 -0.5652 -1.8367 -0.4696
   82MOL   H44641108   4.957   0.933   0.870  0.3248 -1.3882 -1.1096
   82MOL   H44741109   5.060   1.052   0.671  0.1818 -0.7893  1.0259
   82MOL   H44841110   4.914   1.111   0.627 -0.5152 -0.0118  0.4623
   82MOL   H44941111   5.084   1.260   0.754 -0.3485 -2.6236 -2.5203
   82MOL   H45041112   4.921   1.266   0.830  0.7926  1.4364  0.4767
   82MOL   H45141113   5.036   1.168   0.906 -1.7274 -0.0732  0.5768
   82MOL   C45241114   4.603   0.316   0.759  0.3306  0.6102  0.3636
   82MOL   C45341115   4.738   0.253   0.780 -0.0926  0.1496 -0.0732
   82MOL   O45441116   4.784   0.205   0.657  0.2467 -0.8226  0.3336
   82MOL   C45541117   4.914   0.154   0.651  0.2335  0.2045  0.7693
   82MOL   C45641118   4.962   0.141   0.513  0.7483  0.5983 -0.0331
   82MOL   C45741119   5.003   0.270   0.439  0.7978  0.0118  0.3232
   82MOL   C45841120   5.050   0.248   0.295  0.1206 -0.7229 -0.0073
   82MOL   C45941121   5.121   0.377   0.250  0.0085 -0.0121  0.1527
   82MOL   C46041122   5.130   0.376   0.097 -0.9131 -0.2362 -0.0354
   82MOL   H46141123   4.563   0.345   0.857 -0.5533  3.9131 -0.9011
   82MOL   H46241124   4.535   0.240   0.721  0.2160  1.1424 -0.5076
   82MOL   H46341125   4.792   0.341   0.815  1.2478 -1.0921  1.0517
   82MOL   H46441126   4.922   0.059   0.704 -1.5122 -0.2232  0.2719
   82MOL   H46541127   4.973   0.227   0.707  1.5153  0.0010 -0.2887
   82MOL   H46641128   4.878   0.098   0.458 -0.1070  0.9894  0.9611
   82MOL   H46741129   5.039   0.065   0.496 -0.0926 -0.3404  0.2837
   82MOL   H46841130   4.913   0.331   0.426  0.2028 -1.2676 -1.7475
   82MOL   H46941131   5.076   0.324   0.499 -0.6229  1.3230  0.9190
   82MOL   H47041132   5.114   0.161   0.281 -0.5216 -1.2577  0.3273
   82MOL   H47141133   4.968   0.228   0.225  1.3265 -1.2683 -1.2831
   82MOL   H47241134   5.060   0.465   0.269 -2.3009 -2.0160  2.5482
   82MOL   H47341135   5.219   0.377   0.297  0.0022  2.2354  0.2211
   82MOL   H47441136   5.171   0.290   0.045 -1.5163 -0.7123  0.2743
   82MOL   H47541137   5.030   0.391   0.057 -0.7877 -1.2569 -0.7589
   82MOL   H47641138   5.181   0.463   0.055  3.3936 -1.7375  1.8552
   82MOL   C47741139   4.743   0.148   0.902 -0.0234 -0.2186 -0.6666
   82MOL   C47841140   4.680   0.189   1.031 -1.0817 -0.2156  0.6722
   82MOL   O47941141   4.716   0.099   1.134 -0.4174  0.3005 -0.4574
   82MOL   C48041142   4.734   0.140   1.267  0.5371 -0.6620  0.3262
   82MOL   C48141143   4.865   0.203   1.297  0.8136 -0.3441 -0.0308
   82MOL   C48241144   4.974   0.097   1.274  0.5766  0.0218  0.3754
   82MOL   C48341145   5.122   0.130   1.305  0.0200 -0.7389 -0.2121
   82MOL   C48441146   5.187   0.238   1.218 -0.5219 -0.3829  1.0944
   82MOL   C48541147   5.223   0.194   1.071 -0.1316 -0.3207 -0.4143
   82MOL   H48641148   4.701   0.054   0.867 -2.3830  0.0625  1.2853
   82MOL   H48741149   4.847   0.136   0.935 -0.5974 -2.6668  0.3637
   82MOL   H48841150   4.706   0.291   1.058  1.8242 -1.0559  1.3167
   82MOL   H48941151   4.742   0.052   1.330  1.7417 -1.5434 -1.0325
   82MOL   H49041152   4.652   0.202   1.303  1.4381  1.1280 -0.6215
   82MOL   H49141153   4.867   0.239   1.400 -0.0003  0.7665 -0.3865
   82MOL   H49241154   4.884   0.293   1.239  1.0200 -0.9293 -0.8750
   82MOL   H49341155   4.948   0.008   1.330  2.7764 -0.5522  0.5376
   82MOL   H49441156   4.971   0.068   1.169 -1.5675 -0.6460  0.6050
   82MOL   H49541157   5.136   0.160   1.409  3.4270 -1.7803 -0.3043
   82MOL   H49641158   5.183   0.040   1.294  2.2101  0.5380  1.2448
   82MOL   H49741159   5.131   0.331   1.216  1.2445  0.7214  1.4569
   82MOL   H49841160   5.277   0.270   1.270 -0.6386  0.6930  0.6389
   82MOL   H49941161   5.271   0.276   1.016 -1.7930  1.1896  0.3357
   82MOL   H50041162   5.302   0.119   1.077  2.3817  2.3819  1.5366
   82MOL   H50141163   5.134   0.153   1.022 -0.1441  0.2302 -0.8622
   82MOL   H50241164   4.572   0.194   1.018 -1.1517  0.3457  1.4434
   83MOL     C141165   4.809   5.868   2.563  0.5540  0.6478 -0.5252
   83MOL     C241166   4.780   5.964   2.449  0.2452  0.1917 -0.0257
   83MOL     O341167   4.801   6.091   2.495  0.0215 -0.1159 -0.2185
   83MOL     C441168   4.934   6.130   2.531  0.1513 -0.6362 -0.2267
   83MOL     C541169   4.923   6.286   2.523  0.3674 -0.1690 -0.0955
   83MOL     C641170   5.047   6.362   2.570  0.4993 -0.4157 -0.5102
   83MOL     C741171   5.012   6.515   2.574  0.7370 -0.2025 -0.6205
   83MOL     C841172   5.151   6.592   2.569 -0.0313 -0.3752 -0.0168
   83MOL     C941173   5.153   6.744   2.545  0.0943  0.0946  0.4337
   83MOL    H1041174   4.759   5.911   2.650 -0.1262 -1.5325  0.1816
   83MOL    H1141175   4.773   5.766   2.554  1.6331  0.0018  1.9240
   83MOL    H1241176   4.843   5.952   2.361  0.5161  1.8226 -0.0628
   83MOL    H1341177   5.017   6.089   2.474  0.1121 -0.0130 -0.7496
   83MOL    H1441178   4.953   6.086   2.629  0.2648 -1.6581 -0.7000
   83MOL    H1541179   4.833   6.319   2.574 -1.2631 -2.4263 -1.4328
   83MOL    H1641180   4.898   6.319   2.422 -2.8386 -2.5696 -0.1545
   83MOL    H1741181   5.090   6.325   2.663 -1.9643  0.2155  0.9251
   83MOL    H1841182   5.120   6.325   2.498  1.1603  1.2008 -0.6875
   83MOL    H1941183   4.964   6.537   2.479  2.3955 -1.3433 -1.7507
   83MOL    H2041184   4.950   6.542   2.659 -0.9731 -4.7547 -0.3105
   83MOL    H2141185   5.219   6.559   2.491  1.2655  0.1340  0.8659
   83MOL    H2241186   5.195   6.580   2.668 -0.6195  0.5980  0.3756
   83MOL    H2341187   5.107   6.767   2.449 -1.0315  2.5748  1.5250
   83MOL    H2441188   5.086   6.785   2.620  0.7599  0.3023  0.9152
   83MOL    H2541189   5.255   6.780   2.559  0.3462  0.7359 -2.6733
   83MOL    H2641190   4.914   5.858   2.590 -0.0680  2.6528  3.0029
   83MOL    C2741191   4.642   5.951   2.386  0.2382 -0.2985  0.5870
   83MOL    C2841192   4.603   5.829   2.297  0.3313 -0.6438 -0.1662
   83MOL    O2941193   4.458   5.835   2.274 -0.3099  0.2202 -0.4741
   83MOL    C3041194   4.389   5.721   2.244  0.8108  0.0330 -1.0901
   83MOL    C3141195   4.242   5.751   2.270  0.2683  0.9434  0.6062
   83MOL    C3241196   4.153   5.627   2.272 -0.0596 -0.3148 -0.6006
   83MOL    C3341197   4.015   5.645   2.332 -0.2897 -0.3184  0.3632
   83MOL    C3441198   4.005   5.662   2.486 -0.0924  0.1263  0.2033
   83MOL    C3541199   4.054   5.549   2.572 -0.6628 -0.4422 -0.7801
   83MOL    H3641200   4.573   5.965   2.469  0.6220 -0.5759  0.9504
   83MOL    H3741201   4.624   6.045   2.334 -2.0085 -0.1035  1.6728
   83MOL    H3841202   4.627   5.734   2.346  1.4935  0.5277  1.5810
   83MOL    H3941203   4.423   5.643   2.313 -1.2071  1.4253  1.5639
   83MOL    H4041204   4.411   5.698   2.140  2.8955  1.8431 -1.0942
   83MOL    H4141205   4.201   5.821   2.197  1.6839 -1.7347 -2.9027
   83MOL    H4241206   4.246   5.793   2.371 -1.3678 -2.0634  1.9826
   83MOL    H4341207   4.156   5.593   2.168  0.1810  1.1842 -1.0952
   83MOL    H4441208   4.197   5.547   2.331  0.1683  0.2115 -0.0529
   83MOL    H4541209   3.969   5.731   2.282 -0.4065 -1.2046 -1.0926
   83MOL    H4641210   3.966   5.549   2.314  0.4201 -1.0989  2.4981
   83MOL    H4741211   4.060   5.749   2.522 -1.7366  0.3001  2.3659
   83MOL    H4841212   3.910   5.686   2.535  0.3828  0.3849  1.0020
   83MOL    H4941213   4.000   5.465   2.526  0.1231 -1.4882  0.1830
   83MOL    H5041214   4.162   5.540   2.568 -0.1941  3.0317  2.0064
   83MOL    H5141215   4.030   5.552   2.678 -0.3512 -1.1486 -0.6830
   83MOL    C5241216   4.676   5.822   2.162 -0.0920 -0.0044 -0.1586
   83MOL    C5341217   4.820   5.781   2.156 -0.4145  0.7593 -0.5137
   83MOL    O5441218   4.845   5.651   2.210  0.0794 -0.0350 -0.2178
   83MOL    C5541219   4.945   5.654   2.314  0.3617  0.4738  0.0421
   83MOL    C5641220   4.956   5.516   2.376 -0.5362  0.0909 -0.5198
   83MOL    C5741221   4.822   5.473   2.427  0.0795 -0.0857 -0.9883
   83MOL    C5841222   4.824   5.343   2.519 -0.8311 -0.4999 -0.7412
   83MOL    C5941223   4.691   5.294   2.569  0.0194 -0.0480 -0.1507
   83MOL    C6041224   4.701   5.179   2.669 -0.8175  0.7304  0.4641
   83MOL    H6141225   4.652   5.920   2.121 -4.3378 -0.0411  1.9562
   83MOL    H6241226   4.623   5.753   2.097  1.1100 -0.4451 -0.6824
   83MOL    H6341227   4.889   5.859   2.190 -0.8599  0.1226  1.8977
   83MOL    H6441228   4.907   5.716   2.395  0.2909 -0.9732  1.1306
   83MOL    H6541229   5.038   5.700   2.283 -0.1977  0.9458 -0.9760
   83MOL    H6641230   5.022   5.521   2.463  1.0987 -1.8373 -1.6188
   83MOL    H6741231   4.987   5.439   2.305  2.9209 -0.2790  1.2974
   83MOL    H6841232   4.770   5.555   2.477  0.1558  0.6654 -2.1290
   83MOL    H6941233   4.769   5.459   2.333  1.8906  1.2737 -2.2560
   83MOL    H7041234   4.875   5.260   2.469  1.9322 -0.3775  1.7233
   83MOL    H7141235   4.885   5.377   2.603 -0.2542 -1.2027 -0.8664
   83MOL    H7241236   4.636   5.372   2.620 -0.7531 -0.8027  0.1766
   83MOL    H7341237   4.623   5.261   2.490 -1.5214  0.0331  1.1177
   83MOL    H7441238   4.787   5.113   2.658 -1.6579 -0.4601  0.9415
   83MOL    H7541239   4.694   5.206   2.775  0.2981  1.8782  0.2502
   83MOL    H7641240   4.620   5.107   2.654 -0.8908  0.3248  2.6001
   83MOL    C7741241   4.860   5.771   2.005 -0.4599 -0.1813  0.0255
   83MOL    C7841242   4.896   5.905   1.939 -0.1299  0.0268  0.0632
   83MOL    O7941243   4.922   5.870   1.802  0.1162 -0.2701 -0.9081
   83MOL    C8041244   4.832   5.931   1.709  0.9094  0.0762 -0.1441
   83MOL    C8141245   4.832   5.866   1.572 -0.1344 -0.5974 -0.1789
   83MOL    C8241246   4.740   5.953   1.481 -0.1955  0.5961  0.2702
   83MOL    C8341247   4.718   5.906   1.342  0.0823  1.0181 -0.0033
   83MOL    C8441248   4.634   5.773   1.339  0.3559 -0.1326  0.1539
   83MOL    C8541249   4.596   5.729   1.200  0.0235 -0.2619  0.3951
   83MOL    H8641250   4.784   5.725   1.942 -2.3403  0.4390  1.7519
   83MOL    H8741251   4.948   5.708   2.000 -0.3556 -0.0056 -0.3714
   83MOL    H8841252   4.807   5.968   1.948 -1.1881 -1.5349  0.7180
   83MOL    H8941253   4.858   6.036   1.706  0.5423  0.1844  0.4171
   83MOL    H9041254   4.730   5.918   1.745  1.1318  0.4591  0.6313
   83MOL    H9141255   4.804   5.760   1.570 -1.1009 -0.3460 -0.0501
   83MOL    H9241256   4.936   5.867   1.539  0.2391 -0.0107  0.9677
   83MOL    H9341257   4.642   5.962   1.527 -0.2283  0.1023  0.2965
   83MOL    H9441258   4.779   6.055   1.472  0.5184  0.3906  0.9731
   83MOL    H9541259   4.661   5.983   1.290  0.2809  0.2630 -1.3474
   83MOL    H9641260   4.814   5.892   1.293  0.2650  0.9216  0.3806
   83MOL    H9741261   4.687   5.694   1.391 -1.0369  0.0613  1.9196
   83MOL    H9841262   4.541   5.792   1.392 -0.3122 -1.0127 -0.6932
   83MOL    H9941263   4.685   5.722   1.137  0.5214 -0.5032  1.1231
   83MOL   H10041264   4.547   5.632   1.193  0.3016 -0.4715  1.2799
   83MOL   H10141265   4.523   5.796   1.154  0.5312 -0.4007 -0.6338
   83MOL   C10241266   5.012   5.988   1.998 -0.2614  0.6488  0.1232
   83MOL   C10341267   5.025   6.125   1.926 -0.2121  0.4563  0.6598
   83MOL   O10441268   5.061   6.223   2.021 -0.3317  0.3459  0.2725
   83MOL   C10541269   4.960   6.301   2.092 -0.2758  0.1103 -1.1196
   83MOL   C10641270   5.034   6.412   2.174  0.0387  0.4859  0.4562
   83MOL   C10741271   5.104   6.525   2.099 -0.7134 -0.1209 -0.2575
   83MOL   C10841272   5.021   6.607   2.005 -0.1064 -0.1638 -0.8097
   83MOL   C10941273   5.096   6.709   1.911  0.7330 -0.2423 -0.4139
   83MOL   C11041274   4.999   6.759   1.799  0.4316 -0.5338 -0.1881
   83MOL   H11141275   5.001   6.020   2.102  0.5100  0.6449  0.2091
   83MOL   H11241276   5.112   5.946   1.983 -0.8959 -0.3965 -1.2585
   83MOL   H11341277   4.927   6.154   1.888  0.2548  0.6395 -0.4133
   83MOL   H11441278   4.899   6.233   2.151 -0.3982  2.8449  2.0321
   83MOL   H11541279   4.893   6.345   2.017 -0.1723 -1.1123 -1.9437
   83MOL   H11641280   5.098   6.357   2.243 -0.2549 -1.2296 -0.6079
   83MOL   H11741281   4.955   6.454   2.237 -1.1222 -2.3186  0.9637
   83MOL   H11841282   5.152   6.593   2.170  1.6366 -2.1409  0.1438
   83MOL   H11941283   5.193   6.482   2.053  2.5738  3.2134  2.6128
   83MOL   H12041284   4.971   6.531   1.945  0.4920 -0.7231 -0.5959
   83MOL   H12141285   4.941   6.658   2.059 -2.0997 -2.7697 -1.2085
   83MOL   H12241286   5.142   6.791   1.965  2.7052 -0.6788 -1.3707
   83MOL   H12341287   5.178   6.651   1.868 -0.9386 -2.9760 -0.0469
   83MOL   H12441288   4.975   6.665   1.749 -0.1741 -0.7800  0.5476
   83MOL   H12541289   4.909   6.794   1.849  0.4134 -1.0605  0.1528
   83MOL   H12641290   5.052   6.829   1.735  1.6396 -0.4310  0.9094
   83MOL   C12741291   5.125   6.126   1.808 -0.1100  0.3908  0.4740
   83MOL   C12841292   5.139   6.247   1.714 -0.2821 -0.3368 -0.7464
   83MOL   O12941293   5.017   6.259   1.634  0.3490  0.2692  0.0296
   83MOL   C13041294   4.992   6.387   1.579 -0.0721  0.5318  0.1980
   83MOL   C13141295   4.849   6.379   1.528 -0.7531  0.5809 -0.2063
   83MOL   C13241296   4.738   6.378   1.634 -0.3206 -0.0072 -0.3611
   83MOL   C13341297   4.601   6.404   1.573 -0.5054 -0.0654  0.1862
   83MOL   C13441298   4.480   6.429   1.668  0.7130  0.4523 -0.1593
   83MOL   C13541299   4.458   6.323   1.778  0.0047  0.7873  0.4375
   83MOL   H13641300   5.219   6.116   1.862 -0.1046  2.0114  0.7896
   83MOL   H13741301   5.116   6.037   1.745 -0.5963  1.1557 -0.5530
   83MOL   H13841302   5.148   6.333   1.781 -1.0720  0.8575 -2.1511
   83MOL   H13941303   5.063   6.405   1.499  1.2703  1.4436  1.5551
   83MOL   H14041304   5.018   6.464   1.653 -2.1775  0.1522  1.3867
   83MOL   H14141305   4.826   6.290   1.469  0.6642  0.2949 -0.3423
   83MOL   H14241306   4.835   6.470   1.471 -1.5983  1.0447  0.7301
   83MOL   H14341307   4.738   6.281   1.684  1.1245 -1.0052 -2.1946
   83MOL   H14441308   4.764   6.445   1.715 -2.6630  1.0823 -0.4707
   83MOL   H14541309   4.609   6.496   1.516  0.4851 -0.2891 -0.0440
   83MOL   H14641310   4.572   6.327   1.501  1.1896 -0.7651  0.2437
   83MOL   H14741311   4.506   6.519   1.724  1.4583  1.7265 -2.4429
   83MOL   H14841312   4.395   6.439   1.600  1.0133 -1.8626 -0.9106
   83MOL   H14941313   4.365   6.338   1.833 -0.1595  0.4318  0.2585
   83MOL   H15041314   4.448   6.225   1.731 -0.1877  0.7712  0.5105
   83MOL   H15141315   4.539   6.295   1.845  2.4559  0.3483 -2.5908
   83MOL   C15241316   5.266   6.250   1.628 -0.3587  0.0914  0.2759
   83MOL   C15341317   5.407   6.232   1.700  0.6251  0.7976  0.0140
   83MOL   O15441318   5.493   6.214   1.596  0.4854 -0.3413  0.5386
   83MOL   C15541319   5.611   6.151   1.621 -0.2650 -0.4234  0.2579
   83MOL   C15641320   5.683   6.127   1.489 -0.1037 -0.2434 -0.2944
   83MOL   C15741321   5.621   6.000   1.415 -0.3488 -0.2535  0.1600
   83MOL   C15841322   5.674   5.963   1.269 -0.0035  0.7913  0.4079
   83MOL   C15941323   5.577   5.884   1.182  0.2476  1.0324 -0.0431
   83MOL   C16041324   5.482   5.978   1.108 -0.4193  0.0875  0.0158
   83MOL   H16141325   5.250   6.177   1.548  0.0842 -1.0327  1.2054
   83MOL   H16241326   5.256   6.351   1.588 -0.0344  0.1798  0.4226
   83MOL   H16341327   5.407   6.134   1.748  2.6783  0.6360 -0.2571
   83MOL   H16441328   5.592   6.057   1.673  0.6857 -1.1484 -0.6704
   83MOL   H16541329   5.676   6.210   1.686  0.1876 -1.6114  0.9005
   83MOL   H16641330   5.790   6.107   1.497 -0.0412  0.0165 -0.4849
   83MOL   H16741331   5.667   6.219   1.434 -1.6595  0.1844  0.8404
   83MOL   H16841332   5.650   5.909   1.467 -2.0497 -0.6388  0.4723
   83MOL   H16941333   5.514   6.017   1.420 -0.4640 -1.0066  0.2864
   83MOL   H17041334   5.686   6.061   1.222 -0.4657  2.6770  4.0743
   83MOL   H17141335   5.771   5.916   1.281 -0.5940 -0.6122 -0.1819
   83MOL   H17241336   5.630   5.822   1.110  1.3149 -1.4226  2.7687
   83MOL   H17341337   5.509   5.813   1.227 -0.5090  1.4899 -0.4454
   83MOL   H17441338   5.410   6.022   1.176 -0.2515  1.2754 -0.5687
   83MOL   H17541339   5.531   6.053   1.047  0.0622 -0.8673 -0.7904
   83MOL   H17641340   5.420   5.932   1.030 -0.0591 -1.2466  0.4927
   83MOL   C17741341   5.458   6.345   1.797  0.5880  0.6053 -0.2821
   83MOL   C17841342   5.533   6.289   1.927 -0.1377 -0.5123  0.4715
   83MOL   O17941343   5.561   6.401   2.006 -0.0852 -0.7711 -0.4000
   83MOL   C18041344   5.677   6.472   1.984  0.1534  0.6648  0.8800
   83MOL   C18141345   5.680   6.594   2.070 -0.0285 -0.1532  0.0037
   83MOL   C18241346   5.655   6.574   2.220  0.9543 -0.1489 -0.0231
   83MOL   C18341347   5.651   6.716   2.285 -0.4017  0.0810  0.2135
   83MOL   C18441348   5.638   6.713   2.438 -0.5767 -0.0340 -0.6935
   83MOL   C18541349   5.761   6.665   2.509 -0.3705  0.3439  0.0911
   83MOL   H18641350   5.519   6.405   1.728 -1.0487  1.3174 -1.1339
   83MOL   H18741351   5.373   6.405   1.829  1.4558  1.5496  0.2772
   83MOL   H18841352   5.614   6.217   1.915 -3.0698 -3.6628 -1.1016
   83MOL   H18941353   5.666   6.503   1.880 -2.4114  0.9915  1.1955
   83MOL   H19041354   5.761   6.405   2.001 -0.4334 -0.5710 -0.8763
   83MOL   H19141355   5.618   6.661   2.011 -0.4206 -1.9601 -1.6495
   83MOL   H19241356   5.779   6.638   2.055 -0.6510  0.8088 -1.3665
   83MOL   H19341357   5.561   6.521   2.231  0.3367  1.1318  1.0135
   83MOL   H19441358   5.735   6.518   2.269  3.1319  0.7598 -2.3876
   83MOL   H19541359   5.736   6.782   2.263  0.5727 -1.3782 -0.4687
   83MOL   H19641360   5.557   6.760   2.250 -0.3950  0.3597  0.5386
   83MOL   H19741361   5.629   6.816   2.472 -1.0978 -0.0571 -0.7511
   83MOL   H19841362   5.557   6.654   2.482  0.1335 -0.2768  0.3244
   83MOL   H19941363   5.816   6.590   2.453  0.8485  0.2796  1.3753
   83MOL   H20041364   5.841   6.739   2.511  1.7684 -1.9204  0.3417
   83MOL   H20141365   5.751   6.615   2.605  1.5684 -1.1814 -0.4737
   83MOL   C20241366   5.443   6.191   2.005  0.6166 -0.1674  0.8057
   83MOL   C20341367   5.482   6.157   2.144  0.1223  0.5262 -0.5205
   83MOL   O20441368   5.590   6.059   2.143 -0.6480  0.4507  0.2375
   83MOL   C20541369   5.726   6.110   2.146  0.4993  0.3055  0.1341
   83MOL   C20641370   5.826   6.003   2.112 -0.5937 -0.4466  0.2729
   83MOL   C20741371   5.813   5.945   1.974  0.0824 -0.1034 -0.0020
   83MOL   C20841372   5.915   5.841   1.953 -0.0332 -1.0956  0.0839
   83MOL   C20941373   5.862   5.729   1.853  1.7124 -0.4852 -0.2270
   83MOL   C21041374   5.876   5.754   1.701 -0.5067 -0.2714 -0.0043
   83MOL   H21141375   5.344   6.237   2.009  0.3623 -0.4870 -1.1651
   83MOL   H21241376   5.421   6.097   1.955  1.7903 -1.2128  2.2019
   83MOL   H21341377   5.511   6.254   2.182  1.5174 -0.6477  1.4738
   83MOL   H21441378   5.743   6.152   2.245 -0.5505  2.3751 -0.5309
   83MOL   H21541379   5.749   6.191   2.076  1.0624 -0.0598 -0.1135
   83MOL   H21641380   5.828   5.917   2.179  0.3992 -1.2205 -0.7363
   83MOL   H21741381   5.927   6.043   2.123 -1.2928  1.3262  0.3446
   83MOL   H21841382   5.713   5.903   1.969  0.5093 -1.1578  0.1390
   83MOL   H21941383   5.810   6.022   1.898  2.0093 -1.4713 -1.5224
   83MOL   H22041384   6.007   5.891   1.922 -0.6094  1.5352  2.4478
   83MOL   H22141385   5.955   5.793   2.042  2.4078  0.2707 -0.2497
   83MOL   H22241386   5.921   5.642   1.881  0.0300 -1.2719  0.9831
   83MOL   H22341387   5.758   5.702   1.873  1.3783  0.5210 -0.5412
   83MOL   H22441388   5.801   5.821   1.660  0.4181  0.5089 -0.4259
   83MOL   H22541389   5.972   5.803   1.686 -1.4580  0.8175 -2.7411
   83MOL   H22641390   5.866   5.659   1.648 -0.7783  0.9497 -2.1733
   83MOL   C22741391   5.361   6.112   2.229 -0.1443  0.1403  0.2683
   83MOL   C22841392   5.394   6.070   2.375  0.2869 -0.2302  0.1711
   83MOL   O22941393   5.368   6.179   2.456  0.0708 -0.0797  0.1847
   83MOL   C23041394   5.485   6.227   2.516 -0.1663 -0.1991  0.5490
   83MOL   C23141395   5.432   6.285   2.651 -0.3891  0.3482 -0.5447
   83MOL   C23241396   5.538   6.366   2.726 -0.4441 -0.8161 -0.3842
   83MOL   C23341397   5.482   6.422   2.861  0.1129 -0.4195 -0.0796
   83MOL   C23441398   5.579   6.509   2.939  0.1802 -0.1274  0.3560
   83MOL   C23541399   5.530   6.568   3.067 -0.5179 -0.6070  0.2793
   83MOL   H23641400   5.283   6.188   2.229 -2.4632 -2.1763  1.2628
   83MOL   H23741401   5.315   6.030   2.174 -3.0999  3.2426 -2.1242
   83MOL   H23841402   5.493   6.024   2.377  0.8035  0.7693 -1.2385
   83MOL   H23941403   5.534   6.309   2.464 -0.1992  0.2869  1.2732
   83MOL   H24041404   5.561   6.152   2.536  0.3882 -0.2679 -1.6844
   83MOL   H24141405   5.398   6.206   2.719  1.1178 -1.4825 -1.8651
   83MOL   H24241406   5.345   6.347   2.631 -0.4177  0.6772  0.5455
   83MOL   H24341407   5.625   6.305   2.748  0.0517 -0.8752 -2.3820
   83MOL   H24441408   5.567   6.444   2.655 -2.1364  0.6856  0.5097
   83MOL   H24541409   5.391   6.481   2.849  1.6488  1.5805 -2.4855
   83MOL   H24641410   5.466   6.341   2.932  1.4242  0.4593  1.2640
   83MOL   H24741411   5.663   6.442   2.962 -1.9051 -2.5320  1.1487
   83MOL   H24841412   5.615   6.582   2.867  1.1950  0.1028  1.0719
   83MOL   H24941413   5.455   6.641   3.037 -1.2525 -1.9297 -1.1668
   83MOL   H25041414   5.468   6.495   3.120 -0.6740  0.2983  1.3722
   83MOL   H25141415   5.611   6.596   3.134 -0.4538  0.0878 -0.0884
   83MOL   C25241416   5.297   5.960   2.429 -0.5351  0.0689 -0.2976
   83MOL   C25341417   5.337   5.812   2.383 -0.6841  0.1330  0.1352
   83MOL   O25441418   5.321   5.802   2.241 -0.2993  0.1488  0.1928
   83MOL   C25541419   5.395   5.706   2.175 -0.1641  0.3717 -0.0881
   83MOL   C25641420   5.415   5.747   2.029 -0.5998  0.5473 -0.3809
   83MOL   C25741421   5.302   5.691   1.934  0.1267  0.2983  0.6297
   83MOL   C25841422   5.333   5.737   1.793 -0.3443  0.3348 -0.4848
   83MOL   C25941423   5.232   5.688   1.693 -0.5063  0.1229 -0.3331
   83MOL   C26041424   5.248   5.758   1.562  0.4861 -0.0320  0.8814
   83MOL   H26141425   5.299   5.975   2.537  1.2657 -1.1130 -0.1388
   83MOL   H26241426   5.195   5.979   2.397  0.1013  2.2848 -1.1047
   83MOL   H26341427   5.443   5.798   2.404 -0.7105 -1.0569 -0.4798
   83MOL   H26441428   5.339   5.612   2.168  1.3308 -0.4461 -1.2247
   83MOL   H26541429   5.491   5.685   2.221  0.0552  1.2107 -0.1529
   83MOL   H26641430   5.511   5.710   1.992  0.3944  2.7588 -0.1271
   83MOL   H26741431   5.418   5.856   2.026 -1.6607  0.6542  1.9106
   83MOL   H26841432   5.307   5.582   1.934 -1.2401  0.2299  0.9393
   83MOL   H26941433   5.200   5.720   1.960 -1.2999  0.2321 -4.3483
   83MOL   H27041434   5.339   5.846   1.787 -0.6997  0.3343 -0.8519
   83MOL   H27141435   5.434   5.703   1.769 -0.5889 -0.8996  0.2489
   83MOL   H27241436   5.253   5.582   1.685 -0.8731 -0.1910  2.3791
   83MOL   H27341437   5.128   5.696   1.725  0.0192  0.2438  1.4170
   83MOL   H27441438   5.216   5.862   1.569 -1.4266 -0.3080 -2.4670
   83MOL   H27541439   5.349   5.763   1.522 -0.6835  2.4125 -1.9659
   83MOL   H27641440   5.205   5.712   1.472  1.5245  0.4894  0.1028
   83MOL   C27741441   5.258   5.698   2.448 -0.0389 -0.0292 -0.8180
   83MOL   C27841442   5.329   5.638   2.569  0.5681 -0.1465 -0.4225
   83MOL   O27941443   5.226   5.563   2.635 -0.5416  0.7736 -0.2846
   83MOL   C28041444   5.173   5.637   2.743 -0.1097 -0.0313  0.0927
   83MOL   C28141445   5.045   5.584   2.809 -0.7454  0.4375 -0.3020
   83MOL   C28241446   5.071   5.447   2.868  1.0768  0.3203  0.3010
   83MOL   C28341447   4.948   5.381   2.937 -0.6515 -0.1417 -1.0492
   83MOL   C28441448   4.987   5.254   3.014  0.1889  0.9364  0.0742
   83MOL   C28541449   4.862   5.174   3.053 -0.0997 -0.8502 -0.1788
   83MOL   H28641450   5.161   5.741   2.471  0.2774  0.9679 -1.3087
   83MOL   H28741451   5.244   5.623   2.370 -0.9881 -2.4752  1.6340
   83MOL   H28841452   5.375   5.716   2.631 -1.4929  0.9874 -0.2685
   83MOL   H28941453   5.163   5.743   2.722  0.6992  0.3445  1.5141
   83MOL   H29041454   5.253   5.638   2.817  0.4837  1.3944 -0.5394
   83MOL   H29141455   4.965   5.574   2.736 -0.7563 -1.0648 -0.0968
   83MOL   H29241456   5.021   5.647   2.894  0.7164  2.6405 -1.4651
   83MOL   H29341457   5.116   5.375   2.800  1.2388  1.9340 -1.3330
   83MOL   H29441458   5.150   5.463   2.941 -1.5078  1.5050  2.9390
   83MOL   H29541459   4.916   5.463   3.001  1.8188  1.2221 -1.4828
   83MOL   H29641460   4.866   5.363   2.869 -1.4774 -0.5620  0.0472
   83MOL   H29741461   5.046   5.188   2.950  0.7022  0.0056  1.4859
   83MOL   H29841462   5.053   5.273   3.099 -0.7284 -0.6751  1.1587
   83MOL   H29941463   4.780   5.183   2.982 -0.2327 -0.2548  0.0474
   83MOL   H30041464   4.880   5.070   3.079  1.1987 -0.6595 -0.2519
   83MOL   H30141465   4.819   5.223   3.141  0.0384  0.3013 -0.7478
   83MOL   C30241466   5.437   5.540   2.520  1.2041 -0.9293  0.1459
   83MOL   C30341467   5.539   5.515   2.635  0.2116  0.3007  0.1299
   83MOL   O30441468   5.608   5.633   2.670 -0.1426 -0.0596  0.2437
   83MOL   C30541469   5.604   5.684   2.801 -1.2184  0.5852  0.2560
   83MOL   C30641470   5.734   5.764   2.820  0.7646  0.2003 -0.2673
   83MOL   C30741471   5.741   5.882   2.725 -0.5645  0.1662 -0.4124
   83MOL   C30841472   5.875   5.956   2.733  0.3204 -0.1143 -0.0155
   83MOL   C30941473   5.873   6.095   2.670 -0.0731  0.2019  0.3755
   83MOL   C31041474   5.860   6.096   2.513  0.1678 -0.0008 -0.5747
   83MOL   H31141475   5.388   5.457   2.469  0.3185  0.1915 -0.8526
   83MOL   H31241476   5.491   5.587   2.438  0.7620 -2.5306 -1.0921
   83MOL   H31341477   5.476   5.478   2.717  0.3696  3.6669  1.8357
   83MOL   H31441478   5.594   5.609   2.880  2.8187  0.9273  1.1548
   83MOL   H31541479   5.515   5.746   2.810 -1.2017  0.5528  0.6533
   83MOL   H31641480   5.814   5.693   2.804  0.3887 -0.0590 -1.0222
   83MOL   H31741481   5.748   5.792   2.925  0.2830  0.3656 -0.2447
   83MOL   H31841482   5.721   5.843   2.626 -4.0008 -0.3211  0.4029
   83MOL   H31941483   5.663   5.957   2.742  1.5831  2.0343  1.6810
   83MOL   H32041484   5.907   5.958   2.837  2.2168 -1.1882 -0.5659
   83MOL   H32141485   5.952   5.894   2.688  1.1262  0.3097  0.7651
   83MOL   H32241486   5.789   6.149   2.713 -0.4283  0.2356 -0.3532
   83MOL   H32341487   5.961   6.151   2.705  0.2653 -1.3290  2.0268
   83MOL   H32441488   5.767   6.042   2.496  1.5143 -2.8004  0.6750
   83MOL   H32541489   5.851   6.195   2.467 -1.2135  0.3491  0.4135
   83MOL   H32641490   5.938   6.033   2.471 -0.8138  0.3155 -2.9461
   83MOL   C32741491   5.633   5.399   2.593  0.3759 -1.0533  0.5914
   83MOL   C32841492   5.724   5.358   2.709 -0.5327  0.1420  0.0906
   83MOL   O32941493   5.649   5.271   2.795  0.2950 -0.0057  0.7463
   83MOL   C33041494   5.668   5.290   2.931 -0.2114 -0.2928 -1.0428
   83MOL   C33141495   5.569   5.202   2.998 -0.0124  0.2365  0.6224
   83MOL   C33241496   5.589   5.200   3.149 -0.1133  0.0016 -0.6543
   83MOL   C33341497   5.490   5.127   3.239 -0.0444 -0.1784 -0.2297
   83MOL   C33441498   5.503   5.153   3.394 -0.3891 -0.1738  0.0993
   83MOL   C33541499   5.616   5.072   3.462  0.0274  0.2365  0.2897
   83MOL   H33641500   5.691   5.431   2.507  0.3764 -1.5797  0.3934
   83MOL   H33741501   5.568   5.319   2.558  0.6153 -1.0288  0.0898
   83MOL   H33841502   5.762   5.445   2.764  1.0242 -0.3691 -0.1533
   83MOL   H33941503   5.651   5.395   2.955  1.9948  0.2038 -1.4880
   83MOL   H34041504   5.766   5.270   2.975 -0.5407  0.8851  0.2800
   83MOL   H34141505   5.580   5.103   2.955  0.2572  0.6260 -0.2137
   83MOL   H34241506   5.469   5.230   2.964  0.4028 -1.2616 -2.0024
   83MOL   H34341507   5.691   5.166   3.161  0.8267  3.1008  0.6234
   83MOL   H34441508   5.603   5.306   3.172 -2.1185  0.3987 -1.1205
   83MOL   H34541509   5.388   5.158   3.218 -0.6934 -0.6726  2.0815
   83MOL   H34641510   5.475   5.022   3.216  1.1102 -0.3487 -0.2480
   83MOL   H34741511   5.508   5.259   3.422 -0.4392  0.1833 -1.2124
   83MOL   H34841512   5.405   5.123   3.429 -1.0527 -1.3474 -2.6534
   83MOL   H34941513   5.707   5.083   3.402  1.9400 -1.1535  2.8392
   83MOL   H35041514   5.629   5.102   3.566 -0.9300  2.6040 -0.2309
   83MOL   H35141515   5.596   4.966   3.452 -2.7346  0.7444  0.0486
   83MOL   C35241516   5.851   5.303   2.656 -0.0393  0.5028 -0.0072
   83MOL   C35341517   5.980   5.293   2.739  0.2713 -0.2256  0.9836
   83MOL   O35441518   6.012   5.417   2.792  0.0646 -0.8032 -0.5094
   83MOL   C35541519   6.137   5.443   2.869 -0.1897  1.1710  0.3699
   83MOL   C35641520   6.130   5.576   2.937  0.5395 -0.3693  0.5379
   83MOL   C35741521   6.271   5.620   2.995  0.4744 -0.3529 -0.1593
   83MOL   C35841522   6.270   5.757   3.061  0.3855 -0.8560 -0.4230
   83MOL   C35941523   6.403   5.780   3.126  0.5030  0.5876 -0.3916
   83MOL   C36041524   6.422   5.905   3.201 -0.0026 -0.4708  0.6898
   83MOL   H36141525   5.823   5.209   2.609  0.8381  0.6257 -0.7895
   83MOL   H36241526   5.881   5.365   2.572  2.2384  1.1440  1.2571
   83MOL   H36341527   5.959   5.226   2.823 -0.1839 -1.1017  0.1880
   83MOL   H36441528   6.218   5.435   2.796  0.1235 -2.1987  1.0152
   83MOL   H36541529   6.144   5.356   2.935  1.8135  0.7940 -0.2979
   83MOL   H36641530   6.054   5.581   3.015 -3.1139  0.3189 -2.8501
   83MOL   H36741531   6.079   5.639   2.863  0.8032 -0.4364  0.2982
   83MOL   H36841532   6.292   5.541   3.067  1.1166  0.3027  0.3813
   83MOL   H36941533   6.339   5.628   2.910  0.1744  2.6819 -0.1545
   83MOL   H37041534   6.245   5.843   3.000 -0.5021 -0.6025  0.2907
   83MOL   H37141535   6.199   5.758   3.144  1.1956 -0.4068  0.2667
   83MOL   H37241536   6.419   5.693   3.190 -0.7201 -0.0414 -0.9333
   83MOL   H37341537   6.485   5.778   3.053 -1.1529  2.4606 -2.3453
   83MOL   H37441538   6.438   5.984   3.128 -0.3656 -2.1224 -1.2184
   83MOL   H37541539   6.331   5.923   3.260  0.3427  0.5510  0.9248
   83MOL   H37641540   6.506   5.913   3.270 -0.2874 -2.1608  1.2477
   83MOL   C37741541   6.089   5.249   2.640  0.0366  0.0556 -0.0717
   83MOL   C37841542   6.062   5.112   2.566  0.4654  0.2795  0.8216
   83MOL   O37941543   6.043   5.019   2.678 -0.0742 -0.1180  0.1788
   83MOL   C38041544   5.982   4.892   2.645 -0.3894 -0.9437 -0.4634
   83MOL   C38141545   5.840   4.901   2.693  0.5464 -0.5298 -0.9189
   83MOL   C38241546   5.769   4.767   2.694  0.7538 -0.1409  0.5075
   83MOL   C38341547   5.777   4.679   2.568  0.3371 -0.3322  0.2683
   83MOL   C38441548   5.694   4.558   2.569  0.5168 -0.0652 -0.3799
   83MOL   C38541549   5.731   4.479   2.450  0.2584 -0.2284 -0.0865
   83MOL   H38641550   6.115   5.327   2.569  1.5769 -1.2892 -1.0125
   83MOL   H38741551   6.177   5.240   2.703 -0.0232  0.0907  0.0175
   83MOL   H38841552   5.982   5.109   2.492  0.5262 -2.3327  0.8230
   83MOL   H38941553   6.039   4.820   2.704 -1.0431 -0.3458  0.9327
   83MOL   H39041554   6.010   4.854   2.547 -0.0244  0.4756 -0.9180
   83MOL   H39141555   5.780   4.970   2.634  0.0635  1.0435  1.3453
   83MOL   H39241556   5.843   4.952   2.789  1.1965 -0.1667 -1.1242
   83MOL   H39341557   5.793   4.721   2.790 -2.0986 -0.5753  1.0599
   83MOL   H39441558   5.665   4.786   2.720  0.4619 -0.7538 -0.1914
   83MOL   H39541559   5.766   4.745   2.482  0.7634 -1.8023 -0.9408
   83MOL   H39641560   5.880   4.645   2.554  1.0285  0.6735  2.6427
   83MOL   H39741561   5.723   4.504   2.659 -0.0923 -2.1397 -1.4043
   83MOL   H39841562   5.587   4.575   2.579  0.7576  0.6683  1.1095
   83MOL   H39941563   5.830   4.436   2.462  0.4795 -0.1476 -1.5397
   83MOL   H40041564   5.657   4.401   2.429  1.5208 -1.4448 -0.0762
   83MOL   H40141565   5.718   4.543   2.363 -1.8850 -0.8387 -0.2622
   83MOL   C40241566   6.197   5.087   2.491  0.4023  0.5047 -0.1040
   83MOL   C40341567   6.236   5.175   2.370 -0.1287  0.4832  0.1810
   83MOL   O40441568   6.300   5.301   2.407  0.0776  0.2237 -0.3259
   83MOL   C40541569   6.442   5.299   2.415 -0.2087 -0.3965  0.0855
   83MOL   C40641570   6.483   5.439   2.461  0.1100  0.1133  0.5340
   83MOL   C40741571   6.628   5.450   2.506 -0.2706  0.1069  0.6139
   83MOL   C40841572   6.675   5.589   2.527 -0.5915 -0.7471 -0.0449
   83MOL   C40941573   6.712   5.671   2.398 -0.1827 -0.5970  0.2574
   83MOL   C41041574   6.782   5.802   2.425 -0.0958  0.2057  0.2961
   83MOL   H41141575   6.181   4.988   2.447  1.3543 -0.0445  0.7642
   83MOL   H41241576   6.283   5.080   2.559 -0.4803 -1.5461  0.8790
   83MOL   H41341577   6.296   5.115   2.303  0.1224  5.5203 -4.4465
   83MOL   H41441578   6.484   5.289   2.315 -0.6398  0.9379 -0.2232
   83MOL   H41541579   6.484   5.221   2.479  0.6979 -0.7553 -0.9394
   83MOL   H41641580   6.421   5.462   2.548 -0.6428 -0.6626  0.2025
   83MOL   H41741581   6.465   5.514   2.384  0.0521  0.9655  1.3598
   83MOL   H41841582   6.645   5.399   2.601 -0.4994 -1.0705  0.0306
   83MOL   H41941583   6.700   5.404   2.438 -0.8769 -0.3192  0.2630
   83MOL   H42041584   6.606   5.650   2.585  1.8233  0.1500  1.9943
   83MOL   H42141585   6.766   5.585   2.587  0.4052  0.3861 -1.4682
   83MOL   H42241586   6.785   5.612   2.342  0.3159  0.6476 -0.4322
   83MOL   H42341587   6.628   5.696   2.334 -0.9671 -0.5148  1.3195
   83MOL   H42441588   6.723   5.875   2.481  0.4727 -0.2959  1.5712
   83MOL   H42541589   6.880   5.790   2.471  0.3244  2.8714  0.2014
   83MOL   H42641590   6.805   5.854   2.332 -0.5547  1.3702  0.8214
   83MOL   C42741591   6.119   5.218   2.283  0.4900 -0.5136 -0.3893
   83MOL   C42841592   6.170   5.283   2.152 -0.4236  0.2825 -0.0818
   83MOL   O42941593   6.066   5.263   2.051  0.1243  0.0865 -0.1846
   83MOL   C43041594   6.051   5.134   2.004  0.9186 -0.2623  0.2135
   83MOL   C43141595   6.031   5.140   1.854  0.0139  0.3664  0.2536
   83MOL   C43241596   6.004   5.000   1.788 -0.1363  0.5774 -0.1629
   83MOL   C43341597   5.968   5.001   1.641  0.0938 -0.2655 -0.4300
   83MOL   C43441598   5.834   5.057   1.606 -0.4237 -0.6767  0.3965
   83MOL   C43541599   5.808   5.065   1.451 -0.3695 -0.1964  0.0982
   83MOL   H43641600   6.058   5.130   2.264  0.7042 -1.0237  1.1510
   83MOL   H43741601   6.061   5.290   2.341 -1.1957 -2.4854  0.4578
   83MOL   H43841602   6.260   5.230   2.122  1.7072  3.1900  0.9486
   83MOL   H43941603   5.965   5.085   2.050  0.7075 -0.1016 -0.0032
   83MOL   H44041604   6.130   5.066   2.032 -0.1652 -0.9266  1.7551
   83MOL   H44141605   6.115   5.195   1.811  1.4265 -1.7858  0.1888
   83MOL   H44241606   5.944   5.203   1.834 -0.4517 -0.5373 -0.6265
   83MOL   H44341607   6.087   4.933   1.811 -0.2850 -0.0506 -1.3977
   83MOL   H44441608   5.917   4.963   1.842  0.7046 -1.4037 -0.1227
   83MOL   H44541609   6.043   5.029   1.566  0.8612  0.4653  0.6006
   83MOL   H44641610   5.962   4.895   1.613 -0.9052  0.0450 -1.4294
   83MOL   H44741611   5.759   4.998   1.658 -0.5340 -1.4422 -0.6039
   83MOL   H44841612   5.810   5.152   1.654  0.3490 -0.0257 -0.4715
   83MOL   H44941613   5.713   5.117   1.443 -2.3591 -2.8802  4.1316
   83MOL   H45041614   5.877   5.128   1.395 -0.5073 -0.2481 -0.1292
   83MOL   H45141615   5.821   4.966   1.408  2.0412  0.6148 -1.1697
   83MOL   C45241616   6.193   5.438   2.152 -0.6995 -0.5247  0.0776
   83MOL   C45341617   6.255   5.494   2.025  0.2966  0.4973  0.2139
   83MOL   O45441618   6.392   5.481   2.034  0.5659 -0.0622 -0.2054
   83MOL   C45541619   6.463   5.457   1.917 -0.4415  0.8235  0.1268
   83MOL   C45641620   6.613   5.471   1.936 -0.3487 -0.0878 -0.4229
   83MOL   C45741621   6.653   5.363   2.034 -0.0360  0.1201 -0.4892
   83MOL   C45841622   6.801   5.345   2.060  0.1324 -0.2367  0.1917
   83MOL   C45941623   6.905   5.335   1.947 -0.4599  0.1763 -0.1225
   83MOL   C46041624   7.039   5.275   1.993  0.4877  0.2735 -0.0002
   83MOL   H46141625   6.102   5.491   2.181 -2.2058 -2.4304 -0.9627
   83MOL   H46241626   6.263   5.468   2.230  0.9632 -2.6341 -0.5645
   83MOL   H46341627   6.212   5.452   1.935 -0.6266  1.2590  0.2818
   83MOL   H46441628   6.433   5.519   1.833 -1.1727  2.6847  1.7273
   83MOL   H46541629   6.439   5.355   1.888  1.4431  0.6309 -0.8392
   83MOL   H46641630   6.631   5.573   1.971 -1.7020 -0.3968  1.2554
   83MOL   H46741631   6.657   5.466   1.836  0.5652 -2.5874  0.0650
   83MOL   H46841632   6.603   5.380   2.129  1.7843 -1.4033  0.7868
   83MOL   H46941633   6.609   5.268   2.004  0.0127 -0.3842  1.0059
   83MOL   H47041634   6.824   5.426   2.128  0.1285  0.2775 -0.4158
   83MOL   H47141635   6.816   5.255   2.120 -1.9763  0.2667  1.5125
   83MOL   H47241636   6.868   5.260   1.877 -0.1371 -1.6451  1.6091
   83MOL   H47341637   6.920   5.426   1.888  2.1849  1.4736  2.4545
   83MOL   H47441638   7.033   5.172   2.029  0.0210  0.1834 -0.3323
   83MOL   H47541639   7.099   5.273   1.901 -2.1001  1.4642 -1.7552
   83MOL   H47641640   7.092   5.324   2.074  1.4883  1.2772 -1.2454
   83MOL   C47741641   6.223   5.647   2.025  0.0449 -0.1818 -0.1661
   83MOL   C47841642   6.277   5.722   2.150 -0.2181 -0.2998  0.2136
   83MOL   O47941643   6.251   5.850   2.126 -0.2175 -0.1980 -0.0352
   83MOL   C48041644   6.307   5.941   2.211  0.1651  0.0087 -0.2959
   83MOL   C48141645   6.220   5.971   2.334  0.3587  0.0984  0.3956
   83MOL   C48241646   6.281   6.069   2.442  0.4634 -0.5317  0.0438
   83MOL   C48341647   6.384   5.993   2.537  0.1801 -0.2231 -0.2270
   83MOL   C48441648   6.455   6.076   2.643 -0.2404 -0.5066  0.1099
   83MOL   C48541649   6.567   6.172   2.593  0.2502 -0.1298 -0.4480
   83MOL   H48641650   6.270   5.688   1.935  0.4172  1.2195  0.6515
   83MOL   H48741651   6.116   5.663   2.019  0.0059 -0.7351 -0.9148
   83MOL   H48841652   6.221   5.702   2.242  1.7562 -0.1071  1.5050
   83MOL   H48941653   6.329   6.038   2.167  1.7740  0.3730  1.2742
   83MOL   H49041654   6.408   5.908   2.235 -0.2371 -0.4893  0.7278
   83MOL   H49141655   6.172   5.884   2.379  3.5572 -1.6406  0.6519
   83MOL   H49241656   6.136   6.031   2.301  1.0449 -0.3285 -2.1991
   83MOL   H49341657   6.330   6.155   2.396  2.5957 -2.1766 -0.8327
   83MOL   H49441658   6.191   6.104   2.494  1.1831  0.6059  0.5607
   83MOL   H49541659   6.336   5.918   2.599  1.4025  1.1736  2.4918
   83MOL   H49641660   6.462   5.943   2.480  1.1803 -2.0123  2.6378
   83MOL   H49741661   6.377   6.141   2.685  1.0446 -0.5419  2.6398
   83MOL   H49841662   6.494   6.017   2.726  1.9835  0.2883 -0.3496
   83MOL   H49941663   6.642   6.122   2.531  0.0954  0.5263 -1.1742
   83MOL   H50041664   6.529   6.251   2.528 -0.2958 -0.5175 -0.6017
   83MOL   H50141665   6.630   6.222   2.666  0.7243  0.3696 -1.1872
   83MOL   H50241666   6.385   5.712   2.166  0.4387  3.4233 -1.3192
   84MOL     C141667   1.449   4.175   7.436  0.0393  0.2411  0.0262
   84MOL     C241668   1.422   4.126   7.583  0.1471  0.6204 -0.6130
   84MOL     O341669   1.379   4.230   7.674  0.0442  0.2272 -0.2971
   84MOL     C441670   1.255   4.286   7.650 -0.3416 -0.0034 -0.0474
   84MOL     C541671   1.222   4.378   7.770  0.4503  0.2995  0.9282
   84MOL     C641672   1.173   4.294   0.111 -0.8459 -0.4064 -0.0288
   84MOL     C741673   1.047   4.211   0.087 -0.4673 -0.3004 -0.3934
   84MOL     C841674   0.917   4.294   0.068 -0.2348 -0.5427 -0.3362
   84MOL     C941675   0.885   4.308   7.696  0.2087 -0.6671 -0.2271
   84MOL    H1041676   1.357   4.187   7.379 -0.8996 -1.9390  1.0321
   84MOL    H1141677   1.505   4.269   7.443 -1.6117  1.1386  1.4802
   84MOL    H1241678   1.338   4.056   7.586 -1.2438  2.2273 -1.0019
   84MOL    H1341679   1.164   4.225   7.640 -0.1640 -0.4961  1.2648
   84MOL    H1441680   1.254   4.343   7.557 -1.0001  1.0834  0.6234
   84MOL    H1541681   1.138   4.441   7.739  0.9389  0.7074  0.4182
   84MOL    H1641682   1.315   4.436   7.776 -0.0173  1.2307 -0.3776
   84MOL    H1741683   1.243   4.225   0.157 -1.4806 -1.2629 -0.3451
   84MOL    H1841684   1.143   4.368   0.186  1.3436  0.4943  0.0044
   84MOL    H1941685   1.049   4.132   0.013  1.8803  0.3690 -1.0646
   84MOL    H2041686   1.043   4.146   0.174 -0.2609  0.4195  0.1614
   84MOL    H2141687   0.934   4.389   0.119 -0.6022 -1.3475  1.3375
   84MOL    H2241688   0.830   4.243   0.110 -0.7025 -1.1332 -1.9815
   84MOL    H2341689   0.956   4.372   7.643  1.2342 -1.6673 -0.0837
   84MOL    H2441690   0.885   4.211   7.645 -2.5109 -0.9168  0.1490
   84MOL    H2541691   0.789   4.355   7.674  0.1907 -0.9446 -0.7684
   84MOL    H2641692   1.501   4.108   7.368 -0.0254 -1.3865  1.5466
   84MOL    C2741693   1.550   4.077   7.650  0.4480 -0.3378 -0.0972
   84MOL    C2841694   1.529   4.027   0.011  0.2535 -0.2869 -0.1887
   84MOL    O2941695   1.445   3.906   0.002 -0.4483  0.0803  0.0500
   84MOL    C3041696   1.325   3.917   0.072 -0.1707  0.2873  0.2980
   84MOL    C3141697   1.258   3.784   0.058  0.1333  0.1028  0.2104
   84MOL    C3241698   1.119   3.793   0.109  0.8824 -0.7834  0.6042
   84MOL    C3341699   1.044   3.659   0.105  1.0449 -0.5612 -0.4799
   84MOL    C3441700   0.899   3.664   0.160 -0.7105  0.5873  0.5864
   84MOL    C3541701   0.800   3.553   0.123  0.3568  0.0086 -0.1763
   84MOL    H3641702   1.597   4.001   7.588 -0.9984 -1.7071  0.4634
   84MOL    H3741703   1.614   4.166   7.647 -0.6327  0.4633  0.1500
   84MOL    H3841704   1.479   4.098   0.076 -2.3984 -1.4904 -0.8500
   84MOL    H3941705   1.267   4.001   0.033  1.9959  1.4214 -0.5669
   84MOL    H4041706   1.338   3.949   0.176 -0.0349  1.8168 -0.1837
   84MOL    H4141707   1.302   3.702   0.115  0.1501  0.0266  0.0872
   84MOL    H4241708   1.257   3.753   7.732 -0.3114 -2.2464  0.8873
   84MOL    H4341709   1.124   3.831   0.211 -1.1244 -0.7832  0.7150
   84MOL    H4441710   1.064   3.865   0.049  0.3465  0.5723  2.6522
   84MOL    H4541711   1.035   3.624   0.002  0.5566 -1.2945 -0.1949
   84MOL    H4641712   1.101   3.581   0.156  0.7138 -0.1694  0.4851
   84MOL    H4741713   0.897   3.670   0.268 -4.0553  0.1767  0.6057
   84MOL    H4841714   0.852   3.752   0.116 -0.3248  0.5286  0.0506
   84MOL    H4941715   0.698   3.592   0.129  0.5831  0.3703  1.4917
   84MOL    H5041716   0.816   3.513   0.023  1.7925 -0.6960  0.3240
   84MOL    H5141717   0.802   3.461   0.181 -3.0975 -0.0491 -0.0101
   84MOL    C5241718   1.661   4.005   0.083  0.2135 -0.4213  0.3357
   84MOL    C5341719   1.655   3.959   0.229  0.5271 -0.8325 -0.0722
   84MOL    O5441720   1.783   3.924   0.263  0.2398 -0.6190 -0.3044
   84MOL    C5541721   1.832   3.798   0.220 -0.0191 -0.1915  0.0148
   84MOL    C5641722   1.977   3.819   0.171 -0.5491  0.2955 -0.5445
   84MOL    C5741723   2.030   3.686   0.098  0.5292 -0.0415  0.0934
   84MOL    C5841724   2.179   3.664   0.069 -0.1109  0.2120  0.2799
   84MOL    C5941725   2.252   3.788   0.007 -0.6629 -0.1942  0.0911
   84MOL    C6041726   2.206   3.805   7.643 -0.1107  0.8319  0.8081
   84MOL    H6141727   1.737   4.083   0.082  1.2358 -1.3557 -3.5573
   84MOL    H6241728   1.715   3.932   0.023  1.0451 -0.9143  1.6422
   84MOL    H6341729   1.586   3.874   0.236  0.3757 -0.5910  1.7593
   84MOL    H6441730   1.764   3.748   0.150  0.1108  0.3593 -0.5049
   84MOL    H6541731   1.830   3.736   0.310 -2.1148  1.2899  1.0322
   84MOL    H6641732   2.037   3.853   0.255  1.1538  0.6623 -1.8827
   84MOL    H6741733   1.982   3.897   0.095  1.1411 -0.0022 -0.7475
   84MOL    H6841734   1.984   3.602   0.149  0.1999 -0.4329 -0.8406
   84MOL    H6941735   1.985   3.685   7.777  1.6961  0.1717 -0.4492
   84MOL    H7041736   2.222   3.645   0.168  0.5854  0.0109 -0.0579
   84MOL    H7141737   2.179   3.572   0.011 -0.0734  0.1972  0.3031
   84MOL    H7241738   2.227   3.881   0.057  2.6127  1.5733 -1.3891
   84MOL    H7341739   2.359   3.772   0.019 -0.6055 -3.3585 -3.5369
   84MOL    H7441740   2.239   3.722   7.581 -2.2878  1.1986 -0.9181
   84MOL    H7541741   2.097   3.798   7.633 -0.3200  2.4805  1.7180
   84MOL    H7641742   2.234   3.898   7.594  1.6426  0.8590  1.8166
   84MOL    C7741743   1.607   4.059   0.334  0.3715 -0.4516 -0.2733
   84MOL    C7841744   1.574   4.003   0.477 -0.0212  0.1727  0.5336
   84MOL    O7941745   1.447   3.931   0.463 -0.1697  0.0835 -0.1349
   84MOL    C8041746   1.456   3.790   0.478 -0.7260  0.1775  0.6496
   84MOL    C8141747   1.318   3.731   0.462  0.5989  0.5815  0.3203
   84MOL    C8241748   1.230   3.724   0.589 -0.3790  0.2834  0.3529
   84MOL    C8341749   1.091   3.664   0.573  0.4289 -0.0872  0.9607
   84MOL    C8441750   1.082   3.517   0.533  0.5725  0.0904 -0.0590
   84MOL    C8541751   0.936   3.468   0.523  0.0077  0.2107  0.2184
   84MOL    H8641752   1.518   4.114   0.305 -0.5663 -0.5792  2.1972
   84MOL    H8741753   1.685   4.133   0.349 -0.1818  0.1152 -0.2064
   84MOL    H8841754   1.646   3.923   0.494 -0.3031 -0.0069  0.8882
   84MOL    H8941755   1.508   3.762   0.570 -1.6217 -1.0028  0.8145
   84MOL    H9041756   1.524   3.752   0.402 -0.0935  0.0063  1.2916
   84MOL    H9141757   1.316   3.636   0.410  3.1781  1.3741 -1.2693
   84MOL    H9241758   1.250   3.794   0.404 -1.7977 -1.9428  0.2628
   84MOL    H9341759   1.282   3.661   0.660 -1.2203  0.8823  1.5274
   84MOL    H9441760   1.219   3.819   0.642 -0.7667 -0.7820  2.2352
   84MOL    H9541761   1.044   3.679   0.670 -0.7427 -1.4620  0.6275
   84MOL    H9641762   1.045   3.735   0.504  2.4031  0.4058  0.1197
   84MOL    H9741763   1.135   3.493   0.440  0.3603 -0.6035 -0.0024
   84MOL    H9841764   1.137   3.456   0.604  1.8956  0.8037 -0.4402
   84MOL    H9941765   0.913   3.363   0.505  2.5414 -0.1780 -0.9273
   84MOL   H10041766   0.878   3.488   0.613  0.2633  0.1922  0.3888
   84MOL   H10141767   0.881   3.517   0.444 -0.8729 -2.9746 -1.2304
   84MOL   C10241768   1.566   4.103   0.591 -0.6614 -0.3277  0.0493
   84MOL   C10341769   1.704   4.144   0.653 -0.0875 -0.1822  0.2865
   84MOL   O10441770   1.783   4.221   0.552 -0.7230  0.1806  0.5054
   84MOL   C10541771   1.903   4.163   0.503  0.0196  0.1801 -0.7824
   84MOL   C10641772   1.973   4.259   0.407 -0.2189 -0.1842 -0.4528
   84MOL   C10741773   2.074   4.190   0.314 -0.3342 -0.4866 -0.2883
   84MOL   C10841774   2.189   4.130   0.380 -0.7957 -0.5520  0.3268
   84MOL   C10941775   2.284   4.054   0.287  0.5397 -0.0685  0.1806
   84MOL   C11041776   2.417   4.017   0.361 -0.1681 -0.0081 -0.1704
   84MOL   H11141777   1.508   4.193   0.568 -2.1851 -0.8306  1.8054
   84MOL   H11241778   1.503   4.059   0.669 -1.7978 -1.9078 -1.7156
   84MOL   H11341779   1.756   4.054   0.688 -2.4712 -1.1769  1.4073
   84MOL   H11441780   1.893   4.064   0.459  0.4643 -0.8470  1.3592
   84MOL   H11541781   1.971   4.135   0.583  0.8344 -1.0941 -1.8854
   84MOL   H11641782   2.020   4.341   0.460  1.3749 -0.4765 -1.3743
   84MOL   H11741783   1.895   4.290   0.337 -0.2898  0.6355 -0.0121
   84MOL   H11841784   2.007   4.133   0.250 -1.7332 -0.1456  0.8437
   84MOL   H11941785   2.112   4.274   0.255 -1.0142  2.9421  3.8695
   84MOL   H12041786   2.250   4.208   0.425  0.5009  0.3982 -2.9010
   84MOL   H12141787   2.151   4.059   0.453 -0.7806  0.9721  1.8308
   84MOL   H12241788   2.242   3.963   0.244 -0.9538  0.4134  0.6295
   84MOL   H12341789   2.302   4.120   0.202  2.9039  0.3442  0.9517
   84MOL   H12441790   2.403   3.929   0.423 -1.0600  0.7163  0.6709
   84MOL   H12541791   2.480   3.985   0.278 -1.6635  1.1028 -1.7862
   84MOL   H12641792   2.466   4.099   0.414 -1.3718 -0.6097  1.8961
   84MOL   C12741793   1.686   4.234   0.779  0.1689 -0.0728 -0.1266
   84MOL   C12841794   1.812   4.257   0.872  0.5010 -0.4709  0.5070
   84MOL   O12941795   1.921   4.320   0.807 -0.0881  0.0040 -0.1498
   84MOL   C13041796   1.899   4.457   0.778 -0.5046 -0.0163  0.3884
   84MOL   C13141797   2.006   4.538   0.699  0.7236  0.5975  0.2251
   84MOL   C13241798   2.147   4.521   0.755 -0.7060 -0.0973 -0.1625
   84MOL   C13341799   2.262   4.568   0.663 -0.0095  0.3837 -0.5750
   84MOL   C13441800   2.287   4.463   0.561  0.5764 -0.1293  0.7112
   84MOL   C13541801   2.420   4.478   0.482 -0.4591  0.1099 -0.1612
   84MOL   H13641802   1.631   4.327   0.763 -1.4032 -0.2471  3.7136
   84MOL   H13741803   1.611   4.187   0.842 -0.1481  1.5878  0.7474
   84MOL   H13841804   1.779   4.331   0.945  1.3174 -0.9784  1.3991
   84MOL   H13941805   1.894   4.509   0.874 -0.7480  0.0912  0.3187
   84MOL   H14041806   1.800   4.477   0.737  0.6844  0.5517 -2.3798
   84MOL   H14141807   1.986   4.645   0.703 -2.6198  0.0081  0.5938
   84MOL   H14241808   2.000   4.499   0.597 -0.6393 -0.3267  0.6452
   84MOL   H14341809   2.156   4.599   0.830 -0.8975 -1.8847  1.7804
   84MOL   H14441810   2.173   4.422   0.793 -1.7623  0.2126  1.3921
   84MOL   H14541811   2.241   4.666   0.621  0.0927  1.4741  1.8708
   84MOL   H14641812   2.354   4.563   0.722 -0.3770  0.6494  0.0180
   84MOL   H14741813   2.288   4.360   0.597 -0.1468 -0.0347  1.0264
   84MOL   H14841814   2.204   4.481   0.493 -0.1914 -2.4558  1.0056
   84MOL   H14941815   2.510   4.447   0.535 -0.6887 -0.1381  0.0845
   84MOL   H15041816   2.412   4.399   0.408  0.4255 -1.7350  1.6647
   84MOL   H15141817   2.421   4.567   0.419 -0.9632 -0.5868 -1.1598
   84MOL   C15241818   1.871   4.128   0.936  0.3719  0.7357 -1.2162
   84MOL   C15341819   1.964   4.150   1.052 -0.3201  0.8603 -0.3894
   84MOL   O15441820   1.895   4.208   1.160  0.1224  0.6846  0.7605
   84MOL   C15541821   1.975   4.286   1.248  0.0931  0.5627 -0.0681
   84MOL   C15641822   1.888   4.370   1.340  0.3336 -0.5123 -0.2502
   84MOL   C15741823   1.824   4.477   1.248 -0.0110  0.0899 -0.2496
   84MOL   C15841824   1.740   4.576   1.324  0.2642  0.0238  0.3070
   84MOL   C15941825   1.706   4.699   1.240 -0.1436  0.0994 -0.4709
   84MOL   C16041826   1.629   4.805   1.310 -0.0280 -0.2089  0.1960
   84MOL   H16141827   1.794   4.064   0.978 -1.0492  3.1288 -0.0230
   84MOL   H16241828   1.911   4.068   0.855  0.8292  2.5988 -2.4210
   84MOL   H16341829   2.039   4.217   1.010 -1.4028  3.4300  1.6432
   84MOL   H16441830   2.051   4.351   1.207  1.1729 -0.7724 -0.2231
   84MOL   H16541831   2.032   4.215   1.308 -1.9006 -0.7833  0.3269
   84MOL   H16641832   1.953   4.418   1.413 -0.9763  1.7212 -0.4870
   84MOL   H16741833   1.812   4.309   1.389  0.9245 -2.2309 -1.4193
   84MOL   H16841834   1.900   4.525   1.186 -1.6728  1.9240 -0.9121
   84MOL   H16941835   1.758   4.427   1.177 -1.6949  0.4421  1.0361
   84MOL   H17041836   1.654   4.533   1.376  0.5527 -0.1086  0.6823
   84MOL   H17141837   1.797   4.624   1.404 -0.8690 -1.5715  2.1149
   84MOL   H17241838   1.795   4.735   1.188 -0.9814  0.9806 -1.3158
   84MOL   H17341839   1.643   4.669   1.156  0.0269  1.6901 -1.1959
   84MOL   H17441840   1.612   4.881   1.234  0.5523 -0.8056 -0.5567
   84MOL   H17541841   1.536   4.778   1.360  0.7197 -2.1240  0.6238
   84MOL   H17641842   1.698   4.850   1.381  1.2210 -2.3042  0.3721
   84MOL   C17741843   2.031   4.018   1.097 -0.0968  0.2149  0.3474
   84MOL   C17841844   2.133   3.961   1.005 -0.3910  0.8648 -0.0754
   84MOL   O17941845   2.246   4.054   1.005  0.4039 -0.2137  0.2687
   84MOL   C18041846   2.275   4.120   0.877  0.1102  0.4337  0.5811
   84MOL   C18141847   2.380   4.231   0.912 -0.1926 -0.2401  0.2402
   84MOL   C18241848   2.517   4.178   0.877 -0.3605  0.2531  0.3229
   84MOL   C18341849   2.610   4.297   0.852  0.0028  0.4937 -0.1413
   84MOL   C18441850   2.758   4.271   0.842 -0.8172 -0.9679  0.0204
   84MOL   C18541851   2.809   4.236   0.701 -0.1313  0.5633  0.2056
   84MOL   H18641852   2.059   4.029   1.201 -0.3648 -2.0830  0.6788
   84MOL   H18741853   1.951   3.944   1.095  0.3438 -0.2482 -0.6815
   84MOL   H18841854   2.097   3.951   0.903 -0.5306 -0.5282  0.0954
   84MOL   H18941855   2.187   4.170   0.838 -1.7549 -3.3515 -0.2954
   84MOL   H19041856   2.301   4.040   0.808  2.0546  1.1504  0.4355
   84MOL   H19141857   2.385   4.263   1.016 -0.1799 -0.3508  0.2726
   84MOL   H19241858   2.360   4.322   0.854  1.7290  1.3077  1.9253
   84MOL   H19341859   2.559   4.112   0.952  1.4966  1.1348  0.0816
   84MOL   H19441860   2.504   4.121   0.785 -0.3404 -1.9398  1.6536
   84MOL   H19541861   2.586   4.355   0.763 -0.1290 -0.7417 -0.9227
   84MOL   H19641862   2.586   4.374   0.925  0.1897  1.6233 -1.2660
   84MOL   H19741863   2.819   4.357   0.870  1.0636 -2.5958  1.0648
   84MOL   H19841864   2.787   4.202   0.921 -0.2890  0.9146  1.5130
   84MOL   H19941865   2.774   4.314   0.633 -1.3296  0.7214  0.9947
   84MOL   H20041866   2.917   4.223   0.696 -0.0304  1.7824 -0.8978
   84MOL   H20141867   2.762   4.143   0.670 -1.6899  1.8623 -1.4646
   84MOL   C20241868   2.203   3.821   1.045 -0.3767 -0.6616  0.2526
   84MOL   C20341869   2.322   3.775   0.963  0.5362  0.4463 -0.3808
   84MOL   O20441870   2.312   3.631   0.963 -0.7104 -0.4149 -0.3856
   84MOL   C20541871   2.230   3.567   0.866  0.3984  0.7317 -0.4014
   84MOL   C20641872   2.311   3.446   0.824 -0.6185  0.8614  0.1699
   84MOL   C20741873   2.441   3.475   0.740 -0.2371 -0.3022 -0.0423
   84MOL   C20841874   2.541   3.366   0.722 -0.1314 -0.1788  0.0680
   84MOL   C20941875   2.504   3.272   0.609 -0.0238  0.4396 -0.2635
   84MOL   C21041876   2.536   3.323   0.466 -0.0193 -0.0686  0.3003
   84MOL   H21141877   2.239   3.836   1.147  0.1356  0.5948 -0.0943
   84MOL   H21241878   2.126   3.746   1.029 -0.0606 -0.5161 -2.1331
   84MOL   H21341879   2.335   3.812   0.862  2.2313  2.9535  0.6839
   84MOL   H21441880   2.203   3.634   0.784  0.7753  0.1503 -1.0054
   84MOL   H21541881   2.139   3.537   0.917  1.4122  1.7181  2.0849
   84MOL   H21641882   2.234   3.392   0.769 -0.8290  0.5905  0.7289
   84MOL   H21741883   2.335   3.395   0.917 -1.5660  2.5108  1.3490
   84MOL   H21841884   2.424   3.510   0.638  0.1426 -0.1104 -0.0386
   84MOL   H21941885   2.482   3.560   0.794 -2.3662 -0.7504  2.3633
   84MOL   H22041886   2.642   3.404   0.707  0.1879  0.1265  2.7147
   84MOL   H22141887   2.551   3.318   0.819  1.3241 -1.2518 -0.5882
   84MOL   H22241888   2.550   3.174   0.622 -1.8707 -0.2912  1.0782
   84MOL   H22341889   2.395   3.265   0.617  0.0597 -0.9139 -0.2493
   84MOL   H22441890   2.517   3.246   0.392  2.3154  0.7437 -1.2020
   84MOL   H22541891   2.479   3.413   0.444 -1.2094 -0.3103  2.2182
   84MOL   H22641892   2.640   3.354   0.456 -0.5772  1.9278  0.3131
   84MOL   C22741893   2.458   3.815   1.034  0.0926 -0.1347 -0.2123
   84MOL   C22841894   2.583   3.778   0.956 -0.8839 -0.2719 -0.3753
   84MOL   O22941895   2.571   3.830   0.823  0.1299 -0.1267  0.7835
   84MOL   C23041896   2.668   3.769   0.729 -0.3259  0.5020 -0.0804
   84MOL   C23141897   2.620   3.794   0.590  0.3398 -0.1598 -0.7042
   84MOL   C23241898   2.697   3.702   0.492 -0.5205  0.2677 -0.0474
   84MOL   C23341899   2.649   3.726   0.352  0.0167  0.4046  0.5039
   84MOL   C23441900   2.697   3.613   0.266 -0.6897 -0.2797 -0.1056
   84MOL   C23541901   2.663   3.654   0.119  0.6248 -0.0033  0.6232
   84MOL   H23641902   2.455   3.923   1.054  0.3949  0.0720 -1.2481
   84MOL   H23741903   2.459   3.763   1.129 -2.4348  0.5472  0.2162
   84MOL   H23841904   2.586   3.669   0.946 -0.8243 -0.2666 -0.4163
   84MOL   H23941905   2.674   3.662   0.746  0.2447  0.1735 -2.2302
   84MOL   H24041906   2.768   3.810   0.740 -0.6078  0.9424  0.9165
   84MOL   H24141907   2.637   3.901   0.574 -1.0148  0.1301 -0.2332
   84MOL   H24241908   2.515   3.767   0.588  0.7618 -1.8380 -1.4811
   84MOL   H24341909   2.804   3.725   0.492  0.0853 -2.3643  0.6828
   84MOL   H24441910   2.692   3.598   0.525  3.6906  0.5425  1.7893
   84MOL   H24541911   2.541   3.729   0.345 -0.0209 -0.3348  0.7491
   84MOL   H24641912   2.690   3.821   0.318 -1.0956  1.1312  1.1722
   84MOL   H24741913   2.806   3.609   0.268 -0.6132  0.4091 -2.0852
   84MOL   H24841914   2.660   3.513   0.290  0.0054 -0.5432 -0.1195
   84MOL   H24941915   2.717   3.744   0.092 -1.1603  1.2764  1.2207
   84MOL   H25041916   2.690   3.571   0.053  0.6058 -0.2379  0.9115
   84MOL   H25141917   2.555   3.661   0.101  0.9496  1.3170 -0.9673
   84MOL   C25241918   2.716   3.836   1.015  0.5050 -0.2511  0.0962
   84MOL   C25341919   2.820   3.727   1.058 -0.1799  0.1835  0.4916
   84MOL   O25441920   2.761   3.644   1.164 -0.4110 -0.0947 -0.0352
   84MOL   C25541921   2.805   3.512   1.194  0.1183 -0.4710 -0.0660
   84MOL   C25641922   2.690   3.444   1.275  0.0036 -0.1590  0.2750
   84MOL   C25741923   2.549   3.457   1.207  0.6754  0.6420  0.2819
   84MOL   C25841924   2.439   3.390   1.286 -0.4475 -0.2508 -0.1521
   84MOL   C25941925   2.304   3.399   1.217  0.5439  0.1919 -0.2642
   84MOL   C26041926   2.190   3.336   1.296 -0.3845  0.0236  0.7557
   84MOL   H26141927   2.763   3.913   0.954 -0.9975  1.1530  0.6817
   84MOL   H26241928   2.692   3.888   1.108  0.3795 -1.5899  0.8344
   84MOL   H26341929   2.843   3.665   0.971  0.3007  0.5688  0.3398
   84MOL   H26441930   2.904   3.515   1.239 -0.4300  0.2054  1.1539
   84MOL   H26541931   2.809   3.473   1.093 -0.0201  2.1964 -1.1342
   84MOL   H26641932   2.688   3.499   1.369  1.1790 -0.2671  0.3701
   84MOL   H26741933   2.707   3.340   1.302 -0.8440 -0.2947  0.3030
   84MOL   H26841934   2.527   3.563   1.190 -1.9496 -0.1613 -1.7060
   84MOL   H26941935   2.553   3.414   1.107 -0.3764  0.9332  0.1012
   84MOL   H27041936   2.461   3.284   1.293 -0.2181 -0.2521 -0.8195
   84MOL   H27141937   2.437   3.437   1.384  0.0976 -0.2364 -0.1429
   84MOL   H27241938   2.285   3.503   1.191 -2.1654 -0.6001 -1.5909
   84MOL   H27341939   2.311   3.338   1.127 -0.2149 -1.0031  0.4677
   84MOL   H27441940   2.097   3.319   1.242  0.6133  1.1520 -1.3777
   84MOL   H27541941   2.224   3.242   1.340 -1.0213 -2.2018 -3.2328
   84MOL   H27641942   2.157   3.399   1.379 -2.2549  1.7502 -1.2372
   84MOL   C27741943   2.954   3.786   1.108  0.3263 -0.5334  0.1515
   84MOL   C27841944   3.051   3.805   0.992 -0.5978 -0.1096 -0.7036
   84MOL   O27941945   3.125   3.928   1.006  0.0096 -0.2998  0.0289
   84MOL   C28041946   3.066   4.039   0.939 -0.5886  0.1234 -0.2239
   84MOL   C28141947   3.153   4.157   0.960 -0.2593  0.3990  0.5092
   84MOL   C28241948   3.154   4.192   1.105 -0.5100  0.4505 -0.0928
   84MOL   C28341949   3.279   4.273   1.141  0.3069  0.0737 -0.3992
   84MOL   C28441950   3.285   4.401   1.075  0.4323 -0.5173  0.5718
   84MOL   C28541951   3.157   4.487   1.086 -0.6320 -0.6672 -0.0814
   84MOL   H28641952   2.938   3.874   1.170  1.2604 -0.5404  0.4060
   84MOL   H28741953   2.992   3.707   1.174  0.8956 -0.1069  0.3394
   84MOL   H28841954   2.990   3.808   0.902  0.1708 -0.3812 -1.2466
   84MOL   H28941955   2.969   4.056   0.985  0.2828 -0.2968  1.8073
   84MOL   H29041956   3.047   4.014   0.835  2.2956  2.2880 -1.3308
   84MOL   H29141957   3.125   4.242   0.897 -1.1363 -2.2867 -2.9012
   84MOL   H29241958   3.255   4.139   0.926 -0.4198  1.4469 -0.5892
   84MOL   H29341959   3.065   4.250   1.131 -0.3629  1.5560 -1.9618
   84MOL   H29441960   3.147   4.104   1.169 -1.3693  1.1238  0.7697
   84MOL   H29541961   3.276   4.288   1.249  0.8428 -3.2258  0.1361
   84MOL   H29641962   3.365   4.209   1.122  0.2647 -0.2644  0.4728
   84MOL   H29741963   3.379   4.437   1.116  0.3716 -0.4249  0.6277
   84MOL   H29841964   3.319   4.375   0.974  0.0671 -0.1630  0.3522
   84MOL   H29941965   3.176   4.587   1.046 -2.3001  0.1678  1.1590
   84MOL   H30041966   3.074   4.452   1.024 -0.8977  0.2296 -0.2314
   84MOL   H30141967   3.130   4.490   1.191  1.8409 -0.8602  0.6011
   84MOL   C30241968   3.155   3.688   0.990 -0.0969 -0.4983 -0.1445
   84MOL   C30341969   3.246   3.706   0.870 -0.6191  0.7835 -0.0157
   84MOL   O30441970   3.156   3.708   0.754 -0.2062  0.2842  0.3027
   84MOL   C30541971   3.174   3.812   0.660 -0.1072 -0.2917  0.1160
   84MOL   C30641972   3.050   3.830   0.574  0.1051  0.9731  0.4230
   84MOL   C30741973   3.063   3.947   0.473 -0.0973  0.3411 -0.0309
   84MOL   C30841974   2.942   3.977   0.391  0.4697 -0.4008 -0.5197
   84MOL   C30941975   2.943   4.081   0.269  0.7298 -0.0529  0.3977
   84MOL   C31041976   2.961   4.228   0.307  0.0004  0.2270  0.0282
   84MOL   H31141977   3.219   3.683   1.078  0.6280 -0.3356 -0.6511
   84MOL   H31241978   3.107   3.590   0.991 -0.4959 -0.3001  0.1602
   84MOL   H31341979   3.309   3.795   0.879  1.2968 -0.4652 -0.6961
   84MOL   H31441980   3.262   3.804   0.596 -0.6584  0.5070 -0.7590
   84MOL   H31541981   3.184   3.905   0.715  1.6443 -0.6195  0.3559
   84MOL   H31641982   2.963   3.840   0.639 -0.6593 -0.6515 -0.3111
   84MOL   H31741983   3.030   3.745   0.508 -0.1003  0.9393  0.5266
   84MOL   H31841984   3.116   4.028   0.522  1.6117 -2.0877  2.2929
   84MOL   H31941985   3.141   3.921   0.402  0.1121  1.2936 -0.1512
   84MOL   H32041986   2.924   3.883   0.338  0.7312 -0.2985 -0.7949
   84MOL   H32141987   2.852   3.991   0.451  0.1278  0.5578 -1.2415
   84MOL   H32241988   3.019   4.064   0.193 -1.4508 -0.6357 -1.7493
   84MOL   H32341989   2.852   4.064   0.211  1.0734 -0.8142  0.0762
   84MOL   H32441990   2.871   4.275   0.347  0.2693 -0.7671  1.8263
   84MOL   H32541991   3.042   4.237   0.379  0.3598 -0.4761 -0.2846
   84MOL   H32641992   3.007   4.270   0.218  0.5474  0.1672  0.2813
   84MOL   C32741993   3.344   3.590   0.850 -0.1941  0.1609  0.4865
   84MOL   C32841994   3.455   3.609   0.742  0.3878  0.2531 -0.7452
   84MOL   O32941995   3.549   3.704   0.791  0.1446 -0.5318 -0.3556
   84MOL   C33041996   3.566   3.821   0.706 -0.2039  0.1114  0.4213
   84MOL   C33141997   3.662   3.929   0.767  0.6443 -0.5078 -0.0845
   84MOL   C33241998   3.611   3.994   0.902 -0.5862  0.8463  0.4944
   84MOL   C33341999   3.730   4.061   0.971  0.2182  0.5313  0.8409
   84MOL   C33442000   3.688   4.145   1.099  0.1282 -0.3901 -0.3208
   84MOL   C33542001   3.638   4.073   1.228 -0.1657  0.5923  0.1874
   84MOL   H33642002   3.286   3.502   0.825  1.0755 -0.8950  1.1807
   84MOL   H33742003   3.393   3.564   0.944 -1.2544 -0.4633  0.8677
   84MOL   H33842004   3.398   3.639   0.654 -2.7976 -0.1018  1.1317
   84MOL   H33942005   3.472   3.865   0.675 -0.8519 -0.3337  1.7238
   84MOL   H34042006   3.612   3.787   0.613 -0.6439  1.5562 -0.3424
   84MOL   H34142007   3.677   4.010   0.696 -0.0378 -0.2332  0.0772
   84MOL   H34242008   3.758   3.881   0.782  1.1268  0.8091  1.0877
   84MOL   H34342009   3.536   4.069   0.879  0.5018  0.9651 -2.8999
   84MOL   H34442010   3.558   3.925   0.969 -1.1132  0.3730 -0.3909
   84MOL   H34542011   3.808   3.990   0.999 -0.5349 -0.0820  1.3886
   84MOL   H34642012   3.773   4.128   0.897  0.6704  0.3119  0.9028
   84MOL   H34742013   3.774   4.208   1.123  0.2332  0.4736 -2.8264
   84MOL   H34842014   3.609   4.217   1.080 -0.2857 -0.7543  0.0073
   84MOL   H34942015   3.568   3.995   1.198  0.9792 -1.1566  1.9209
   84MOL   H35042016   3.728   4.025   1.268 -0.2920  1.1758  1.1905
   84MOL   H35142017   3.582   4.132   1.300 -2.1126  0.8921 -1.5471
   84MOL   C35242018   3.526   3.476   0.717 -0.1395  0.1284  0.3423
   84MOL   C35342019   3.640   3.476   0.614 -0.1975  0.2739 -0.2815
   84MOL   O35442020   3.590   3.427   0.493  0.3869  0.1614  0.0588
   84MOL   C35542021   3.549   3.523   0.393 -0.5316  0.0262 -0.6529
   84MOL   C35642022   3.541   3.447   0.253  0.0108  0.7317 -1.1119
   84MOL   C35742023   3.676   3.390   0.209 -1.0303  0.3088  0.4015
   84MOL   C35842024   3.675   3.321   0.070 -0.0405  0.7829  0.0619
   84MOL   C35942025   3.811   3.262   0.012  0.2779  0.2191  0.4279
   84MOL   C36042026   3.796   3.222   7.643 -0.3729 -0.1380 -0.2773
   84MOL   H36142027   3.568   3.441   0.810 -0.7556  0.3621  0.7132
   84MOL   H36242028   3.456   3.399   0.683  0.2539 -0.0315 -0.1061
   84MOL   H36342029   3.682   3.576   0.611  0.0439  0.2077  0.6509
   84MOL   H36442030   3.623   3.603   0.395  2.1713 -2.4072 -0.0270
   84MOL   H36542031   3.451   3.553   0.431 -0.9635 -2.1036 -0.0528
   84MOL   H36642032   3.517   3.529   0.185 -1.6153 -1.4817 -3.2536
   84MOL   H36742033   3.464   3.370   0.258  0.3706  0.3118 -2.0719
   84MOL   H36842034   3.755   3.464   0.216  0.9254 -1.7964  1.5079
   84MOL   H36942035   3.704   3.318   0.286  1.6975 -0.6721 -1.4215
   84MOL   H37042036   3.598   3.244   0.079  1.2605 -0.4613  0.7535
   84MOL   H37142037   3.633   3.393   0.001  0.0816  0.9031  0.1124
   84MOL   H37242038   3.897   3.329   0.017  0.2551  0.1913  1.3021
   84MOL   H37342039   3.834   3.169   0.065  0.9124 -0.9618 -1.8665
   84MOL   H37442040   3.774   3.302   7.572  4.0987  0.6426 -0.8990
   84MOL   H37542041   3.882   3.169   7.603 -1.0472  0.1453 -2.1431
   84MOL   H37642042   3.717   3.147   7.635  0.0777 -1.0296  2.8058
   84MOL   C37742043   3.758   3.388   0.654  0.3522  0.1528 -0.1688
   84MOL   C37842044   3.877   3.420   0.555 -0.1739 -0.2273 -0.2475
   84MOL   O37942045   3.969   3.315   0.570 -0.1090 -0.5135  0.0838
   84MOL   C38042046   3.929   3.196   0.502 -0.1077 -0.5452 -0.0739
   84MOL   C38142047   4.041   3.094   0.503  0.3014 -0.2648 -0.0161
   84MOL   C38242048   4.004   2.981   0.403 -0.4686 -0.6981 -0.7511
   84MOL   C38342049   4.110   2.871   0.395  0.1019 -0.6330 -1.1758
   84MOL   C38442050   4.080   2.736   0.322 -0.4177  0.6935  0.0404
   84MOL   C38542051   4.055   2.739   0.169  0.3008  0.3623  0.4039
   84MOL   H38642052   3.791   3.399   0.757  0.4103 -0.3781 -0.1290
   84MOL   H38742053   3.723   3.285   0.647  0.2016  0.2871 -1.4377
   84MOL   H38842054   3.831   3.415   0.456 -1.7883  0.4009  0.4644
   84MOL   H38942055   3.916   3.217   0.395 -3.9431 -2.0580 -0.0006
   84MOL   H39042056   3.835   3.148   0.531  0.5966 -3.2035 -1.9962
   84MOL   H39142057   4.068   3.044   0.596  0.5060  1.2790  0.7685
   84MOL   H39242058   4.132   3.149   0.479 -0.6321  0.5069 -1.9291
   84MOL   H39342059   3.907   2.938   0.428 -1.8662  1.3665 -2.4326
   84MOL   H39442060   3.981   3.017   0.303 -0.0992  0.7420 -0.3367
   84MOL   H39542061   4.202   2.906   0.348  1.2244 -3.0351 -0.8613
   84MOL   H39642062   4.135   2.842   0.497 -2.3462  3.1570  0.6100
   84MOL   H39742063   4.167   2.670   0.332  0.0988  1.5166  1.0273
   84MOL   H39842064   3.989   2.692   0.363  0.1730 -1.7850 -1.2029
   84MOL   H39942065   4.002   2.652   0.129  3.1160 -0.7619 -1.0004
   84MOL   H40042066   3.987   2.822   0.150 -0.2446  0.0841  1.1082
   84MOL   H40142067   4.150   2.743   0.116 -0.6725  1.7365 -1.2785
   84MOL   C40242068   3.950   3.548   0.593  0.6573 -0.9294 -0.3570
   84MOL   C40342069   4.074   3.573   0.502  0.6581  0.9299  0.0199
   84MOL   O40442070   4.148   3.678   0.561 -0.3659  0.8178  0.5163
   84MOL   C40542071   4.281   3.650   0.596 -0.6676  0.4203 -0.2145
   84MOL   C40642072   4.335   3.754   0.684 -0.2526 -0.1959 -0.3759
   84MOL   C40742073   4.456   3.710   0.770  0.4379 -0.3648 -0.1570
   84MOL   C40842074   4.588   3.757   0.701 -0.2897 -0.7509  0.0790
   84MOL   C40942075   4.710   3.715   0.787  0.4733 -0.0309 -0.1897
   84MOL   C41042076   4.849   3.737   0.728  0.3012  0.1039  0.1867
   84MOL   H41142077   4.000   3.537   0.690  1.1298 -1.0207 -0.6084
   84MOL   H41242078   3.892   3.639   0.607  1.2438 -0.6430  0.2349
   84MOL   H41342079   4.129   3.479   0.497  1.1654  1.1116  1.6346
   84MOL   H41442080   4.335   3.645   0.501 -0.4583 -2.8794 -0.0061
   84MOL   H41542081   4.299   3.553   0.642  0.0732  1.3556  1.5125
   84MOL   H41642082   4.251   3.757   0.753  1.0348 -0.4324  1.2398
   84MOL   H41742083   4.349   3.845   0.626 -0.7377 -0.7166 -1.3102
   84MOL   H41842084   4.439   3.750   0.869 -0.2727  0.8341 -0.7550
   84MOL   H41942085   4.461   3.603   0.793  1.9467  0.0612  1.6659
   84MOL   H42042086   4.603   3.711   0.603  0.5369 -1.7136  0.6338
   84MOL   H42142087   4.581   3.866   0.700  0.3939 -0.6691  1.8930
   84MOL   H42242088   4.700   3.760   0.885  1.2835  0.5032 -0.3510
   84MOL   H42342089   4.708   3.608   0.810  2.6252 -0.0275  0.1148
   84MOL   H42442090   4.875   3.663   0.653 -0.3844  0.2742 -0.2265
   84MOL   H42542091   4.872   3.836   0.687  1.7523 -1.4528 -2.8874
   84MOL   H42642092   4.917   3.727   0.812  0.1347 -1.8511  0.0996
   84MOL   C42742093   4.047   3.625   0.354  0.0173 -0.2226 -0.1192
   84MOL   C42842094   4.145   3.580   0.247 -0.0004  0.5050  0.3883
   84MOL   O42942095   4.117   3.449   0.198 -0.7953  0.5092  0.3365
   84MOL   C43042096   4.197   3.348   0.241 -0.1267  0.1225 -0.4414
   84MOL   C43142097   4.153   3.208   0.200  0.0707  0.0663 -0.7548
   84MOL   C43242098   4.166   3.187   0.048 -0.2739 -0.6470  0.2682
   84MOL   C43342099   4.135   3.041   7.777  0.1204 -0.8558  0.1758
   84MOL   C43442100   4.130   3.007   7.621 -0.3991 -0.3636  0.4506
   84MOL   C43542101   4.095   2.863   7.600 -0.4475  0.0827 -0.2325
   84MOL   H43642102   3.949   3.603   0.312  0.2198 -4.2854  1.2901
   84MOL   H43742103   4.030   3.733   0.357 -0.5465 -0.2944 -0.6639
   84MOL   H43842104   4.249   3.594   0.277  0.4218  0.1339 -0.8437
   84MOL   H43942105   4.202   3.336   0.349  1.3876 -0.9910 -0.6275
   84MOL   H44042106   4.299   3.364   0.207  0.7754  0.8446  2.5091
   84MOL   H44142107   4.049   3.195   0.230  0.5900  0.3271  1.1992
   84MOL   H44242108   4.215   3.140   0.257  0.9122  1.9431  0.6386
   84MOL   H44342109   4.111   3.254   7.760  0.2090 -1.4302 -0.9399
   84MOL   H44442110   4.266   3.205   0.010 -0.6649  0.5488 -0.2173
   84MOL   H44542111   4.206   2.970   0.042 -0.3867 -0.4708  1.6722
   84MOL   H44642112   4.036   3.004   0.025  0.0692  0.5241  1.9999
   84MOL   H44742113   4.064   3.078   7.572 -1.4352 -0.5320  1.5807
   84MOL   H44842114   4.220   3.022   7.561 -0.3956 -0.7511  0.3551
   84MOL   H44942115   4.159   2.803   7.664 -0.0290 -0.7969 -1.4532
   84MOL   H45042116   3.992   2.842   7.629 -0.3959 -1.9198 -1.3373
   84MOL   H45142117   4.124   2.833   7.499 -1.8513  0.9144 -0.9067
   84MOL   C45242118   4.139   3.659   0.116  0.2657 -0.7183  0.1315
   84MOL   C45342119   4.206   3.802   0.122  0.7558 -0.0252 -0.3870
   84MOL   O45442120   4.127   3.887   0.205 -0.2752  0.7175 -0.4178
   84MOL   C45542121   4.201   3.985   0.271 -0.1464  0.2714  0.1257
   84MOL   C45642122   4.127   4.018   0.397  0.1530 -0.1759  0.3950
   84MOL   C45742123   4.198   4.121   0.483 -0.4385 -0.1446 -0.1894
   84MOL   C45842124   4.133   4.120   0.621  0.5565  0.4112  0.3734
   84MOL   C45942125   4.207   4.195   0.732  0.0059 -0.1830  0.0699
   84MOL   C46042126   4.134   4.193   0.868  0.4364 -0.5110  0.3625
   84MOL   H46142127   4.205   3.605   0.047 -0.7936  0.4028 -1.8042
   84MOL   H46242128   4.037   3.662   0.079 -0.2424  1.0272  1.6053
   84MOL   H46342129   4.307   3.796   0.163  0.2362  3.8817  1.7028
   84MOL   H46442130   4.211   4.072   0.206 -3.1642  0.7907  0.2479
   84MOL   H46542131   4.299   3.948   0.299  0.9955  3.5814  0.7865
   84MOL   H46642132   4.136   3.923   0.449  1.1902 -0.7804 -0.8751
   84MOL   H46742133   4.021   4.041   0.381  0.5023  0.2444 -1.4599
   84MOL   H46842134   4.302   4.089   0.490 -0.6439 -0.9785 -0.9110
   84MOL   H46942135   4.204   4.221   0.439  1.3592 -0.6316 -1.0930
   84MOL   H47042136   4.033   4.162   0.608  0.1628  0.2748  2.5969
   84MOL   H47142137   4.123   4.022   0.669  0.7764 -0.4001 -1.1976
   84MOL   H47242138   4.303   4.146   0.747 -0.0675 -0.8103 -1.4143
   84MOL   H47342139   4.230   4.297   0.700 -2.5080  0.3308 -0.2177
   84MOL   H47442140   4.112   4.097   0.915 -0.2234 -0.4461  0.1897
   84MOL   H47542141   4.199   4.243   0.940 -1.2424  2.2197  0.0657
   84MOL   H47642142   4.047   4.259   0.868 -1.9004 -3.4243  2.5176
   84MOL   C47742143   4.208   3.869   7.764  0.4282  0.3073  0.4927
   84MOL   C47842144   4.086   3.862   7.666  0.4140  0.3985 -0.0483
   84MOL   O47942145   4.115   3.925   7.543  0.0015  0.1768 -0.1689
   84MOL   C48042146   4.006   3.941   7.451 -0.1493 -0.1587  0.0939
   84MOL   C48142147   4.060   4.019   7.329  0.2221 -0.1651 -0.7249
   84MOL   C48242148   4.080   4.168   7.368 -0.1322  0.7415  0.2358
   84MOL   C48342149   4.137   4.253   7.242  0.3817  0.8758  0.6803
   84MOL   C48442150   4.150   4.405   7.288  0.1588  0.4725 -0.1438
   84MOL   C48542151   4.014   4.470   7.285 -0.7045 -0.8633 -0.0138
   84MOL   H48642152   4.257   3.966   7.771 -0.9616  0.8948  2.5590
   84MOL   H48742153   4.279   3.812   7.705  0.1621  0.2650  0.2131
   84MOL   H48842154   4.049   3.762   7.644  0.7687  0.7148 -2.1702
   84MOL   H48942155   3.921   3.997   7.490 -0.7461 -0.8631 -0.1761
   84MOL   H49042156   3.969   3.841   7.430  1.3137 -0.7279  0.2098
   84MOL   H49142157   3.982   4.012   7.253 -0.9290  0.6075  0.3611
   84MOL   H49242158   4.150   3.967   7.297  0.0623 -0.9030 -0.0061
   84MOL   H49342159   3.985   4.202   7.407 -1.4429 -1.5190 -0.8469
   84MOL   H49442160   4.147   4.173   7.454 -0.1360 -1.7759  0.4286
   84MOL   H49542161   4.234   4.214   7.211  0.5246  1.2356  0.6772
   84MOL   H49642162   4.075   4.238   7.154  1.0990 -0.7364  0.4312
   84MOL   H49742163   4.203   4.414   7.383  1.6599  1.3943 -1.0636
   84MOL   H49842164   4.212   4.461   7.219  2.4455 -1.6873  0.0833
   84MOL   H49942165   3.935   4.416   7.337  0.2206 -1.3335  0.9186
   84MOL   H50042166   4.015   4.569   7.330  2.0323 -1.2503  0.8415
   84MOL   H50142167   3.983   4.487   7.181 -0.5250  2.3554  0.4045
   84MOL   H50242168   4.011   3.915   7.724  0.9606  2.8894 -1.5492
   85MOL     C142169   1.832   2.529   0.539  0.0439 -0.2184  0.7384
   85MOL     C242170   1.928   2.443   0.615  1.0108  0.5942  1.2933
   85MOL     O342171   1.927   2.314   0.550  0.2878  0.2765 -0.1668
   85MOL     C442172   2.044   2.288   0.474  0.3486  0.4641  0.1419
   85MOL     C542173   2.021   2.166   0.385  0.6844 -0.2230  0.2925
   85MOL     C642174   2.052   2.029   0.460  0.2855 -0.3000 -0.2471
   85MOL     C742175   1.999   1.903   0.389 -0.4131  0.4463 -0.1406
   85MOL     C842176   1.998   1.772   0.477 -0.4252 -0.3692 -0.0180
   85MOL     C942177   1.886   1.674   0.430  0.5006  0.2248  0.2141
   85MOL    H1042178   1.851   2.537   0.432  0.2922  1.8228  0.9133
   85MOL    H1142179   1.731   2.490   0.554 -0.2320 -0.4461 -1.5268
   85MOL    H1242180   2.023   2.497   0.614  2.6596 -2.1713 -0.9444
   85MOL    H1342181   2.135   2.293   0.533 -0.5202 -0.7971  1.6256
   85MOL    H1442182   2.046   2.381   0.417  1.4045 -0.2967 -1.0747
   85MOL    H1542183   2.068   2.178   0.288  2.0202 -0.0478  0.9438
   85MOL    H1642184   1.915   2.176   0.363  0.5730  0.4237  1.0741
   85MOL    H1742185   2.158   2.022   0.482 -0.0378 -0.2502  1.3966
   85MOL    H1842186   1.993   2.035   0.551 -1.0275 -1.0033 -1.0341
   85MOL    H1942187   1.899   1.920   0.348 -0.4451  1.4881  0.3406
   85MOL    H2042188   2.065   1.873   0.308 -1.1502 -1.0307 -0.2186
   85MOL    H2142189   1.979   1.803   0.579  1.3830  0.2980  0.1315
   85MOL    H2242190   2.102   1.737   0.479  0.5497  2.4008 -0.5474
   85MOL    H2342191   1.861   1.599   0.505  0.3274 -1.1690 -1.2111
   85MOL    H2442192   1.798   1.738   0.423  0.7937  0.4664 -1.4747
   85MOL    H2542193   1.898   1.626   0.332 -3.0246 -0.6433  0.1417
   85MOL    H2642194   1.831   2.631   0.578  1.0960 -0.3295  1.0814
   85MOL    C2742195   1.891   2.423   0.765  0.2835  0.2470 -0.1373
   85MOL    C2842196   1.974   2.317   0.845 -0.6062 -0.4880 -0.9187
   85MOL    O2942197   2.002   2.367   0.975  0.0718 -0.0671 -0.9095
   85MOL    C3042198   2.100   2.473   0.993 -0.0692  0.5074  0.3749
   85MOL    C3142199   2.138   2.499   1.141 -0.5915  0.5807  0.5476
   85MOL    C3242200   2.200   2.376   1.217  0.0130  0.3117 -0.3794
   85MOL    C3342201   2.236   2.404   1.364 -0.3903 -0.2937  0.3540
   85MOL    C3442202   2.311   2.291   1.430  0.4482  0.2284  0.0843
   85MOL    C3542203   2.368   2.320   1.576  0.0636  0.0056  0.5454
   85MOL    H3642204   1.887   2.520   0.815  2.5288  0.7602 -0.8950
   85MOL    H3742205   1.790   2.381   0.763  0.9135 -1.2399 -1.6102
   85MOL    H3842206   2.075   2.302   0.806  0.1483 -0.7934  1.1098
   85MOL    H3942207   2.075   2.562   0.935  1.3865  0.8891  0.2997
   85MOL    H4042208   2.195   2.453   0.942 -0.9432 -1.2223 -0.6221
   85MOL    H4142209   2.052   2.531   1.200  0.2942  1.8306  1.1666
   85MOL    H4242210   2.207   2.583   1.148 -0.0250  0.2260 -0.5980
   85MOL    H4342211   2.127   2.296   1.206  0.7440 -0.3241 -0.6056
   85MOL    H4442212   2.286   2.343   1.159 -1.0487 -1.7946 -0.7968
   85MOL    H4542213   2.306   2.488   1.367 -2.3669  1.3572  2.0174
   85MOL    H4642214   2.145   2.430   1.418 -1.3801  0.0768 -1.4486
   85MOL    H4742215   2.239   2.211   1.446  0.1942  0.1904 -1.2074
   85MOL    H4842216   2.388   2.249   1.365  0.8994 -1.1171  1.4458
   85MOL    H4942217   2.421   2.231   1.607  1.6018  0.9237  0.6001
   85MOL    H5042218   2.434   2.407   1.567  0.1717 -0.2533 -1.2521
   85MOL    H5142219   2.298   2.346   1.655  2.3775 -0.6525  2.8803
   85MOL    C5242220   1.899   2.188   0.867  0.1617 -0.5486  0.1544
   85MOL    C5342221   1.987   2.091   0.947  0.4855  0.6995  0.7459
   85MOL    O5442222   1.905   2.004   1.025 -0.4991  0.4189 -0.0136
   85MOL    C5542223   1.848   2.063   1.139  0.2389  0.0526  0.0296
   85MOL    C5642224   1.799   1.949   1.227  0.4035  0.4289 -0.1308
   85MOL    C5742225   1.697   1.857   1.158 -0.4526  0.4773  0.0237
   85MOL    C5842226   1.608   1.773   1.250 -0.6253  0.3587  0.0895
   85MOL    C5942227   1.690   1.675   1.335 -0.0024  0.6611 -0.3354
   85MOL    C6042228   1.610   1.614   1.450  0.1965 -0.3666 -0.4165
   85MOL    H6142229   1.872   2.161   0.765  0.2843  0.2848 -0.1021
   85MOL    H6242230   1.805   2.207   0.919  0.9282 -1.8679  2.0769
   85MOL    H6342231   2.048   2.150   1.015  0.7908  1.1057  0.1276
   85MOL    H6442232   1.766   2.133   1.123 -0.2362 -0.7054 -0.8962
   85MOL    H6542233   1.917   2.129   1.192  0.1890 -0.3436  0.5873
   85MOL    H6642234   1.764   2.007   1.312 -1.0541  1.7193 -1.5794
   85MOL    H6742235   1.876   1.874   1.246  0.6336  0.1796 -1.9685
   85MOL    H6842236   1.620   1.902   1.096 -0.5818  1.1691  0.6717
   85MOL    H6942237   1.749   1.789   1.090  2.4917  0.8745  1.7659
   85MOL    H7042238   1.547   1.832   1.319  0.0131 -0.2029  1.1545
   85MOL    H7142239   1.529   1.721   1.197 -0.4591 -1.6213  1.7361
   85MOL    H7242240   1.736   1.601   1.269  0.5091  0.3731  0.3369
   85MOL    H7342241   1.776   1.735   1.367  0.0902  0.7175 -0.6794
   85MOL    H7442242   1.670   1.565   1.527  1.5900 -0.5278 -1.5956
   85MOL    H7542243   1.549   1.688   1.502 -0.2771 -1.3299  0.4458
   85MOL    H7642244   1.543   1.541   1.404 -0.4911 -0.5884  0.9063
   85MOL    C7742245   2.074   2.017   0.848  1.0684  0.3390  0.6338
   85MOL    C7842246   2.158   1.899   0.908  0.2388  0.1678 -0.5258
   85MOL    O7942247   2.271   1.872   0.817  0.4313  0.3118  0.0682
   85MOL    C8042248   2.395   1.930   0.842 -0.4086 -0.3510 -0.2996
   85MOL    C8142249   2.496   1.869   0.742  0.2178 -0.2404  0.1175
   85MOL    C8242250   2.529   1.722   0.757  0.0227 -0.1588 -0.1029
   85MOL    C8342251   2.654   1.678   0.694 -0.1327  0.0430 -0.1501
   85MOL    C8442252   2.683   1.709   0.550  0.0174  0.6710  0.8574
   85MOL    C8542253   2.827   1.667   0.502  0.5436  0.0592  0.2473
   85MOL    H8642254   2.143   2.095   0.814 -0.9061  1.6841 -0.3613
   85MOL    H8742255   2.010   1.981   0.767  0.5607  1.3360  0.5912
   85MOL    H8842256   2.197   1.919   1.008  0.2105  1.7530 -0.8219
   85MOL    H8942257   2.430   1.916   0.944  1.0425 -1.3822 -0.9291
   85MOL    H9042258   2.383   2.038   0.833 -0.8830 -0.2671  1.3001
   85MOL    H9142259   2.589   1.925   0.744  0.3074 -0.4273  0.9962
   85MOL    H9242260   2.465   1.891   0.639  0.7366  0.7514  0.1718
   85MOL    H9342261   2.533   1.699   0.864  0.9812 -0.0584 -0.1121
   85MOL    H9442262   2.451   1.657   0.717  0.4482 -0.8066  0.1131
   85MOL    H9542263   2.731   1.715   0.762  0.5818 -0.1632 -0.8467
   85MOL    H9642264   2.668   1.570   0.697  1.0397  0.1504 -1.4116
   85MOL    H9742265   2.600   1.666   0.494  1.6896  0.9315 -1.9040
   85MOL    H9842266   2.664   1.816   0.541 -1.6856  0.5350  2.5345
   85MOL    H9942267   2.857   1.739   0.426  1.7094 -0.7214 -0.0420
   85MOL   H10042268   2.901   1.667   0.582  1.2811 -1.7675 -0.4258
   85MOL   H10142269   2.823   1.576   0.443  0.2706  0.3933 -0.2566
   85MOL   C10242270   2.082   1.761   0.911 -1.3537 -0.2433  0.2665
   85MOL   C10342271   2.151   1.645   0.993  0.0224  0.6443  0.1201
   85MOL   O10442272   2.141   1.684   1.133 -0.5710 -0.2004  0.3870
   85MOL   C10542273   2.253   1.655   1.213  0.5294  0.2054  0.5738
   85MOL   C10642274   2.236   1.710   1.354  0.3539  0.1011 -0.5583
   85MOL   C10742275   2.373   1.728   1.428  0.2800  0.6933  0.4862
   85MOL   C10842276   2.360   1.770   1.576 -0.0039  0.4067 -0.2786
   85MOL   C10942277   2.335   1.926   1.597  0.0293 -0.4519 -0.6583
   85MOL   C11042278   2.383   1.975   1.736  0.4242  0.3833  0.4070
   85MOL   H11142279   1.979   1.780   0.943 -0.6134  0.3216  2.4212
   85MOL   H11242280   2.079   1.731   0.806  3.7809 -1.8361  0.4492
   85MOL   H11342281   2.254   1.654   0.959 -0.0071  1.7645  0.3232
   85MOL   H11442282   2.332   1.707   1.160 -0.6336 -0.1971 -1.5920
   85MOL   H11542283   2.267   1.547   1.209  0.8659  0.3157 -1.6191
   85MOL   H11642284   2.157   1.656   1.407  1.0578  1.5666  2.0689
   85MOL   H11742285   2.188   1.806   1.337 -0.2481 -0.4478 -2.0869
   85MOL   H11842286   2.431   1.637   1.407  0.2933  1.4082 -2.9633
   85MOL   H11942287   2.420   1.808   1.371  1.2547 -1.3058 -1.6388
   85MOL   H12042288   2.283   1.713   1.628  0.2481 -1.1924 -1.6254
   85MOL   H12142289   2.459   1.750   1.618  0.0982  0.8063 -0.3275
   85MOL   H12242290   2.375   2.002   1.530  0.1270 -0.2796 -0.4059
   85MOL   H12342291   2.228   1.945   1.610  0.2223  0.8668 -0.8825
   85MOL   H12442292   2.328   1.910   1.804 -2.5601  1.8445 -0.5301
   85MOL   H12542293   2.491   1.959   1.739  0.9514  3.8283  3.4792
   85MOL   H12642294   2.356   2.079   1.753  0.8594  0.3120  1.5825
   85MOL   C12742295   2.091   1.504   0.979  0.2470  0.1910  0.1706
   85MOL   C12842296   2.156   1.428   0.867 -0.1974 -0.2554 -0.0196
   85MOL   O12942297   2.077   1.306   0.853 -0.2501 -0.2137 -0.0801
   85MOL   C13042298   1.975   1.315   0.759 -0.1105 -0.3200 -0.2429
   85MOL   C13142299   1.943   1.171   0.719 -0.1341  0.2272  0.4868
   85MOL   C13242300   2.043   1.128   0.611  0.1490 -0.5375  0.2237
   85MOL   C13342301   2.018   0.985   0.555 -1.0042 -0.0025 -0.2509
   85MOL   C13442302   2.111   0.939   0.445 -0.5840 -0.0994 -0.1119
   85MOL   C13542303   2.088   0.787   0.416 -0.0448  0.1049 -0.8144
   85MOL   H13642304   2.109   1.448   1.071  0.4099 -0.2784 -0.1460
   85MOL   H13742305   1.983   1.511   0.966  0.4271  0.3599 -1.3577
   85MOL   H13842306   2.152   1.493   0.779  1.8269  0.0964  0.1322
   85MOL   H13942307   2.001   1.369   0.668 -2.4000 -0.0618 -0.7912
   85MOL   H14042308   1.903   1.376   0.814 -0.0172 -1.1068  0.7727
   85MOL   H14142309   1.851   1.149   0.664  1.0808 -0.9333 -1.1574
   85MOL   H14242310   1.952   1.096   0.798  0.2037 -0.8947 -0.5867
   85MOL   H14342311   2.055   1.187   0.520 -1.6058 -1.5603 -0.6898
   85MOL   H14442312   2.140   1.125   0.661  0.4785  0.1907 -0.3491
   85MOL   H14542313   2.016   0.924   0.646  0.2713  0.3778  0.0511
   85MOL   H14642314   1.919   0.983   0.510 -0.7803 -4.0744 -0.7783
   85MOL   H14742315   2.098   1.009   0.363  0.3624  1.0570  0.7144
   85MOL   H14842316   2.214   0.955   0.477  1.0321 -2.2552 -3.8819
   85MOL   H14942317   1.987   0.780   0.376 -0.1385  1.6194 -0.8562
   85MOL   H15042318   2.150   0.752   0.333 -0.2685 -0.8993 -0.5698
   85MOL   H15142319   2.079   0.722   0.503 -0.3680  0.1935 -0.7796
   85MOL   C15242320   2.297   1.381   0.910  0.4201 -0.2686  0.0979
   85MOL   C15342321   2.362   1.305   0.799 -0.0494 -0.0677 -1.0307
   85MOL   O15442322   2.389   1.403   0.700  0.4235 -0.5152  0.0673
   85MOL   C15542323   2.348   1.365   0.569  0.3160  0.6530 -0.5451
   85MOL   C15642324   2.397   1.473   0.470 -0.1746  0.2947 -0.3454
   85MOL   C15742325   2.377   1.456   0.326  0.1643 -0.0759  0.3059
   85MOL   C15842326   2.239   1.494   0.281  0.1309  0.0674  0.3047
   85MOL   C15942327   2.238   1.512   0.132  0.4476  0.0341 -0.0519
   85MOL   C16042328   2.097   1.555   0.086  0.0118 -0.1984  0.1738
   85MOL   H16142329   2.360   1.468   0.931 -0.1786 -0.3056  2.1656
   85MOL   H16242330   2.293   1.322   1.001  0.2884 -0.8638 -0.2921
   85MOL   H16342331   2.298   1.222   0.769  0.6228 -0.0757 -2.5101
   85MOL   H16442332   2.243   1.336   0.568  0.6831 -0.6758 -0.8963
   85MOL   H16542333   2.387   1.268   0.538  1.8338  0.9031  0.4880
   85MOL   H16642334   2.502   1.474   0.498  0.1485  1.1114 -1.5524
   85MOL   H16742335   2.370   1.576   0.492 -2.0779 -0.0604 -0.9102
   85MOL   H16842336   2.447   1.531   0.290  2.0472 -1.6751  0.4985
   85MOL   H16942337   2.397   1.354   0.291 -1.6712 -0.1054 -0.6733
   85MOL   H17042338   2.170   1.422   0.323  2.4427 -2.1468  0.4252
   85MOL   H17142339   2.220   1.598   0.309 -1.7505  0.3717 -1.9060
   85MOL   H17242340   2.311   1.589   0.105 -1.3947  1.7250 -0.3110
   85MOL   H17342341   2.268   1.420   0.083  0.5121 -0.1733  0.3698
   85MOL   H17442342   2.096   1.568   7.756  1.2215  0.4274  0.2284
   85MOL   H17542343   2.017   1.484   0.108 -0.3409 -0.1675 -0.9927
   85MOL   H17642344   2.062   1.654   0.114 -0.6169 -0.4074  0.1314
   85MOL   C17742345   2.499   1.254   0.840  0.3094 -0.6781 -0.0939
   85MOL   C17842346   2.497   1.136   0.938 -0.3634  1.3001 -0.2863
   85MOL   O17942347   2.427   1.032   0.871  0.3315  0.1517  0.0153
   85MOL   C18042348   2.352   0.948   0.953  0.7210 -0.2578  0.0413
   85MOL   C18142349   2.302   0.845   0.858  0.2993 -0.2702  0.6547
   85MOL   C18242350   2.254   0.720   0.933 -0.5474  0.5125  0.0102
   85MOL   C18342351   2.155   0.649   0.846 -0.2331  0.1549 -0.5974
   85MOL   C18442352   2.111   0.517   0.918  0.9471 -0.0471  0.5507
   85MOL   C18542353   2.033   0.424   0.821 -0.3000  0.9966  0.0270
   85MOL   H18642354   2.554   1.217   0.754 -2.1845  0.1891 -2.0893
   85MOL   H18742355   2.557   1.338   0.880  0.4337 -0.2610 -1.1393
   85MOL   H18842356   2.450   1.157   1.034 -1.5330 -1.2194 -0.2559
   85MOL   H18942357   2.279   1.010   1.005  1.0775 -0.3170  0.6171
   85MOL   H19042358   2.420   0.901   1.024  2.5213  2.7344  0.3905
   85MOL   H19142359   2.378   0.820   0.784 -1.7232  2.5818 -2.5059
   85MOL   H19242360   2.222   0.889   0.797  1.1260  1.3588  0.7257
   85MOL   H19342361   2.336   0.653   0.960 -1.7577 -1.4002 -0.9248
   85MOL   H19442362   2.214   0.752   1.029 -0.4497  2.1929 -0.4884
   85MOL   H19542363   2.075   0.722   0.836 -1.4302 -1.0589  0.0179
   85MOL   H19642364   2.196   0.631   0.747  1.2880 -0.5415  0.1252
   85MOL   H19742365   2.203   0.467   0.949  1.0798 -0.3338 -0.2849
   85MOL   H19842366   2.051   0.545   1.004 -1.3447 -1.4441 -0.5535
   85MOL   H19942367   1.997   0.333   0.869 -0.3444  0.0246 -1.8103
   85MOL   H20042368   1.933   0.454   0.790 -1.1942  0.4925  2.3005
   85MOL   H20142369   2.089   0.383   0.737  1.2082 -0.7917  1.8407
   85MOL   C20242370   2.639   1.089   0.970 -0.4060 -0.0310 -0.0073
   85MOL   C20342371   2.691   1.146   1.110  0.0466 -0.1047  0.0622
   85MOL   O20442372   2.702   1.289   1.096 -0.1910  0.3116 -0.3865
   85MOL   C20542373   2.608   1.365   1.165 -0.8690 -0.1569 -0.4460
   85MOL   C20642374   2.640   1.509   1.153  0.4539 -0.3535  0.5718
   85MOL   C20742375   2.750   1.553   1.250 -0.2929 -0.8909 -0.0351
   85MOL   C20842376   2.785   1.701   1.228  0.7606 -0.3077 -0.4207
   85MOL   C20942377   2.893   1.758   1.327 -0.5942  0.3700  0.4127
   85MOL   C21042378   3.033   1.724   1.288  0.0590  0.0156  0.0163
   85MOL   H21142379   2.654   0.981   0.977  0.7437  0.1397  0.1748
   85MOL   H21242380   2.696   1.123   0.884 -1.2029  1.4037  0.0088
   85MOL   H21342381   2.617   1.118   1.185 -1.6447  2.5048 -0.5729
   85MOL   H21442382   2.600   1.359   1.274 -3.0636 -0.6669 -0.6082
   85MOL   H21542383   2.512   1.357   1.115  0.7798  0.5773 -3.9138
   85MOL   H21642384   2.552   1.570   1.177  0.3642 -0.5235  0.6732
   85MOL   H21742385   2.670   1.543   1.054 -0.3560 -0.6261  0.2257
   85MOL   H21842386   2.722   1.555   1.355  0.2731 -0.3163  0.1127
   85MOL   H21942387   2.841   1.495   1.238  1.5329  1.5075  1.7812
   85MOL   H22042388   2.815   1.714   1.124 -1.8907  1.3757 -1.0272
   85MOL   H22142389   2.694   1.760   1.239 -0.2019 -1.7233 -0.7056
   85MOL   H22242390   2.883   1.867   1.325 -0.5420  0.3661 -0.2647
   85MOL   H22342391   2.873   1.724   1.428 -2.0310 -0.4788 -0.1438
   85MOL   H22442392   3.090   1.801   1.341  0.0157  1.7501 -2.3675
   85MOL   H22542393   3.061   1.621   1.308 -0.5234 -0.0251  0.6590
   85MOL   H22642394   3.045   1.746   1.182 -0.4418 -2.4011 -0.5618
   85MOL   C22742395   2.833   1.100   1.132 -0.9965  0.0594 -0.5041
   85MOL   C22842396   2.902   1.163   1.256 -0.2837 -0.6035 -0.1914
   85MOL   O22942397   2.831   1.118   1.371 -0.2794  0.1925 -0.1714
   85MOL   C23042398   2.850   1.199   1.490  0.3218 -0.2528  0.1773
   85MOL   C23142399   2.722   1.169   1.568 -0.1360  0.2931  0.4108
   85MOL   C23242400   2.589   1.211   1.510 -0.0379  0.0901  0.5204
   85MOL   C23342401   2.472   1.169   1.597  0.1786 -0.8330 -0.2821
   85MOL   C23442402   2.437   1.019   1.576  0.6853 -0.6168  0.5863
   85MOL   C23542403   2.322   0.960   1.650  0.7445  0.3975  0.1872
   85MOL   H23642404   2.830   0.992   1.143  1.0002 -0.0263 -0.7252
   85MOL   H23742405   2.887   1.117   1.039 -1.3624 -1.9161 -1.0891
   85MOL   H23842406   2.896   1.271   1.249 -0.4181 -0.5808  0.3088
   85MOL   H23942407   2.856   1.305   1.468 -3.5337  0.2482  1.2007
   85MOL   H24042408   2.944   1.164   1.535  0.0724 -1.0210  0.1133
   85MOL   H24142409   2.736   1.210   1.668 -0.8324  1.2682  0.1136
   85MOL   H24242410   2.713   1.062   1.588  0.7510  0.3789  1.3330
   85MOL   H24342411   2.598   1.319   1.498 -1.0479 -0.1106 -2.6911
   85MOL   H24442412   2.581   1.174   1.408 -0.5448  2.1171 -0.2088
   85MOL   H24542413   2.484   1.187   1.703  0.6310  0.7486 -0.5960
   85MOL   H24642414   2.391   1.228   1.554 -0.0769 -1.0895 -0.1503
   85MOL   H24742415   2.416   0.996   1.472  0.7570 -1.4686  0.7571
   85MOL   H24842416   2.534   0.971   1.589  0.6301 -0.7072  0.6715
   85MOL   H24942417   2.233   1.017   1.621  0.1794 -1.1898 -1.2769
   85MOL   H25042418   2.305   0.856   1.622 -0.5650  1.1797 -2.0891
   85MOL   H25142419   2.354   0.957   1.754 -0.5969 -2.3646  0.5503
   85MOL   C25242420   3.050   1.115   1.274  0.2994 -0.5754  0.3160
   85MOL   C25342421   3.061   0.960   1.290  0.4746  0.4634 -0.7210
   85MOL   O25442422   3.056   0.927   1.429  0.4030  0.2331 -0.1736
   85MOL   C25542423   2.983   0.816   1.467 -0.1368  0.7946  0.6472
   85MOL   C25642424   2.956   0.809   1.621 -0.0846  0.2218 -0.1818
   85MOL   C25742425   2.873   0.685   1.663 -0.4034 -0.1510  0.2764
   85MOL   C25842426   2.718   0.712   1.646  0.4181  0.1058 -0.5532
   85MOL   C25942427   2.638   0.580   1.653  0.0913 -0.4889  0.3008
   85MOL   C26042428   2.491   0.604   1.659 -0.4458 -0.2982 -0.7417
   85MOL   H26142429   3.104   1.141   1.184  1.2814  0.4903  1.1955
   85MOL   H26242430   3.100   1.167   1.356 -2.9966  0.2432  1.9292
   85MOL   H26342431   2.975   0.917   1.240  1.9932 -2.8077 -0.6410
   85MOL   H26442432   3.042   0.733   1.428 -1.3659  0.0937  0.2605
   85MOL   H26542433   2.885   0.823   1.422 -0.9052  1.2071  2.3431
   85MOL   H26642434   2.906   0.899   1.658 -0.8408  0.1121 -0.9141
   85MOL   H26742435   3.051   0.790   1.671  0.5626 -2.1784 -2.2119
   85MOL   H26842436   2.902   0.607   1.593  0.1571 -0.3808  0.7587
   85MOL   H26942437   2.892   0.661   1.768 -0.5856  1.1542  0.6195
   85MOL   H27042438   2.677   0.784   1.718  1.0803 -0.6377  0.5804
   85MOL   H27142439   2.701   0.758   1.549 -0.6230  0.4968 -0.1973
   85MOL   H27242440   2.650   0.518   1.565 -0.1515 -0.4956  0.2710
   85MOL   H27342441   2.678   0.525   1.739 -1.5399  1.5578  2.4450
   85MOL   H27442442   2.472   0.672   1.742  1.4748  0.3001 -0.7727
   85MOL   H27542443   2.446   0.647   1.569  2.1529 -1.8805 -2.8946
   85MOL   H27642444   2.437   0.513   1.684 -1.6809  1.0423  1.5851
   85MOL   C27742445   3.190   0.894   1.228  0.1151  0.5006  0.1937
   85MOL   C27842446   3.198   0.897   1.075 -0.5015  0.3984  0.2732
   85MOL   O27942447   3.314   0.829   1.040  0.3117  0.0982 -0.6374
   85MOL   C28042448   3.431   0.913   1.032 -0.4776 -0.0057  0.6327
   85MOL   C28142449   3.553   0.819   1.028  0.5621  0.6044  0.1701
   85MOL   C28242450   3.584   0.744   1.153  1.0171  0.4962  0.3045
   85MOL   C28342451   3.673   0.622   1.132 -0.9835  0.9748  0.3363
   85MOL   C28442452   3.700   0.540   1.259  0.0220  0.0879 -0.4747
   85MOL   C28542453   3.777   0.623   1.365 -0.5160 -0.0157  0.5319
   85MOL   H28642454   3.277   0.946   1.268  1.9541 -2.3942  0.1011
   85MOL   H28742455   3.208   0.799   1.277  1.0271  0.6231  0.1074
   85MOL   H28842456   3.201   1.001   1.040  1.0650  0.6586  1.1682
   85MOL   H28942457   3.430   0.978   1.120 -2.8951  1.0669 -0.1536
   85MOL   H29042458   3.424   0.981   0.948 -0.8321  2.2757  2.4461
   85MOL   H29142459   3.654   0.853   1.007  1.9089 -2.7539  0.8807
   85MOL   H29242460   3.537   0.746   0.949  3.7091  0.7990 -0.7175
   85MOL   H29342461   3.621   0.801   1.239 -2.1250  1.1498  1.3018
   85MOL   H29442462   3.489   0.707   1.191 -0.1323  1.2654 -1.7158
   85MOL   H29542463   3.635   0.558   1.052  1.5381  0.8383 -0.7768
   85MOL   H29642464   3.768   0.657   1.093 -0.5529 -2.1720 -1.6564
   85MOL   H29742465   3.611   0.501   1.309  1.8657 -3.3015  0.2988
   85MOL   H29842466   3.760   0.454   1.231 -1.1105 -1.8429  2.7218
   85MOL   H29942467   3.870   0.646   1.312 -0.3435 -1.7195  0.0624
   85MOL   H30042468   3.723   0.711   1.400 -1.7245 -0.2440 -0.7129
   85MOL   H30142469   3.809   0.567   1.453 -0.8419  1.8965  1.9000
   85MOL   C30242470   3.080   0.815   1.008  0.1612 -0.5325 -0.0987
   85MOL   C30342471   3.078   0.824   0.850 -0.0755 -0.7051 -0.4961
   85MOL   O30442472   2.951   0.767   0.818  0.5179  0.6823  0.2532
   85MOL   C30542473   2.852   0.856   0.773 -0.4369 -0.1045  0.6790
   85MOL   C30642474   2.719   0.784   0.762  0.8979  0.3991 -0.0308
   85MOL   C30742475   2.716   0.683   0.644  0.5744  0.0265 -1.2078
   85MOL   C30842476   2.576   0.612   0.639 -0.5297 -0.0501  0.0013
   85MOL   C30942477   2.568   0.512   0.521  0.2011 -1.0600 -0.3451
   85MOL   C31042478   2.646   0.378   0.530  0.0359 -0.5828  0.6782
   85MOL   H31142479   3.077   0.714   1.047  1.2994 -1.9467 -3.5388
   85MOL   H31242480   2.990   0.872   1.033  0.5010 -0.4833  1.0609
   85MOL   H31342481   3.099   0.928   0.826  0.6524 -0.3850  1.4154
   85MOL   H31442482   2.876   0.904   0.677 -0.0860 -0.8149  0.4112
   85MOL   H31542483   2.842   0.929   0.853  1.9600 -0.9322  1.7673
   85MOL   H31642484   2.646   0.863   0.752  1.3056  0.6549 -1.0239
   85MOL   H31742485   2.704   0.735   0.859 -1.7995  1.9725  0.3802
   85MOL   H31842486   2.735   0.735   0.550 -0.3617  0.3128 -1.2526
   85MOL   H31942487   2.789   0.603   0.652 -0.3674 -0.6142  1.4376
   85MOL   H32042488   2.555   0.569   0.737 -0.9437  0.8976  0.3334
   85MOL   H32142489   2.498   0.686   0.625 -0.6677  0.1847  1.8557
   85MOL   H32242490   2.462   0.490   0.517 -0.3906  1.6618 -1.0997
   85MOL   H32342491   2.591   0.557   0.425  0.9447  0.7536  0.6502
   85MOL   H32442492   2.611   0.320   0.615 -1.9278  0.7123  0.7970
   85MOL   H32542493   2.614   0.329   0.439  2.1440 -1.1758  0.2255
   85MOL   H32642494   2.751   0.407   0.521  0.0574 -0.1754  2.0358
   85MOL   C32742495   3.188   0.735   0.783  0.3237 -0.0609  0.5201
   85MOL   C32842496   3.166   0.720   0.635 -0.1689 -0.4283  0.3990
   85MOL   O32942497   3.273   0.762   0.553 -0.1407  0.1518  0.1431
   85MOL   C33042498   3.304   0.898   0.567 -0.0610  1.2292  0.3112
   85MOL   C33142499   3.459   0.904   0.522 -0.5497 -0.1114 -0.3059
   85MOL   C33242500   3.563   0.852   0.625  0.4619 -0.0656 -0.5567
   85MOL   C33342501   3.694   0.821   0.560  0.5392  0.4198 -0.4691
   85MOL   C33442502   3.783   0.749   0.667 -0.1874  0.3689  0.5433
   85MOL   C33542503   3.928   0.729   0.621  0.2661  0.4245  0.9002
   85MOL   H33642504   3.190   0.638   0.833 -1.0330 -0.2336  0.2498
   85MOL   H33742505   3.286   0.777   0.803  0.7285 -1.5144  1.7643
   85MOL   H33842506   3.082   0.776   0.594 -1.0618 -2.2002 -0.2616
   85MOL   H33942507   3.299   0.950   0.662  3.0149  2.9114 -0.3788
   85MOL   H34042508   3.231   0.956   0.511  0.0909  1.7447  0.6419
   85MOL   H34142509   3.475   1.011   0.508 -2.4425  0.0726 -1.1660
   85MOL   H34242510   3.471   0.862   0.422  1.4766  0.1611 -0.2013
   85MOL   H34342511   3.568   0.925   0.706 -0.1525 -2.2537  1.4914
   85MOL   H34442512   3.524   0.761   0.671 -1.1017 -0.2793 -2.2840
   85MOL   H34542513   3.676   0.748   0.480 -3.7813 -0.2389  0.9996
   85MOL   H34642514   3.739   0.910   0.515  1.5587  0.1011 -0.0839
   85MOL   H34742515   3.790   0.802   0.762  0.6196 -2.5225  2.1386
   85MOL   H34842516   3.735   0.657   0.700 -0.9961  0.2697 -0.8659
   85MOL   H34942517   3.930   0.650   0.545 -1.7729  1.1844  0.0066
   85MOL   H35042518   3.970   0.821   0.580 -0.5545  1.3014  2.0208
   85MOL   H35142519   3.991   0.694   0.702 -0.4824 -1.7303  0.5855
   85MOL   C35242520   3.132   0.569   0.591 -0.9175  0.1533  0.0325
   85MOL   C35342521   3.107   0.531   0.444  0.4358  0.4709  0.7997
   85MOL   O35442522   3.001   0.614   0.410 -0.0427 -0.1407  0.2261
   85MOL   C35542523   3.003   0.678   0.281  0.5171  0.1255 -1.1422
   85MOL   C35642524   2.865   0.743   0.254 -0.1463 -0.6106  0.2995
   85MOL   C35742525   2.762   0.648   0.204  0.1946  0.0137  0.7684
   85MOL   C35842526   2.622   0.695   0.184  0.6711  0.3311 -0.0960
   85MOL   C35942527   2.527   0.589   0.134  0.3721  0.0350  0.6348
   85MOL   C36042528   2.390   0.656   0.091  0.0023  0.1910 -0.3127
   85MOL   H36142529   3.192   0.491   0.637 -0.5583 -0.1197 -0.9067
   85MOL   H36242530   3.040   0.545   0.644  0.0193  0.2556  1.7388
   85MOL   H36342531   3.194   0.536   0.378  0.2821  3.0900  0.7166
   85MOL   H36442532   3.019   0.596   0.211  0.9396 -0.8855  0.1380
   85MOL   H36542533   3.087   0.747   0.274 -1.7780  2.7901 -4.2443
   85MOL   H36642534   2.878   0.816   0.174 -2.4839 -0.2939  0.1728
   85MOL   H36742535   2.827   0.788   0.346  1.9014  0.6583  0.5422
   85MOL   H36842536   2.790   0.595   0.113 -3.1205 -2.0004  0.8438
   85MOL   H36942537   2.766   0.573   0.283  1.2656 -0.2639  0.4630
   85MOL   H37042538   2.579   0.734   0.276  0.9274  3.4074 -1.2042
   85MOL   H37142539   2.619   0.774   0.108 -0.7109  1.6778  1.3175
   85MOL   H37242540   2.562   0.530   0.049 -2.8702 -1.1541  0.0776
   85MOL   H37342541   2.509   0.514   0.210 -3.7902 -2.4103 -2.5825
   85MOL   H37442542   2.347   0.703   0.179 -1.0384 -1.0190 -0.1482
   85MOL   H37542543   2.402   0.729   0.011 -2.7287  0.3534 -0.6285
   85MOL   H37642544   2.320   0.581   0.054 -0.6100  1.2615 -1.3710
   85MOL   C37742545   3.048   0.386   0.431 -0.4347 -1.0234  0.3513
   85MOL   C37842546   3.149   0.276   0.369 -0.3167 -0.1549 -0.7944
   85MOL   O37942547   3.088   0.150   0.382 -0.2876  0.0867 -0.2924
   85MOL   C38042548   3.016   0.104   0.271  0.5797  0.0728 -0.9195
   85MOL   C38142549   3.115   0.038   0.175  0.1226  0.4480 -0.4785
   85MOL   C38242550   3.182   7.690   0.228  0.3303  0.7642  0.7976
   85MOL   C38342551   3.289   7.624   0.139  0.8929 -0.8505 -0.4832
   85MOL   C38442552   3.327   7.481   0.174 -0.1176  0.1796 -0.6301
   85MOL   C38542553   3.415   7.460   0.302  0.3273 -0.4705 -0.0339
   85MOL   H38642554   2.998   0.367   0.526 -2.2320 -1.3219 -0.6370
   85MOL   H38742555   2.951   0.385   0.381 -1.7922 -1.7622  2.8659
   85MOL   H38842556   3.161   0.302   0.263  3.1554 -2.1396 -0.9708
   85MOL   H38942557   2.980   0.197   0.225  0.6606 -1.2847 -3.8606
   85MOL   H39042558   2.945   0.030   0.307  1.2362  0.4680  1.2424
   85MOL   H39142559   3.185   0.116   0.143 -2.2013  1.9791 -1.9275
   85MOL   H39242560   3.062   7.777   0.088  0.0562  2.7248 -1.5024
   85MOL   H39342561   3.232   7.709   0.324  0.6226  0.7166  0.6573
   85MOL   H39442562   3.103   7.615   0.233  0.3490  0.7607  1.0591
   85MOL   H39542563   3.244   7.613   0.041  1.1899 -1.7395 -0.5251
   85MOL   H39642564   3.373   7.691   0.125  0.8536 -0.3236  1.5562
   85MOL   H39742565   3.237   7.423   0.193 -0.5940  0.9657 -0.4702
   85MOL   H39842566   3.373   7.437   0.085 -1.9698  0.5219 -1.7967
   85MOL   H39942567   3.512   7.499   0.271  0.5769  0.1575  1.5265
   85MOL   H40042568   3.388   7.512   0.393  2.6440  1.2287 -0.2684
   85MOL   H40142569   3.435   7.356   0.327  3.4192  0.1572  0.3110
   85MOL   C40242570   3.282   0.287   0.451  0.6886  0.1472  0.1038
   85MOL   C40342571   3.387   0.213   0.374 -0.0625 -0.6785 -0.0112
   85MOL   O40442572   3.493   0.212   0.465  0.4236 -0.6216  0.4338
   85MOL   C40542573   3.528   0.095   0.535  0.0368 -0.2840  0.0747
   85MOL   C40642574   3.569   0.126   0.681  0.1906  0.2981  0.2482
   85MOL   C40742575   3.702   0.211   0.679 -0.2547  0.0310  0.2962
   85MOL   C40842576   3.767   0.257   0.804  0.0904 -0.8210 -1.3152
   85MOL   C40942577   3.845   0.138   0.867 -0.1658  0.5567  0.1492
   85MOL   C41042578   3.929   0.178   0.985 -0.3399  0.0736  0.1713
   85MOL   H41142579   3.271   0.239   0.548  1.0823  1.8889  1.0450
   85MOL   H41242580   3.328   0.384   0.471  0.4387  1.1509 -3.7208
   85MOL   H41342581   3.349   0.112   0.358 -1.9757 -0.1726  1.1427
   85MOL   H41442582   3.593   0.026   0.480  1.2351  1.2913 -0.5153
   85MOL   H41542583   3.442   0.030   0.550 -1.0290  0.5977 -2.0295
   85MOL   H41642584   3.593   0.038   0.740  0.6949  0.5506  0.4225
   85MOL   H41742585   3.489   0.171   0.740 -0.1950 -1.7445  1.3053
   85MOL   H41842586   3.773   0.152   0.621 -0.7984 -1.5747  1.2602
   85MOL   H41942587   3.686   0.296   0.612 -1.2874 -0.9678 -0.7398
   85MOL   H42042588   3.836   0.338   0.781 -2.0264  1.3167 -0.3262
   85MOL   H42142589   3.692   0.301   0.869  1.3452 -1.1846  0.3846
   85MOL   H42242590   3.772   0.064   0.898  1.4461 -0.4927  1.5537
   85MOL   H42342591   3.916   0.081   0.806  0.3741  0.7417  0.5995
   85MOL   H42442592   3.945   0.285   0.997 -1.0918 -0.0363  2.3762
   85MOL   H42542593   3.894   0.139   1.081  0.6283 -0.3336  0.3692
   85MOL   H42642594   4.032   0.143   0.978 -0.9624 -1.5904 -1.0792
   85MOL   C42742595   3.428   0.272   0.243  0.2248 -0.2721  0.7704
   85MOL   C42842596   3.526   0.192   0.166 -0.6240 -0.1206  0.3555
   85MOL   O42942597   3.529   0.225   0.028  0.2755  0.0559 -0.5262
   85MOL   C43042598   3.486   0.126   7.717  0.7253 -0.3090  0.2484
   85MOL   C43142599   3.597   0.014   7.698 -0.2422 -0.5531  0.3825
   85MOL   C43242600   3.570   7.682   7.597 -0.0183 -0.5470  0.1933
   85MOL   C43342601   3.643   7.547   7.621 -0.2964  0.8995 -0.5858
   85MOL   C43442602   3.796   7.564   7.627  0.0777  0.9931  0.4575
   85MOL   C43542603   3.861   7.433   7.652 -0.2104  0.6635  0.5788
   85MOL   H43642604   3.344   0.296   0.178 -0.5798 -1.4141  1.3696
   85MOL   H43742605   3.486   0.362   0.264 -2.0922  1.4314  0.0783
   85MOL   H43842606   3.504   0.086   0.177  1.9904 -0.9013 -1.2712
   85MOL   H43942607   3.466   0.176   7.622 -0.9680 -2.1732 -0.4266
   85MOL   H44042608   3.390   0.095   7.758  0.7577  1.0356  1.3794
   85MOL   H44142609   3.603   7.739   0.015 -2.2611  0.9038  1.3626
   85MOL   H44242610   3.698   0.051   7.679 -0.7491 -0.1180 -1.5442
   85MOL   H44342611   3.464   7.661   7.584 -0.1331 -1.4908  2.4907
   85MOL   H44442612   3.616   7.731   7.511  0.3982 -1.3090 -0.0282
   85MOL   H44542613   3.602   7.510   7.715 -1.2065  0.7516 -1.0367
   85MOL   H44642614   3.613   7.477   7.543  2.5618  0.3973 -1.2988
   85MOL   H44742615   3.832   7.603   7.531 -1.2863  1.3664  0.0969
   85MOL   H44842616   3.825   7.644   7.695  0.7783  1.6181 -0.5634
   85MOL   H44942617   3.823   7.381   7.740  2.7294  1.4859  2.3689
   85MOL   H45042618   3.850   7.372   7.562  1.3786  0.3130  0.6169
   85MOL   H45142619   3.968   7.442   7.666  0.5082 -2.2237 -2.4675
   85MOL   C45242620   3.676   0.211   0.211 -0.1493  0.1460 -0.5222
   85MOL   C45342621   3.785   0.094   0.202  0.4440  0.1927 -0.1747
   85MOL   O45442622   3.750   7.769   0.294  0.1736 -0.0176 -0.6240
   85MOL   C45542623   3.803   7.643   0.267  0.1209  0.2587  0.0702
   85MOL   C45642624   3.749   7.548   0.379  0.0356  0.0147 -0.6058
   85MOL   C45742625   3.833   7.561   0.505 -0.3336  0.4107 -0.2566
   85MOL   C45842626   3.784   7.497   0.634 -0.0699  0.4978  0.5965
   85MOL   C45942627   3.861   7.553   0.748 -0.1338  0.2835 -0.4433
   85MOL   C46042628   3.845   7.474   0.880  0.1835 -0.5233 -0.1308
   85MOL   H46142629   3.708   0.303   0.162 -0.3216  0.0883 -0.7491
   85MOL   H46242630   3.674   0.227   0.318  1.0627 -2.0599 -0.1394
   85MOL   H46342631   3.776   0.047   0.104 -0.0084  0.1301 -0.1033
   85MOL   H46442632   3.912   7.638   0.271  0.1348  1.2171  1.2032
   85MOL   H46542633   3.772   7.612   0.167  1.5479  1.7695 -0.8706
   85MOL   H46642634   3.753   7.441   0.359  3.2364  0.1240 -0.8280
   85MOL   H46742635   3.650   7.574   0.415 -0.0467 -2.2076  0.8866
   85MOL   H46842636   3.940   7.545   0.488  0.0706  0.4512  2.1255
   85MOL   H46942637   3.830   7.668   0.526  0.3247  0.8582 -2.3232
   85MOL   H47042638   3.679   7.527   0.641 -0.2416  0.2448 -0.7135
   85MOL   H47142639   3.784   7.389   0.622 -0.6897  0.7816 -2.3620
   85MOL   H47242640   3.969   7.552   0.735  0.0923  2.5251  1.0218
   85MOL   H47342641   3.842   7.659   0.766 -1.1473 -0.4738  3.4913
   85MOL   H47442642   3.895   7.528   0.961 -1.9560 -0.0765  0.9363
   85MOL   H47542643   3.742   7.451   0.907  0.2854  1.1558  1.8661
   85MOL   H47642644   3.887   7.376   0.858 -0.2222 -0.0963 -2.9956
   85MOL   C47742645   3.923   0.143   0.227  0.1213  0.1757 -0.0612
   85MOL   C47842646   3.939   0.201   0.368 -0.3163 -0.2799 -0.3252
   85MOL   O47942647   4.071   0.256   0.395 -0.0060  0.4081  0.1714
   85MOL   C48042648   4.095   0.316   0.525  0.6902  0.3860  0.3213
   85MOL   C48142649   4.135   0.215   0.631  0.4810  1.3321 -0.1694
   85MOL   C48242650   4.237   0.112   0.590 -0.0594  0.3654 -0.2052
   85MOL   C48342651   4.307   0.044   0.707  0.3768 -0.1611  0.4793
   85MOL   C48442652   4.226   7.716   0.790 -0.1715 -0.8349  0.0759
   85MOL   C48542653   4.289   7.679   0.928 -0.0091  0.6198 -0.5052
   85MOL   H48642654   4.003   0.073   0.203  0.2578  0.6610 -1.0481
   85MOL   H48742655   3.947   0.222   0.156  0.0331  1.4444  1.2784
   85MOL   H48842656   3.865   0.278   0.392 -1.6773 -1.5626 -0.3333
   85MOL   H48942657   4.006   0.368   0.561 -0.4860  0.8732 -3.0978
   85MOL   H49042658   4.178   0.385   0.511  1.3188 -0.6789 -1.4087
   85MOL   H49142659   4.047   0.152   0.648  2.2362 -1.2032 -0.2078
   85MOL   H49242660   4.152   0.263   0.728  1.1794  0.2756  0.2398
   85MOL   H49342661   4.187   0.042   0.522 -0.0379  0.5072 -0.3667
   85MOL   H49442662   4.307   0.160   0.522  0.0116  1.4614  0.6308
   85MOL   H49542663   4.407   0.004   0.690  0.5302  0.6191 -0.4855
   85MOL   H49642664   4.331   0.122   0.780 -2.5849  1.9958 -0.7237
   85MOL   H49742665   4.125   7.754   0.805  0.6119  1.4491 -0.2674
   85MOL   H49842666   4.215   7.630   0.724  1.8582 -0.9175 -0.2072
   85MOL   H49942667   4.302   7.772   0.982  0.7177  0.6349 -0.7033
   85MOL   H50042668   4.225   7.613   0.986  1.5145  1.5173  2.2581
   85MOL   H50142669   4.380   7.620   0.916  0.6339  1.3510  0.7786
   85MOL   H50242670   3.918   0.121   0.439 -2.4715 -1.8410 -2.6082
   86MOL     C142671   2.446   4.127   6.567 -0.3558  0.1967  0.7945
   86MOL     C242672   2.507   4.014   6.483  0.1290  0.6910 -0.0186
   86MOL     O342673   2.587   4.062   6.379 -0.5848 -0.4165 -0.4452
   86MOL     C442674   2.725   4.097   6.410 -0.1365  0.1789  0.1894
   86MOL     C542675   2.791   4.131   6.276 -0.1880 -0.3419 -0.1767
   86MOL     C642676   2.782   4.278   6.237  0.6581 -0.8118  0.5552
   86MOL     C742677   2.863   4.322   6.112 -0.1120  0.4362  0.7263
   86MOL     C842678   2.809   4.454   6.051  0.1937  0.2940 -0.1550
   86MOL     C942679   2.800   4.593   6.130  0.2280 -0.4014 -0.0973
   86MOL    H1042680   2.433   4.218   6.509  0.2827 -0.6582 -0.7549
   86MOL    H1142681   2.355   4.100   6.619 -0.2258  1.9476  1.9524
   86MOL    H1242682   2.553   3.936   6.543 -1.8159 -2.0963 -1.9720
   86MOL    H1342683   2.770   4.011   6.460  1.7535  0.7870 -0.4217
   86MOL    H1442684   2.722   4.174   6.487 -0.4443  1.4397 -1.0596
   86MOL    H1542685   2.756   4.065   6.197 -0.7998 -0.8613  0.5173
   86MOL    H1642686   2.899   4.118   6.286 -0.4346 -1.4022  1.2583
   86MOL    H1742687   2.677   4.307   6.235  1.3443  1.7843  0.1983
   86MOL    H1842688   2.832   4.341   6.311 -1.5500  0.9851  0.5696
   86MOL    H1942689   2.966   4.327   6.148 -0.5979 -0.4298  2.2882
   86MOL    H2042690   2.866   4.249   6.031  0.6820 -0.0885  1.2262
   86MOL    H2142691   2.711   4.443   6.004  0.1874  3.4883 -0.9967
   86MOL    H2242692   2.870   4.465   5.961 -1.0990 -1.0044 -1.2286
   86MOL    H2342693   2.733   4.580   6.215  0.5048 -1.4048 -0.0210
   86MOL    H2442694   2.896   4.632   6.165  1.1249  0.0635 -2.9936
   86MOL    H2542695   2.762   4.671   6.065  2.5232 -0.2083 -1.2486
   86MOL    H2642696   2.527   4.151   6.636  1.2897  1.7492 -1.5708
   86MOL    C2742697   2.389   3.940   6.420 -0.0022 -0.3080 -0.1220
   86MOL    C2842698   2.299   3.863   6.521 -0.1874  0.0990  0.1831
   86MOL    O2942699   2.193   3.950   6.546 -0.1093 -0.2527  0.3364
   86MOL    C3042700   2.135   3.939   6.678  0.1650  0.0511  0.3169
   86MOL    C3142701   1.995   3.992   6.653 -0.1057  0.0022 -0.1079
   86MOL    C3242702   1.915   4.000   6.787  1.1615  0.3628  0.2334
   86MOL    C3342703   1.785   4.087   6.791  0.2110  0.8799 -0.4521
   86MOL    C3442704   1.734   4.106   6.933  0.1421  0.0154 -0.4605
   86MOL    C3542705   1.794   4.234   7.003 -0.3402  0.3416 -0.3269
   86MOL    H3642706   2.323   4.005   6.362 -0.3296 -1.5583 -1.1834
   86MOL    H3742707   2.424   3.873   6.342  1.3348 -0.6198  0.7421
   86MOL    H3842708   2.358   3.835   6.608  0.3718 -0.1934 -0.2888
   86MOL    H3942709   2.187   4.001   6.751 -0.1773 -1.5483  1.9472
   86MOL    H4042710   2.120   3.840   6.721 -1.5202 -1.0924 -2.7672
   86MOL    H4142711   1.949   3.930   6.577  1.1227  0.9527 -1.6449
   86MOL    H4242712   1.996   4.088   6.602 -1.1750  0.5633  0.8854
   86MOL    H4342713   1.882   3.902   6.821  4.1115 -0.0620  2.0578
   86MOL    H4442714   1.980   4.039   6.865  1.8826 -0.7914  0.2149
   86MOL    H4542715   1.808   4.178   6.735  2.7814  0.6428  0.1413
   86MOL    H4642716   1.704   4.033   6.741  0.5481  0.3944 -0.4813
   86MOL    H4742717   1.628   4.112   6.911  0.5049 -0.0328 -2.2850
   86MOL    H4842718   1.753   4.014   6.988  0.8142 -0.6585 -1.7771
   86MOL    H4942719   1.784   4.322   6.939  0.9112  0.3821 -0.4805
   86MOL    H5042720   1.737   4.252   7.094  2.8693  1.3159  1.5435
   86MOL    H5142721   1.895   4.214   7.036 -1.5762 -0.3067  3.2514
   86MOL    C5242722   2.241   3.731   6.460  0.1848  0.4593 -0.6402
   86MOL    C5342723   2.240   3.604   6.551  0.1703  0.0350 -0.3543
   86MOL    O5442724   2.103   3.572   6.579  0.4177 -0.3842  0.7588
   86MOL    C5542725   2.056   3.547   6.705 -0.6572 -0.5304 -0.6028
   86MOL    C5642726   2.100   3.413   6.763  0.0097 -0.0429  0.2864
   86MOL    C5742727   2.036   3.399   6.904  0.3751 -0.2997 -0.2359
   86MOL    C5842728   2.071   3.268   6.970 -0.2461 -0.2937  0.7496
   86MOL    C5942729   2.000   3.251   7.105  0.4620  0.0893  0.2024
   86MOL    C6042730   2.044   3.138   7.189 -0.1652 -0.5093  0.1995
   86MOL    H6142731   2.299   3.700   6.372  1.1273  1.6772 -0.4573
   86MOL    H6242732   2.143   3.736   6.413 -1.6530  0.5867  3.0816
   86MOL    H6342733   2.298   3.623   6.642 -1.2644 -0.5787  0.6997
   86MOL    H6442734   1.948   3.555   6.697 -0.6018  1.6695  0.4923
   86MOL    H6542735   2.071   3.627   6.777 -1.6018 -0.2043 -0.7559
   86MOL    H6642736   2.208   3.406   6.773  0.0392 -1.5679 -0.9587
   86MOL    H6742737   2.064   3.331   6.702 -0.3852  0.0927  0.3350
   86MOL    H6842738   2.080   3.476   6.967  0.7091 -0.6274 -0.0656
   86MOL    H6942739   1.928   3.415   6.908  0.3886 -0.5832  1.4394
   86MOL    H7042740   2.052   3.180   6.909  0.5275  0.5891 -0.7804
   86MOL    H7142741   2.178   3.271   6.988 -0.3554  0.7256  1.2376
   86MOL    H7242742   2.041   3.332   7.165  1.9827 -1.0143  0.6946
   86MOL    H7342743   1.891   3.249   7.096  0.3224  3.5460  0.3521
   86MOL    H7442744   2.151   3.141   7.209  0.4607 -1.8047 -2.6730
   86MOL    H7542745   1.985   3.136   7.280 -3.0287  0.4695 -1.5555
   86MOL    H7642746   2.011   3.049   7.135 -0.9599 -0.3933  0.4856
   86MOL    C7742747   2.288   3.469   6.485 -0.0008  0.0913  0.6170
   86MOL    C7842748   2.446   3.440   6.488  0.0160 -0.2789 -1.0844
   86MOL    O7942749   2.495   3.345   6.396  0.6175 -0.5090  0.2093
   86MOL    C8042750   2.495   3.384   6.262 -0.1786 -0.1940  0.5897
   86MOL    C8142751   2.561   3.274   6.179  0.4455 -0.0716  0.3856
   86MOL    C8242752   2.713   3.285   6.206  0.2554 -0.1947 -0.2051
   86MOL    C8342753   2.789   3.186   6.120  0.6394 -0.0095  0.5502
   86MOL    C8442754   2.927   3.161   6.181  0.1629  0.5136  0.1002
   86MOL    C8542755   3.035   3.271   6.183 -0.4295 -0.5187  0.2160
   86MOL    H8642756   2.247   3.469   6.385  0.4462 -2.4244  0.3958
   86MOL    H8742757   2.229   3.399   6.544 -1.0766 -0.4295 -1.0723
   86MOL    H8842758   2.500   3.531   6.461  0.6269  0.1426  1.4502
   86MOL    H8942759   2.546   3.479   6.248 -0.1074 -0.5320 -1.6289
   86MOL    H9042760   2.391   3.389   6.232 -0.0343  0.5217  0.2158
   86MOL    H9142761   2.537   3.285   6.073  0.1608 -0.4800  0.4047
   86MOL    H9242762   2.522   3.174   6.199  0.6320 -0.5902 -1.7851
   86MOL    H9342763   2.750   3.385   6.181  0.4923  0.3148  2.0549
   86MOL    H9442764   2.747   3.273   6.309 -0.0817 -0.8380 -0.1725
   86MOL    H9542765   2.732   3.093   6.120  0.6487 -0.0367 -0.9490
   86MOL    H9642766   2.791   3.219   6.016  0.6665 -1.6271  0.0201
   86MOL    H9742767   2.918   3.135   6.287 -0.5505  0.9194  0.1398
   86MOL    H9842768   2.971   3.077   6.127  0.6671  1.3569 -0.8293
   86MOL    H9942769   3.049   3.292   6.077  0.8100  3.0316  0.9975
   86MOL   H10042770   3.004   3.364   6.232  1.5251 -1.1361  2.7336
   86MOL   H10142771   3.135   3.245   6.216 -0.9126 -0.9680  1.3423
   86MOL   C10242772   2.496   3.405   6.633 -0.3429  0.1887  0.0122
   86MOL   C10342773   2.519   3.515   6.738  0.0925 -0.2503 -0.3708
   86MOL   O10442774   2.582   3.440   6.843  0.0894 -0.7444 -0.7523
   86MOL   C10542775   2.495   3.404   6.952  0.3921  0.1401 -0.1139
   86MOL   C10642776   2.555   3.312   7.049 -0.7464 -0.1928  0.0395
   86MOL   C10742777   2.472   3.278   7.176 -0.1184 -0.1444  0.3157
   86MOL   C10842778   2.548   3.184   7.277  0.1072  0.6011 -0.0447
   86MOL   C10942779   2.457   3.103   7.372  0.2024 -0.0613  0.0163
   86MOL   C11042780   2.537   3.007   7.465 -0.3018 -0.0974  0.4472
   86MOL   H11142781   2.438   3.323   6.676 -0.2553  0.7810  1.2785
   86MOL   H11242782   2.596   3.361   6.632 -0.2884  0.3157 -2.1432
   86MOL   H11342783   2.430   3.561   6.781  0.9065 -0.3853  1.5291
   86MOL   H11442784   2.405   3.366   6.904  0.8871 -0.0289 -0.9277
   86MOL   H11542785   2.478   3.499   7.004  0.2675  0.0376  0.0329
   86MOL   H11642786   2.648   3.357   7.083  0.2551 -1.4147 -1.0268
   86MOL   H11742787   2.598   3.228   6.995 -0.0238  0.9153 -1.1442
   86MOL   H11842788   2.437   3.366   7.229 -2.0281  1.1229 -2.9693
   86MOL   H11942789   2.381   3.223   7.151 -0.4239  0.4904  0.0197
   86MOL   H12042790   2.624   3.125   7.226 -1.0217 -0.1193 -0.9006
   86MOL   H12142791   2.618   3.251   7.327 -0.1345  1.2135 -0.5173
   86MOL   H12242792   2.401   3.175   7.432  1.9641 -0.2953  2.0274
   86MOL   H12342793   2.392   3.032   7.321 -0.1503 -1.4331  2.2904
   86MOL   H12442794   2.609   3.069   7.517  0.7818  0.8198 -2.0317
   86MOL   H12542795   2.477   2.957   7.540 -2.3256 -0.4270 -1.3260
   86MOL   H12642796   2.585   2.936   7.398 -1.4673 -1.3634  0.9212
   86MOL   C12742797   2.610   3.626   6.683  0.2573  0.0933  0.1701
   86MOL   C12842798   2.644   3.728   6.797  0.3705  0.3294 -0.4541
   86MOL   O12942799   2.515   3.782   6.836  0.1851  0.3182  0.0449
   86MOL   C13042800   2.509   3.825   6.971  0.2446 -0.2372 -0.5348
   86MOL   C13142801   2.375   3.894   7.000 -0.7636 -0.0759 -0.6165
   86MOL   C13242802   2.347   3.926   7.143  0.2318  0.4105  0.0029
   86MOL   C13342803   2.225   4.012   7.155  0.2568 -0.1158  0.3314
   86MOL   C13442804   2.178   4.030   7.297  0.1362 -0.0899  0.3858
   86MOL   C13542805   2.044   4.107   7.312  0.2757 -0.0508  0.4671
   86MOL   H13642806   2.706   3.597   6.641  0.8021  2.0679 -0.0376
   86MOL   H13742807   2.552   3.684   6.611 -0.5075  0.5713  1.1491
   86MOL   H13842808   2.695   3.668   6.872 -0.9409 -0.3717 -0.1013
   86MOL   H13942809   2.590   3.893   6.998 -0.3812  1.1218 -1.9702
   86MOL   H14042810   2.504   3.729   7.022 -2.3057 -0.4068 -1.0351
   86MOL   H14142811   2.289   3.841   6.959 -0.8511  0.0753 -0.6304
   86MOL   H14242812   2.370   3.987   6.943 -2.9025 -0.9857 -1.9755
   86MOL   H14342813   2.330   3.827   7.185  0.6084 -0.2411 -1.3475
   86MOL   H14442814   2.426   3.980   7.194  1.8179  0.4174 -2.3993
   86MOL   H14542815   2.251   4.109   7.112  0.9583 -1.1379 -1.5936
   86MOL   H14642816   2.147   3.974   7.090  0.0739  1.3880 -0.3409
   86MOL   H14742817   2.163   3.934   7.346 -0.6074 -0.6746 -0.9789
   86MOL   H14842818   2.258   4.060   7.365  1.5153 -0.0028 -1.2236
   86MOL   H14942819   1.956   4.056   7.272  1.5015  1.4367 -4.4885
   86MOL   H15042820   2.018   4.129   7.416  0.8118  0.9945  0.3816
   86MOL   H15142821   2.042   4.209   7.274  3.4623  0.6274  2.0023
   86MOL   C15242822   2.749   3.834   6.756  0.3687 -0.1162 -0.2317
   86MOL   C15342823   2.896   3.772   6.744 -0.8219  0.5610 -0.6510
   86MOL   O15442824   2.943   3.824   6.617 -0.3573 -0.5536  0.4248
   86MOL   C15542825   3.032   3.734   6.548 -0.0408 -0.4501 -0.1218
   86MOL   C15642826   2.965   3.618   6.471 -0.4691  0.0480 -0.1525
   86MOL   C15742827   2.857   3.646   6.365 -0.1180 -0.2346 -0.0008
   86MOL   C15842828   2.893   3.737   6.245 -0.6772  0.2109 -0.1680
   86MOL   C15942829   2.788   3.697   6.130  0.4444  0.3992 -1.0570
   86MOL   C16042830   2.791   3.773   5.993 -0.2922 -0.9756  0.0236
   86MOL   H16142831   2.711   3.870   6.661 -0.7215  1.7611  0.8726
   86MOL   H16242832   2.742   3.915   6.828  0.3823 -1.6573  1.5558
   86MOL   H16342833   2.899   3.663   6.745  2.9889  0.5666  1.9546
   86MOL   H16442834   3.113   3.703   6.613  2.5762  2.0092 -2.0989
   86MOL   H16542835   3.068   3.811   6.480 -1.2570 -0.4497 -0.7777
   86MOL   H16642836   2.933   3.537   6.537  1.6827 -1.8216 -1.3421
   86MOL   H16742837   3.051   3.579   6.416  0.7161  1.6859  0.5084
   86MOL   H16842838   2.837   3.542   6.336  1.0607 -0.9020  1.5295
   86MOL   H16942839   2.765   3.680   6.412  2.0008  1.3665  3.1375
   86MOL   H17042840   2.898   3.843   6.273 -0.6506 -0.3824  2.1237
   86MOL   H17142841   2.989   3.707   6.203 -0.7946 -0.4989  0.0701
   86MOL   H17242842   2.803   3.593   6.104 -3.1894 -0.6447  0.7776
   86MOL   H17342843   2.685   3.694   6.165  1.3342  1.0757  1.7447
   86MOL   H17442844   2.774   3.881   5.999 -1.0263 -0.9349 -2.2330
   86MOL   H17542845   2.884   3.757   5.938 -1.5155 -2.5203 -1.6485
   86MOL   H17642846   2.708   3.731   5.936 -1.1854 -1.2540  1.5089
   86MOL   C17742847   2.994   3.818   6.853  0.3664 -0.6497  0.2581
   86MOL   C17842848   2.966   3.741   6.985 -0.6977 -0.0658  0.3061
   86MOL   O17942849   3.001   3.610   6.948  0.6015  0.1494 -0.0352
   86MOL   C18042850   2.949   3.517   7.040  0.2727  0.1081  0.1602
   86MOL   C18142851   2.968   3.371   6.997  0.0813 -0.8360 -0.9546
   86MOL   C18242852   2.905   3.340   6.865  0.2449  0.5288  0.8243
   86MOL   C18342853   2.897   3.179   6.841 -0.0099 -0.7857 -0.2525
   86MOL   C18442854   2.804   3.154   6.723 -0.4677 -0.2098  0.3238
   86MOL   C18542855   2.821   3.013   6.660 -0.1740  0.7871 -0.4167
   86MOL   H18642856   3.100   3.805   6.831  0.3686 -1.1631  0.5531
   86MOL   H18742857   2.979   3.925   6.866  1.6742 -0.6909  2.4822
   86MOL   H18842858   2.864   3.755   7.020 -0.5155  2.0743  0.0387
   86MOL   H18942859   2.843   3.526   7.065 -0.2128 -2.5021 -0.8268
   86MOL   H19042860   3.006   3.529   7.132  0.8118 -0.1227 -0.1399
   86MOL   H19142861   2.909   3.316   7.071 -1.4380  1.8466 -0.0818
   86MOL   H19242862   3.072   3.341   7.000  0.8067  1.6338 -0.1367
   86MOL   H19342863   2.806   3.385   6.857 -1.1811 -2.4281  1.1062
   86MOL   H19442864   2.968   3.384   6.788 -0.7467 -0.8886 -0.8181
   86MOL   H19542865   2.995   3.140   6.814 -0.5258 -2.6688  0.4584
   86MOL   H19642866   2.848   3.145   6.932  1.1360 -0.5848  0.4451
   86MOL   H19742867   2.702   3.171   6.757 -0.4254 -1.6871  1.2758
   86MOL   H19842868   2.832   3.227   6.648 -0.3086  0.1415  0.7186
   86MOL   H19942869   2.757   3.000   6.573 -1.5677 -2.5732  1.0030
   86MOL   H20042870   2.925   3.015   6.629 -0.2143  0.4363 -0.5798
   86MOL   H20142871   2.817   2.929   6.730 -1.6578  2.3114  1.3753
   86MOL   C20242872   3.059   3.783   7.103 -0.4828  0.6142 -0.2181
   86MOL   C20342873   3.044   3.935   7.144 -0.0715  0.0966 -0.0299
   86MOL   O20442874   3.125   3.949   7.263  0.0475 -1.1637  0.0157
   86MOL   C20542875   3.232   4.038   7.244  0.4625  0.5910  0.4223
   86MOL   C20642876   3.333   4.016   7.361 -0.2715 -0.3051 -0.0861
   86MOL   C20742877   3.473   4.059   7.318 -0.1459 -0.4466  0.5423
   86MOL   C20842878   3.500   4.210   7.315  0.3821  0.2306  0.1306
   86MOL   C20942879   3.638   4.235   7.244 -0.1608  0.0956 -0.0128
   86MOL   C21042880   3.675   4.383   7.221 -0.0427 -0.3928 -0.3267
   86MOL   H21142881   3.015   3.732   7.188 -1.1305  1.9523  0.2590
   86MOL   H21242882   3.161   3.747   7.089 -0.5512 -1.0431  3.0593
   86MOL   H21342883   3.065   4.002   7.060 -1.3744  2.1093  1.2254
   86MOL   H21442884   3.193   4.138   7.225  0.8983  0.7795  0.5142
   86MOL   H21542885   3.284   4.018   7.150  1.1148  0.4331  0.8111
   86MOL   H21642886   3.336   3.908   7.380 -0.9153 -0.3112 -0.0247
   86MOL   H21742887   3.304   4.072   7.450 -1.7725 -0.6929 -0.3186
   86MOL   H21842888   3.545   4.017   7.389  1.2818 -1.4504 -1.4584
   86MOL   H21942889   3.484   4.016   7.219  2.8708 -1.4790  1.2549
   86MOL   H22042890   3.419   4.264   7.266 -1.2632 -2.8071 -0.6211
   86MOL   H22142891   3.511   4.233   7.421  1.0915  1.8836 -0.2831
   86MOL   H22242892   3.712   4.182   7.304  1.2138  0.9214 -0.9331
   86MOL   H22342893   3.631   4.194   7.143  1.3017  0.3213 -0.2230
   86MOL   H22442894   3.602   4.435   7.160  0.8300  0.5684 -0.5733
   86MOL   H22542895   3.682   4.429   7.320 -1.0101  1.0510 -0.9095
   86MOL   H22642896   3.772   4.385   7.171  1.2340  2.2603  2.0937
   86MOL   C22742897   2.900   3.979   7.186 -0.3620 -0.4181 -0.3603
   86MOL   C22842898   2.849   4.119   7.149 -0.2392 -0.3181  0.2926
   86MOL   O22942899   2.841   4.127   7.009 -0.3239 -0.1745 -0.1647
   86MOL   C23042900   2.923   4.235   6.961 -0.3062  0.0366 -0.1515
   86MOL   C23142901   2.900   4.217   6.816 -0.1414 -0.4097 -0.0431
   86MOL   C23242902   2.994   4.306   6.738 -0.2472  0.0366  0.1648
   86MOL   C23342903   3.003   4.266   6.586  0.5590  0.2426 -0.4772
   86MOL   C23442904   3.123   4.336   6.512  0.0036  0.6518 -0.0203
   86MOL   C23542905   3.235   4.237   6.468  0.2568  0.1257  0.6838
   86MOL   H23642906   2.829   3.899   7.166 -2.4018  1.8348 -2.3039
   86MOL   H23742907   2.897   3.988   7.295 -0.8525  1.6848 -0.5307
   86MOL   H23842908   2.920   4.191   7.188  0.7673 -0.9706 -0.3191
   86MOL   H23942909   3.026   4.224   6.994 -1.3634 -0.2014  3.2601
   86MOL   H24042910   2.889   4.332   6.997 -0.0966  0.0695 -0.0394
   86MOL   H24142911   2.796   4.237   6.791 -0.5552 -1.2429  0.9686
   86MOL   H24242912   2.913   4.114   6.784 -2.0435 -0.8097  0.4062
   86MOL   H24342913   2.958   4.408   6.750 -1.1864 -0.6540  4.1063
   86MOL   H24442914   3.094   4.304   6.781  0.2003 -1.7087 -0.9389
   86MOL   H24542915   3.017   4.159   6.570  2.3142  0.8159 -3.2693
   86MOL   H24642916   2.908   4.297   6.543 -0.3448 -0.3647  1.0597
   86MOL   H24742917   3.087   4.384   6.421 -0.5618  1.9158  0.8515
   86MOL   H24842918   3.170   4.415   6.571 -1.1078 -0.0692  1.8975
   86MOL   H24942919   3.283   4.177   6.545 -0.3044  0.1067  1.0191
   86MOL   H25042920   3.193   4.155   6.410  0.4785 -1.4400  2.6775
   86MOL   H25142921   3.295   4.281   6.388 -1.4333  1.6691  0.2406
   86MOL   C25242922   2.709   4.144   7.211 -0.1740  0.2223  0.2889
   86MOL   C25342923   2.663   4.281   7.173 -0.1472  0.2425 -0.1787
   86MOL   O25442924   2.545   4.308   7.249 -0.1889  0.1545  0.3961
   86MOL   C25542925   2.563   4.342   7.385 -0.4616  0.0103  0.3210
   86MOL   C25642926   2.425   4.387   7.433 -0.0445  0.2099  0.9682
   86MOL   C25742927   2.426   4.428   7.585  0.2779 -0.5487  0.4164
   86MOL   C25842928   2.452   4.308   7.676 -0.3463  0.0752 -0.9598
   86MOL   C25942929   2.459   4.342   0.052  0.2611  0.3869  0.6337
   86MOL   C26042930   2.590   4.416   0.090  0.1216 -0.1581  0.3019
   86MOL   H26142931   2.632   4.075   7.175 -0.2895  0.3734  0.2432
   86MOL   H26242932   2.728   4.138   7.318 -1.4136  0.6280  0.5415
   86MOL   H26342933   2.741   4.356   7.179  0.7764 -0.4382 -3.0935
   86MOL   H26442934   2.648   4.410   7.391 -0.3117 -0.2140  0.7957
   86MOL   H26542935   2.590   4.259   7.451  0.6145  2.4499  3.0765
   86MOL   H26642936   2.361   4.304   7.405  1.1551 -0.7244  0.9273
   86MOL   H26742937   2.403   4.471   7.367  1.8027 -0.1486 -0.1452
   86MOL   H26842938   2.499   4.508   7.597 -2.8638  2.5268  0.0350
   86MOL   H26942939   2.329   4.473   7.609 -0.2443 -0.9744 -0.8825
   86MOL   H27042940   2.379   4.230   7.656 -0.2908  0.0912 -1.2314
   86MOL   H27142941   2.544   4.256   7.649  0.2309  0.2226  0.6584
   86MOL   H27242942   2.368   4.392   0.086 -0.7882 -0.1901 -1.2655
   86MOL   H27342943   2.462   4.245   0.102  2.2856 -0.2093 -0.5804
   86MOL   H27442944   2.587   4.417   0.199 -1.0649  0.2832  0.2685
   86MOL   H27542945   2.684   4.366   0.067  0.6005  0.3501  1.1220
   86MOL   H27642946   2.588   4.519   0.053  1.5253  0.2331  1.2596
   86MOL   C27742947   2.592   4.297   7.035  0.3401  0.3334 -0.4719
   86MOL   C27842948   2.557   4.439   6.998  0.2230 -0.5341 -0.8683
   86MOL   O27942949   2.676   4.491   6.959  1.2644 -0.0046 -0.0904
   86MOL   C28042950   2.701   4.627   6.989  0.0016  0.0133 -0.3003
   86MOL   C28142951   2.822   4.664   6.909 -0.9503 -0.1868 -0.4471
   86MOL   C28242952   2.801   4.679   6.753  0.5729  0.5254  0.4073
   86MOL   C28342953   2.915   4.693   6.663  0.2037 -0.1968  0.1511
   86MOL   C28442954   2.888   4.671   6.514  1.3183 -0.5494 -0.2785
   86MOL   C28542955   2.811   4.786   6.453  0.8025  0.5646  0.3463
   86MOL   H28642956   2.646   4.256   6.950 -0.8728 -2.7035  0.1789
   86MOL   H28742957   2.500   4.240   7.027  0.3714  0.5068 -2.3977
   86MOL   H28842958   2.536   4.485   7.095  1.2694  2.1401 -1.8613
   86MOL   H28942959   2.711   4.653   7.095  0.8900  1.6429 -0.7615
   86MOL   H29042960   2.613   4.680   6.954  0.8384  1.1311 -0.7689
   86MOL   H29142961   2.897   4.587   6.923  0.0555  0.8918  0.2676
   86MOL   H29242962   2.867   4.753   6.954  2.8833 -1.4861 -1.4897
   86MOL   H29342963   2.731   4.612   6.705  1.7073  1.1944 -2.3139
   86MOL   H29442964   2.757   4.779   6.750 -1.3704 -0.3040  1.1088
   86MOL   H29542965   2.961   4.791   6.677  0.4049 -0.1215 -0.9532
   86MOL   H29642966   2.993   4.621   6.687  0.1575 -0.8842 -1.6879
   86MOL   H29742967   2.980   4.654   6.457  1.1322  2.8737 -1.6858
   86MOL   H29842968   2.835   4.577   6.497  0.0916  0.1063 -0.0823
   86MOL   H29942969   2.843   4.887   6.481 -0.7264  0.9055  0.9394
   86MOL   H30042970   2.792   4.767   6.348  0.5101  1.0430  0.3061
   86MOL   H30142971   2.719   4.795   6.511  0.2151 -0.6634 -0.3922
   86MOL   C30242972   2.449   4.463   6.892 -0.0732  0.0538 -0.0135
   86MOL   C30342973   2.305   4.420   6.943  0.3967 -0.6487  0.0010
   86MOL   O30442974   2.205   4.466   6.852 -0.2545  0.1705 -0.3810
   86MOL   C30542975   2.119   4.368   6.798 -0.2062  0.3740 -0.5513
   86MOL   C30642976   2.012   4.441   6.720  0.1699  0.5595  0.0352
   86MOL   C30742977   1.951   4.564   6.792 -0.1034 -0.1619  0.4967
   86MOL   C30842978   1.841   4.638   6.714  0.6042 -0.1595  0.3045
   86MOL   C30942979   1.784   4.759   6.787 -0.1766 -0.1447 -0.4936
   86MOL   C31042980   1.673   4.824   6.708  0.3495 -0.1336 -0.0141
   86MOL   H31142981   2.456   4.567   6.858 -0.3580  0.6471  1.7120
   86MOL   H31242982   2.475   4.404   6.804 -2.1639 -1.7138  0.5030
   86MOL   H31342983   2.297   4.311   6.941 -1.7986 -0.5175  0.1166
   86MOL   H31442984   2.069   4.318   6.882  1.2743 -0.1956 -0.0029
   86MOL   H31542985   2.163   4.293   6.733 -0.5628 -1.4896  1.2908
   86MOL   H31642986   1.934   4.369   6.694  1.1117 -0.7102  0.6969
   86MOL   H31742987   2.059   4.480   6.630 -1.0320  3.6082  0.6653
   86MOL   H31842988   1.911   4.538   6.890  0.2306  0.7705  0.8901
   86MOL   H31942989   2.025   4.642   6.814  1.5443 -0.9880 -1.9228
   86MOL   H32042990   1.885   4.657   6.617  0.1075 -1.0679 -0.1015
   86MOL   H32142991   1.761   4.570   6.683 -0.6097  0.4201  2.0483
   86MOL   H32242992   1.746   4.733   6.886 -0.2599  2.1362  0.0941
   86MOL   H32342993   1.856   4.838   6.802  1.8358 -1.9124 -0.6380
   86MOL   H32442994   1.637   4.914   6.758 -0.7198 -1.8836  2.4653
   86MOL   H32542995   1.720   4.862   6.618  1.0824 -2.8522 -0.8199
   86MOL   H32642996   1.581   4.768   6.693  1.3082 -1.1146 -2.3887
   86MOL   C32742997   2.256   4.464   7.087  0.4447  0.5754  0.5351
   86MOL   C32842998   2.227   4.608   7.138 -0.0046  0.0218  0.2179
   86MOL   O32942999   2.183   4.599   7.271 -0.1642  0.6390  0.1948
   86MOL   C33043000   2.046   4.577   7.297  0.8178 -0.2184  0.3823
   86MOL   C33143001   2.057   4.528   7.447  0.0912 -0.2195  1.0475
   86MOL   C33243002   1.929   4.485   7.518 -0.7202 -0.2337  0.5987
   86MOL   C33343003   1.956   4.464   7.671  0.7887  0.0173  0.5844
   86MOL   C33443004   2.043   4.347   7.699  0.3825  0.6551 -0.2263
   86MOL   C33543005   1.983   4.210   7.700 -0.0877  0.0716 -0.3480
   86MOL   H33643006   2.321   4.417   7.161  0.8271 -2.6638 -1.7425
   86MOL   H33743007   2.166   4.405   7.106  0.8625 -0.9800 -1.9723
   86MOL   H33843008   2.156   4.649   7.066  0.6379 -0.1196 -0.4987
   86MOL   H33943009   2.007   4.498   7.234  2.6572 -0.1423 -0.8952
   86MOL   H34043010   1.984   4.666   7.288 -1.1988 -1.5903  0.2817
   86MOL   H34143011   2.099   4.614   7.500 -0.0630 -0.2679  1.2512
   86MOL   H34243012   2.136   4.453   7.451  0.6862  0.4047  1.0154
   86MOL   H34343013   1.861   4.568   7.500  1.2310  1.4995  1.0646
   86MOL   H34443014   1.875   4.398   7.480  0.2448  0.0866 -1.5388
   86MOL   H34543015   1.986   4.558   7.717  0.4413  0.0171  0.8085
   86MOL   H34643016   1.864   4.447   7.727  0.3674 -2.5787 -0.8057
   86MOL   H34743017   2.127   4.339   7.631 -0.0333 -1.7838 -0.5123
   86MOL   H34843018   2.091   4.374   0.015  0.8605  2.0375 -0.8570
   86MOL   H34943019   1.941   4.200   7.600  0.7066 -0.6089 -0.6194
   86MOL   H35043020   2.057   4.130   7.695  0.2783  0.4293 -0.7468
   86MOL   H35143021   1.906   4.202   7.776  0.0596 -1.7196 -0.3765
   86MOL   C35243022   2.356   4.691   7.145 -0.3484  0.0604  0.0923
   86MOL   C35343023   2.344   4.831   7.213  0.1953  1.4693  0.2072
   86MOL   O35443024   2.288   4.907   7.112  0.5365  0.1435  0.7879
   86MOL   C35543025   2.176   4.988   7.143  0.0456  0.0020  0.5198
   86MOL   C35643026   2.121   5.057   7.013 -0.5234  0.3422  0.3498
   86MOL   C35743027   1.999   5.142   7.028 -0.1819 -0.2843  0.0623
   86MOL   C35843028   1.932   5.182   6.890 -0.4298  0.1588 -0.6287
   86MOL   C35943029   1.816   5.273   6.923  0.1539 -0.3305  0.4676
   86MOL   C36043030   1.690   5.207   6.981  0.2535  0.3632 -0.1359
   86MOL   H36143031   2.427   4.636   7.208  0.4449 -1.3661 -1.9883
   86MOL   H36243032   2.399   4.708   7.047  0.0756  3.1655  0.7796
   86MOL   H36343033   2.271   4.823   7.293 -0.2224 -0.2947 -0.3414
   86MOL   H36443034   2.206   5.069   7.210 -0.5457  0.1677  0.5844
   86MOL   H36543035   2.094   4.943   7.198 -0.0265 -1.6799 -0.9264
   86MOL   H36643036   2.085   4.979   6.946 -1.3861  0.5522  0.5734
   86MOL   H36743037   2.214   5.100   6.975 -1.4022  0.9946 -1.0713
   86MOL   H36843038   1.929   5.085   7.089 -2.3094  0.8350 -1.3003
   86MOL   H36943039   2.020   5.231   7.089  0.0816  0.8577 -1.6663
   86MOL   H37043040   2.012   5.231   6.836  1.8434 -1.2093  1.4038
   86MOL   H37143041   1.897   5.093   6.837 -0.1327 -0.5928  0.4269
   86MOL   H37243042   1.837   5.354   6.992 -0.7328 -0.3090  0.7205
   86MOL   H37343043   1.783   5.312   6.826  1.5177 -1.8420 -0.6199
   86MOL   H37443044   1.664   5.112   6.935  0.9784  0.3270 -0.4676
   86MOL   H37543045   1.698   5.184   7.087  2.2296  0.4694 -0.2408
   86MOL   H37643046   1.610   5.282   6.982 -0.9965 -0.9584  1.0251
   86MOL   C37743047   2.489   4.889   7.243 -0.2410  0.7355 -0.4258
   86MOL   C37843048   2.576   4.823   7.358 -0.1121  0.1197  0.3322
   86MOL   O37943049   2.532   4.892   7.472 -0.1300  0.3333  0.4449
   86MOL   C38043050   2.435   4.826   7.557 -0.7669 -0.1215 -0.3575
   86MOL   C38143051   2.443   4.881   7.699 -0.2024  0.2402  0.0555
   86MOL   C38243052   2.349   4.805   0.014  0.5558  0.2298 -0.5221
   86MOL   C38343053   2.348   4.864   0.153 -0.1934 -0.8171  0.5530
   86MOL   C38443054   2.300   4.784   0.272 -0.0370 -0.3155 -0.7172
   86MOL   C38543055   2.154   4.744   0.284  0.1123 -0.2196  0.3098
   86MOL   H38643056   2.535   4.902   7.145  1.1234 -0.0918  0.0898
   86MOL   H38743057   2.478   4.991   7.280  0.6239  0.0895  1.6447
   86MOL   H38843058   2.566   4.714   7.360  0.2519 -0.0102 -2.8928
   86MOL   H38943059   2.443   4.717   7.552  0.0174 -0.0180 -1.6439
   86MOL   H39043060   2.341   4.860   7.512 -1.9413 -2.9824 -0.1912
   86MOL   H39143061   2.431   4.989   7.689  2.4627  0.4916 -1.0312
   86MOL   H39243062   2.545   4.861   7.732 -0.2663 -2.9340 -1.5287
   86MOL   H39343063   2.246   4.801   7.756  0.4135 -1.1296  0.0166
   86MOL   H39443064   2.379   4.700   0.016  0.8050  0.3285  1.9115
   86MOL   H39543065   2.451   4.891   0.176 -0.0075 -0.0202 -1.1335
   86MOL   H39643066   2.295   4.958   0.137  0.4948 -0.2558  1.5143
   86MOL   H39743067   2.364   4.697   0.263  0.3734  0.1010 -1.8624
   86MOL   H39843068   2.331   4.838   0.362 -0.0912 -2.7513  0.8249
   86MOL   H39943069   2.129   4.697   0.378  1.8604 -1.2134  0.2992
   86MOL   H40043070   2.106   4.840   0.304  0.0070  0.1853 -1.7684
   86MOL   H40143071   2.107   4.691   0.201  0.8849  1.9304 -1.5696
   86MOL   C40243072   2.727   4.854   7.337  0.2503 -0.6479 -0.2366
   86MOL   C40343073   2.825   4.821   7.457  0.4173  0.5919 -0.3495
   86MOL   O40443074   2.956   4.859   7.413  0.0622  0.6336  0.8613
   86MOL   C40543075   2.990   4.995   7.408 -0.4073 -0.5979  0.0759
   86MOL   C40643076   3.143   5.007   7.384  0.0906  0.6077  0.2905
   86MOL   C40743077   3.201   5.142   7.422  0.1530  0.3810 -0.3003
   86MOL   C40843078   3.351   5.166   7.386 -0.2088 -0.5085  0.3174
   86MOL   C40943079   3.401   5.298   7.438 -0.1685 -0.3122 -0.7451
   86MOL   C41043080   3.553   5.290   7.484  0.0256 -0.1447 -0.2799
   86MOL   H41143081   2.742   4.961   7.327 -0.6407 -0.1890  2.7936
   86MOL   H41243082   2.760   4.809   7.244 -0.9351  1.1251 -1.5357
   86MOL   H41343083   2.795   4.875   7.547  2.3304  1.7071 -0.3726
   86MOL   H41443084   2.961   5.052   7.496  0.2718  0.6580 -0.4927
   86MOL   H41543085   2.943   5.047   7.324 -0.2406 -0.5879 -0.0104
   86MOL   H41643086   3.161   4.980   7.280  0.9048 -1.9892  1.0633
   86MOL   H41743087   3.197   4.936   7.446  0.2830  1.1226  0.7091
   86MOL   H41843088   3.144   5.221   7.372  0.9897  1.3391  0.2455
   86MOL   H41943089   3.173   5.171   7.524 -0.3251  2.2886 -0.9454
   86MOL   H42043090   3.406   5.092   7.444 -1.5260 -2.6366 -1.0599
   86MOL   H42143091   3.365   5.152   7.279  0.0073  0.9187  0.1523
   86MOL   H42243092   3.374   5.374   7.364  1.2787  0.5005 -0.4548
   86MOL   H42343093   3.350   5.323   7.531  0.6103 -0.1784 -0.3516
   86MOL   H42443094   3.566   5.234   7.577  0.3495  2.6257  1.4143
   86MOL   H42543095   3.608   5.223   7.418 -1.5358 -0.2122 -1.5268
   86MOL   H42643096   3.598   5.383   7.520  4.0910 -2.0682 -0.1494
   86MOL   C42743097   2.817   4.672   7.493 -0.9922 -0.3198 -0.4249
   86MOL   C42843098   2.890   4.627   7.620 -0.0918 -0.3756 -0.3959
   86MOL   O42943099   2.817   4.684   7.727  0.4125  0.5597  0.0643
   86MOL   C43043100   2.885   4.683   0.066  0.0022  0.6400 -0.1146
   86MOL   C43143101   2.821   4.798   0.149  1.2021 -0.0429 -0.5007
   86MOL   C43243102   2.847   4.942   0.091 -0.1395  0.3040 -0.1008
   86MOL   C43343103   2.982   5.005   0.124 -0.0018  0.3528  0.2385
   86MOL   C43443104   3.009   5.132   0.048 -1.2950  0.5830 -0.6663
   86MOL   C43543105   3.139   5.204   0.087  0.6809 -0.7131 -0.2477
   86MOL   H43643106   2.712   4.646   7.507 -0.8579 -0.3287  0.6355
   86MOL   H43743107   2.839   4.614   7.404  1.0643 -3.2087  1.8696
   86MOL   H43843108   2.995   4.658   7.623 -0.4592  0.7054  1.5261
   86MOL   H43943109   2.992   4.696   0.055 -0.1794  2.1982 -0.1372
   86MOL   H44043110   2.870   4.585   0.111  0.7057  1.6821  2.4495
   86MOL   H44143111   2.857   4.799   0.252 -1.4403 -1.7489  0.4757
   86MOL   H44243112   2.714   4.784   0.135  1.1893 -0.4191 -0.0523
   86MOL   H44343113   2.846   4.939   7.761  1.5879 -1.8959 -0.1101
   86MOL   H44443114   2.765   5.007   0.121 -0.1884  0.3094 -0.2480
   86MOL   H44543115   2.990   5.013   0.233  0.6584  0.5114  0.1800
   86MOL   H44643116   3.057   4.936   0.087 -0.0160 -0.1503  1.1256
   86MOL   H44743117   3.013   5.107   7.721 -1.6077  0.2176 -0.5909
   86MOL   H44843118   2.938   5.211   0.074 -1.2082  0.2703  0.5662
   86MOL   H44943119   3.222   5.134   0.075  1.1811 -0.3399  0.9587
   86MOL   H45043120   3.157   5.305   0.050 -0.3842 -1.5281 -3.1047
   86MOL   H45143121   3.126   5.219   0.194  1.8412  1.6218 -0.3810
   86MOL   C45243122   2.879   4.477   7.637  0.3409 -0.0074 -0.0830
   86MOL   C45343123   2.976   4.399   7.557 -0.0729  0.0744 -0.7943
   86MOL   O45443124   2.997   4.466   7.434 -0.0343  0.2231  0.2179
   86MOL   C45543125   3.122   4.460   7.368  0.2845 -0.1291 -0.2710
   86MOL   C45643126   3.102   4.538   7.238  0.4080 -0.1062 -0.9424
   86MOL   C45743127   3.220   4.505   7.148  0.5942  0.2415  0.5291
   86MOL   C45843128   3.235   4.591   7.020  0.0505 -0.0263  0.0879
   86MOL   C45943129   3.245   4.745   7.056  0.4588 -0.1596 -0.8475
   86MOL   C46043130   3.283   4.827   6.934 -0.8417 -0.1641 -0.0977
   86MOL   H46143131   2.904   4.444   7.738  0.0415 -1.3084 -0.4203
   86MOL   H46243132   2.773   4.455   7.623  0.8105 -1.3008 -1.8056
   86MOL   H46343133   3.062   4.390   7.623  1.2379  0.6169 -2.3700
   86MOL   H46443134   3.160   4.361   7.340 -0.2145 -0.0495 -1.2564
   86MOL   H46543135   3.191   4.520   7.427 -0.0598  0.1081 -0.1134
   86MOL   H46643136   3.088   4.644   7.261  0.1677 -0.1931 -0.7011
   86MOL   H46743137   3.014   4.500   7.188  0.2358 -0.2869 -0.5023
   86MOL   H46843138   3.310   4.500   7.209  0.2456 -1.3406  0.9253
   86MOL   H46943139   3.193   4.411   7.101 -0.7623  1.1447 -0.5688
   86MOL   H47043140   3.326   4.559   6.969 -0.0114  0.6560 -0.4564
   86MOL   H47143141   3.155   4.575   6.947 -1.3993 -2.0334  2.0566
   86MOL   H47243142   3.158   4.794   7.100  1.3833  0.6432  0.1454
   86MOL   H47343143   3.311   4.756   7.142 -0.1035 -0.7320 -0.3413
   86MOL   H47443144   3.302   4.932   6.957  1.2655 -0.7440  0.9249
   86MOL   H47543145   3.370   4.784   6.885 -1.1132 -0.3100 -0.4521
   86MOL   H47643146   3.196   4.831   6.868  1.0401 -0.9505 -2.6907
   86MOL   C47743147   2.930   4.259   7.522  0.7543 -0.1699  0.5252
   86MOL   C47843148   2.933   4.159   7.632  1.0870 -0.2217 -0.5519
   86MOL   O47943149   2.893   4.030   7.593 -0.0418 -0.1630  0.4844
   86MOL   C48043150   2.939   3.925   7.679 -0.0686  0.1478  0.1465
   86MOL   C48143151   3.068   3.871   7.631 -0.4058 -0.2540 -0.0930
   86MOL   C48243152   3.095   3.734   7.693 -0.0487  0.4963  0.2684
   86MOL   C48343153   3.135   3.734   0.064 -0.2609  0.0004 -0.4009
   86MOL   C48443154   3.216   3.614   0.102 -0.4011  0.2159 -0.0702
   86MOL   C48543155   3.229   3.592   0.252  0.5093  0.3705 -0.3685
   86MOL   H48643156   2.834   4.266   7.472  0.8358  0.4761  0.4498
   86MOL   H48743157   3.003   4.217   7.453  3.8126  0.0808  3.4401
   86MOL   H48843158   3.027   4.158   7.686 -0.1655 -1.1058  1.6859
   86MOL   H48943159   2.862   3.848   7.679  2.0516 -2.1050 -2.8582
   86MOL   H49043160   2.945   3.949   0.007  1.8968  1.1057 -0.1630
   86MOL   H49143161   3.153   3.929   7.667 -1.3949  2.5770 -2.1740
   86MOL   H49243162   3.074   3.857   7.523 -1.6622 -1.7689  0.0165
   86MOL   H49343163   3.005   3.675   7.680  1.4479 -2.4968  2.8632
   86MOL   H49443164   3.167   3.676   7.634 -0.9449 -1.9517  1.5534
   86MOL   H49543165   3.184   3.830   0.079 -1.4693  0.5243  0.2694
   86MOL   H49643166   3.045   3.741   0.125  0.1640 -0.3426  0.2652
   86MOL   H49743167   3.156   3.527   0.074  0.0004 -0.2417  0.4705
   86MOL   H49843168   3.306   3.614   0.041 -1.1712  0.3097 -1.2199
   86MOL   H49943169   3.275   3.500   0.287  2.0762  1.2852  0.0616
   86MOL   H50043170   3.272   3.681   0.299 -2.7836  0.5945  2.3906
   86MOL   H50143171   3.128   3.579   0.290  0.3800 -2.8706 -1.6427
   86MOL   H50243172   2.866   4.202   7.706  0.6152  3.0792 -2.7861
   87MOL     C143173   4.065   6.553   2.316 -0.1246 -0.0739  0.3385
   87MOL     C243174   4.117   6.629   2.440  0.1115  0.2244  0.6627
   87MOL     O343175   4.256   6.585   2.475  0.8258 -0.6055 -0.2257
   87MOL     C443176   4.360   6.616   2.389 -0.0209  0.3336  0.1499
   87MOL     C543177   4.495   6.590   2.460  0.2664  0.7791  0.3657
   87MOL     C643178   4.526   6.673   2.585  0.6932 -0.3180  0.2953
   87MOL     C743179   4.669   6.650   2.638 -0.0087  0.8658 -0.0662
   87MOL     C843180   4.705   6.717   2.773  0.7150 -0.9762 -0.5289
   87MOL     C943181   4.648   6.862   2.791  0.3412  0.0463  0.7223
   87MOL    H1043182   3.968   6.585   2.277  0.5899  1.0869 -0.5358
   87MOL    H1143183   4.127   6.555   2.226 -1.3607 -1.6988 -0.5626
   87MOL    H1243184   4.126   6.736   2.425 -1.1147  0.3717  0.9183
   87MOL    H1343185   4.364   6.721   2.359 -0.1829  0.3847  0.3060
   87MOL    H1443186   4.361   6.555   2.300  2.2620 -2.0189  1.7142
   87MOL    H1543187   4.573   6.617   2.390 -0.1628  1.7323  0.2563
   87MOL    H1643188   4.501   6.483   2.480  0.1821  0.7817  0.4076
   87MOL    H1743189   4.514   6.779   2.563 -0.4572 -0.3910  0.5313
   87MOL    H1843190   4.454   6.652   2.664  0.1379  0.7892  0.0951
   87MOL    H1943191   4.677   6.542   2.642 -2.6072  0.5900 -1.1684
   87MOL    H2043192   4.728   6.681   2.552 -1.0870  1.8119 -0.4770
   87MOL    H2143193   4.813   6.726   2.761  0.6280  1.4231  0.2142
   87MOL    H2243194   4.679   6.652   2.856  0.8587 -0.4820 -0.0932
   87MOL    H2343195   4.541   6.847   2.805  0.1536  1.6602  1.0195
   87MOL    H2443196   4.694   6.912   2.876  1.4137 -1.2189  0.9021
   87MOL    H2543197   4.659   6.927   2.704 -1.6130  2.9130  2.5297
   87MOL    H2643198   4.053   6.447   2.335  0.2042 -0.2244 -0.2926
   87MOL    C2743199   4.021   6.612   2.558  0.0124  0.3418  0.1620
   87MOL    C2843200   4.051   6.684   2.682 -0.4672  0.1092 -0.3738
   87MOL    O2943201   4.030   6.831   2.657  0.3751  0.0286  0.1275
   87MOL    C3043202   4.120   6.910   2.728  0.2797  0.2188 -0.4525
   87MOL    C3143203   4.232   6.951   2.636 -0.2164 -0.6273  0.4512
   87MOL    C3243204   4.180   7.071   2.543  0.5068 -0.5240 -0.6678
   87MOL    C3343205   4.283   7.124   2.436 -0.0561  0.3552 -0.3457
   87MOL    C3443206   4.324   7.045   2.313  0.5125 -0.5497  0.4565
   87MOL    C3543207   4.207   7.003   2.228  0.6527  0.0261 -0.1443
   87MOL    H3643208   3.920   6.648   2.538  0.2757  1.5160  0.9435
   87MOL    H3743209   4.021   6.506   2.585  1.2154  0.2445 -0.1794
   87MOL    H3843210   4.155   6.663   2.704  0.3463  1.0293 -3.1276
   87MOL    H3943211   4.157   6.853   2.813 -0.2383 -0.0614 -0.4121
   87MOL    H4043212   4.064   6.998   2.761  1.4152  1.6931 -2.3259
   87MOL    H4143213   4.263   6.866   2.575 -1.9978 -1.4983  0.7437
   87MOL    H4243214   4.322   6.983   2.688  0.2730 -2.3825  0.7181
   87MOL    H4343215   4.092   7.039   2.487  0.3236 -1.1394 -0.0412
   87MOL    H4443216   4.156   7.147   2.617  1.5736 -3.0001  2.3576
   87MOL    H4543217   4.243   7.221   2.405 -0.8933  0.6343  1.5356
   87MOL    H4643218   4.375   7.164   2.478 -0.1714  2.4250 -2.0090
   87MOL    H4743219   4.389   7.096   2.242 -0.3587 -0.2304 -0.1255
   87MOL    H4843220   4.388   6.968   2.356  0.3380 -1.1275 -0.3127
   87MOL    H4943221   4.137   6.936   2.279  0.4922  0.0713 -0.3054
   87MOL    H5043222   4.152   7.090   2.192 -0.4519 -1.0555 -1.1271
   87MOL    H5143223   4.232   6.938   2.144 -1.9964 -0.8382 -0.3045
   87MOL    C5243224   3.970   6.631   2.803 -0.1937  0.2339 -0.4212
   87MOL    C5343225   4.016   6.494   2.857  1.0569  0.5663  0.2835
   87MOL    O5443226   4.128   6.517   2.937 -0.1439 -0.6221  0.9746
   87MOL    C5543227   4.234   6.435   2.894 -0.2290  0.6200  0.4148
   87MOL    C5643228   4.364   6.493   2.944  0.9879 -0.1410  0.5383
   87MOL    C5743229   4.361   6.500   3.097 -0.1048  0.9542 -0.6049
   87MOL    C5843230   4.487   6.569   3.156 -0.5274 -0.0364  0.4106
   87MOL    C5943231   4.498   6.529   3.306  1.1514 -0.6207  0.2062
   87MOL    C6043232   4.622   6.578   3.384 -0.8507  0.4885 -0.5993
   87MOL    H6143233   3.868   6.630   2.766 -0.1015 -1.5456 -0.6719
   87MOL    H6243234   3.965   6.698   2.888  1.8665  0.8858 -0.7672
   87MOL    H6343235   4.024   6.419   2.778 -0.7081 -0.1487  0.7711
   87MOL    H6443236   4.241   6.436   2.785  0.3752  0.6586  0.4537
   87MOL    H6543237   4.227   6.331   2.926 -1.5156  0.6981  0.4120
   87MOL    H6643238   4.365   6.594   2.904  0.5018  0.3946  1.8538
   87MOL    H6743239   4.452   6.444   2.902 -0.2811 -0.9473 -1.2837
   87MOL    H6843240   4.287   6.571   3.134 -0.8906  0.6026 -1.4777
   87MOL    H6943241   4.349   6.398   3.134 -0.0611  1.3395  0.4929
   87MOL    H7043242   4.571   6.514   3.113 -0.2136  0.5367  0.2846
   87MOL    H7143243   4.488   6.674   3.130 -2.9424  0.0188  0.4297
   87MOL    H7243244   4.404   6.562   3.350  1.1180  0.5280 -0.6925
   87MOL    H7343245   4.500   6.422   3.328  0.9666 -0.3023  1.8596
   87MOL    H7443246   4.611   6.572   3.492 -0.5327  1.1341 -0.5318
   87MOL    H7543247   4.715   6.525   3.363 -0.8636 -0.0845  0.7560
   87MOL    H7643248   4.637   6.684   3.360 -1.4813  0.4344 -1.2690
   87MOL    C7743249   3.912   6.418   2.954  0.3496  0.6357 -0.0802
   87MOL    C7843250   3.792   6.336   2.894 -0.9271 -0.1512  0.2981
   87MOL    O7943251   3.701   6.357   2.998 -0.1473 -0.3262 -0.0176
   87MOL    C8043252   3.561   6.351   2.947 -0.3579  0.6638  0.5667
   87MOL    C8143253   3.482   6.448   3.035 -0.6538  0.2441 -0.3612
   87MOL    C8243254   3.500   6.595   3.000  0.0042  0.1530  0.3009
   87MOL    C8343255   3.417   6.690   3.088  0.0294 -0.4492 -0.5163
   87MOL    C8443256   3.475   6.713   3.230 -0.5515 -0.4917  0.1410
   87MOL    C8543257   3.396   6.809   3.309  0.2520 -0.2105 -0.1851
   87MOL    H8643258   3.875   6.491   3.026 -2.1688 -1.0814  0.4101
   87MOL    H8743259   3.972   6.356   3.020  1.6085  0.5595 -1.2731
   87MOL    H8843260   3.748   6.382   2.806 -0.9316 -2.2348 -0.8264
   87MOL    H8943261   3.538   6.246   2.966  1.7777  0.3170  1.3781
   87MOL    H9043262   3.559   6.369   2.840  1.3712  1.1871  0.6024
   87MOL    H9143263   3.512   6.435   3.139  3.6673  1.7888 -1.3167
   87MOL    H9243264   3.377   6.420   3.040 -0.3673 -1.1809 -2.0914
   87MOL    H9343265   3.604   6.627   2.995  0.2210 -0.2284  2.1993
   87MOL    H9443266   3.453   6.605   2.902  2.2316  0.6139 -0.7537
   87MOL    H9543267   3.399   6.788   3.043  1.6379 -0.7577 -1.8942
   87MOL    H9643268   3.317   6.648   3.101  0.5225 -0.8028  2.7645
   87MOL    H9743269   3.492   6.620   3.285 -1.3798 -0.1355  1.0121
   87MOL    H9843270   3.576   6.747   3.204 -0.8248  0.0469 -0.2227
   87MOL    H9943271   3.376   6.892   3.242 -0.5150 -0.2675 -0.0298
   87MOL   H10043272   3.296   6.773   3.331  0.1177 -0.7760 -1.6700
   87MOL   H10143273   3.449   6.853   3.394  1.1064 -2.5649  0.5483
   87MOL   C10243274   3.813   6.186   2.885  0.4938  0.4848 -0.0695
   87MOL   C10343275   3.913   6.130   2.784 -0.3194 -0.9894  0.0804
   87MOL   O10443276   3.925   5.989   2.794 -0.2499 -0.0667 -0.1910
   87MOL   C10543277   3.996   5.940   2.910 -0.1156 -0.8035 -0.5860
   87MOL   C10643278   4.083   5.825   2.872 -0.1302  0.2338  0.2772
   87MOL   C10743279   4.213   5.863   2.794  0.3523 -0.2462 -0.1072
   87MOL   C10843280   4.297   5.733   2.758 -0.0168 -0.4476 -0.0647
   87MOL   C10943281   4.410   5.758   2.659 -0.5177  0.3218 -0.0807
   87MOL   C11043282   4.495   5.629   2.630  0.1308 -0.1953  0.6996
   87MOL   H11143283   3.839   6.143   2.981  1.7643 -0.5259 -0.8599
   87MOL   H11243284   3.717   6.137   2.865  0.8281  0.3014 -1.3008
   87MOL   H11343285   4.009   6.174   2.810 -0.3265 -1.3800  0.7688
   87MOL   H11443286   3.912   5.901   2.966  0.7618 -1.0854  0.5604
   87MOL   H11543287   4.042   6.027   2.958  0.9406  0.1171 -3.1393
   87MOL   H11643288   4.021   5.773   2.799 -1.4963  1.1843  0.7638
   87MOL   H11743289   4.096   5.770   2.965 -0.1300  1.3911  0.9589
   87MOL   H11843290   4.189   5.924   2.707 -1.1641 -1.4190 -0.5405
   87MOL   H11943291   4.278   5.923   2.858  0.0458  0.2665 -0.2728
   87MOL   H12043292   4.335   5.697   2.854  0.9753  0.5734 -0.0644
   87MOL   H12143293   4.230   5.659   2.714  0.2702 -2.3013  2.5060
   87MOL   H12243294   4.373   5.803   2.568 -2.2791  0.0844  0.4975
   87MOL   H12343295   4.479   5.824   2.712 -1.5979 -0.0238  1.8089
   87MOL   H12443296   4.520   5.591   2.729  0.2363  1.5133  1.3493
   87MOL   H12543297   4.437   5.554   2.577  0.6287 -0.4042  0.4500
   87MOL   H12643298   4.593   5.638   2.583  0.2433  0.6382  1.0781
   87MOL   C12743299   3.864   6.161   2.642  0.3834 -0.0634 -0.3061
   87MOL   C12843300   3.947   6.095   2.528 -0.6783 -0.0583  0.4576
   87MOL   O12943301   4.074   6.169   2.536 -0.1699 -0.2937 -0.3608
   87MOL   C13043302   4.182   6.127   2.455 -0.3684  0.4753 -0.2662
   87MOL   C13143303   4.316   6.194   2.487 -0.0452  0.0535 -0.3608
   87MOL   C13243304   4.366   6.156   2.629  0.3259  0.1148 -0.6797
   87MOL   C13343305   4.500   6.213   2.664 -0.3717  0.3517  0.2290
   87MOL   C13443306   4.560   6.149   2.793 -0.0428  0.1073 -1.2594
   87MOL   C13543307   4.690   6.213   2.832 -0.4362  0.4224 -0.1558
   87MOL   H13643308   3.760   6.131   2.649  0.1123  1.1935  1.4301
   87MOL   H13743309   3.849   6.269   2.637 -1.0568 -0.3001 -1.3817
   87MOL   H13843310   3.972   5.990   2.540 -0.1365  0.0178  0.0221
   87MOL   H13943311   4.166   6.150   2.349 -0.8263  2.3258  0.1708
   87MOL   H14043312   4.183   6.019   2.458 -0.4653  0.4979  0.4816
   87MOL   H14143313   4.305   6.302   2.484 -1.5569 -0.0380  1.0348
   87MOL   H14243314   4.389   6.162   2.413 -1.3446  0.4458 -1.8389
   87MOL   H14343315   4.289   6.194   2.696  1.0694  2.2644 -0.9938
   87MOL   H14443316   4.369   6.050   2.651  0.0406  0.3070  0.3148
   87MOL   H14543317   4.563   6.178   2.582 -0.2775 -0.1368  0.5080
   87MOL   H14643318   4.500   6.322   2.665  0.7177  0.3784 -1.2434
   87MOL   H14743319   4.485   6.164   2.870  1.6287  1.8648  0.0971
   87MOL   H14843320   4.583   6.043   2.790  0.7803  0.1294  2.3974
   87MOL   H14943321   4.723   6.166   2.924  0.9519  1.5870 -0.0335
   87MOL   H15043322   4.764   6.191   2.755  1.0053 -1.5081  1.7289
   87MOL   H15143323   4.695   6.321   2.846  2.1600  0.3885 -0.3930
   87MOL   C15243324   3.871   6.126   2.392 -0.6835 -0.2741 -0.1866
   87MOL   C15343325   3.788   6.011   2.331 -0.2553  0.8008 -0.3861
   87MOL   O15443326   3.675   5.997   2.415  0.4701  0.5778  0.0207
   87MOL   C15543327   3.610   5.868   2.401 -0.2244 -0.5463 -0.8405
   87MOL   C15643328   3.498   5.849   2.508  0.0497  0.3614 -0.3198
   87MOL   C15743329   3.540   5.828   2.656  0.1900 -0.0173  0.6038
   87MOL   C15843330   3.599   5.685   2.684 -0.2546  0.2792 -0.7727
   87MOL   C15943331   3.657   5.684   2.826 -0.2825  0.3215 -0.0214
   87MOL   C16043332   3.711   5.548   2.863 -0.5600  0.1777  0.1183
   87MOL   H16143333   3.813   6.216   2.414 -3.3250 -2.3017  1.4387
   87MOL   H16243334   3.943   6.152   2.314 -0.1016  2.5375  1.2109
   87MOL   H16343335   3.851   5.922   2.329 -0.5248  0.5701  1.1325
   87MOL   H16443336   3.683   5.789   2.415  0.0388 -0.0900  0.4414
   87MOL   H16543337   3.565   5.851   2.303 -2.9499 -0.6754  0.3947
   87MOL   H16643338   3.440   5.762   2.478  3.3502 -1.7725 -0.8303
   87MOL   H16743339   3.436   5.938   2.498  2.0684  1.8010 -0.3252
   87MOL   H16843340   3.605   5.908   2.689  1.1522 -0.5961  0.1265
   87MOL   H16943341   3.455   5.846   2.722 -1.3000 -1.1010 -0.9795
   87MOL   H17043342   3.528   5.602   2.673  0.8732 -0.6776 -0.9510
   87MOL   H17143343   3.678   5.676   2.609 -1.1711 -1.4020 -1.5728
   87MOL   H17243344   3.734   5.756   2.853  0.4978 -0.2773 -0.6345
   87MOL   H17343345   3.577   5.693   2.899 -0.8681 -4.2700  0.0566
   87MOL   H17443346   3.636   5.472   2.839  0.1633 -0.8908  1.1340
   87MOL   H17543347   3.807   5.524   2.818 -0.4117  0.9481  0.0313
   87MOL   H17643348   3.714   5.526   2.970  1.9542 -1.0197 -0.1655
   87MOL   C17743349   3.745   6.034   2.185  0.5885  0.0870  0.3150
   87MOL   C17843350   3.623   6.120   2.157  0.2469  0.0101 -0.4137
   87MOL   O17943351   3.662   6.261   2.155 -0.5313 -0.4114 -0.6975
   87MOL   C18043352   3.602   6.324   2.263  0.4140  0.2580  0.9239
   87MOL   C18143353   3.656   6.462   2.278  0.6361  0.3706  0.1327
   87MOL   C18243354   3.614   6.533   2.400  0.3361  0.5549 -0.2322
   87MOL   C18343355   3.648   6.688   2.397 -0.2385  0.5848  0.4013
   87MOL   C18443356   3.608   6.773   2.511 -0.1147 -0.2130 -0.1047
   87MOL   C18543357   3.458   6.800   2.510 -0.0623 -1.0147 -0.3347
   87MOL   H18643358   3.833   6.053   2.123  3.1903 -1.6263  3.3162
   87MOL   H18743359   3.727   5.930   2.154 -0.4368  0.8061 -1.5812
   87MOL   H18843360   3.546   6.089   2.227  1.2070  0.9288  1.0614
   87MOL   H18943361   3.621   6.262   2.350 -2.9302 -2.0780  0.0798
   87MOL   H19043362   3.494   6.337   2.252  0.2168 -1.9631  0.0114
   87MOL   H19143363   3.623   6.521   2.192  0.4860  0.4675  0.2563
   87MOL   H19243364   3.764   6.470   2.279  0.6886 -0.3897  0.4104
   87MOL   H19343365   3.507   6.516   2.412  0.7155 -2.5756 -0.8159
   87MOL   H19443366   3.669   6.481   2.478  1.3864  1.2100 -0.5322
   87MOL   H19543367   3.756   6.702   2.384 -0.4228  1.5807 -0.0723
   87MOL   H19643368   3.605   6.729   2.306 -1.3742  2.8878  1.9234
   87MOL   H19743369   3.643   6.733   2.606 -0.3301  0.2337  0.1611
   87MOL   H19843370   3.665   6.865   2.507  0.9744 -0.9762 -3.6269
   87MOL   H19943371   3.411   6.805   2.412  0.4338  1.3140 -0.4700
   87MOL   H20043372   3.413   6.711   2.554  0.3049 -1.6422 -1.2309
   87MOL   H20143373   3.423   6.891   2.559 -0.3066 -1.0655 -0.4144
   87MOL   C20243374   3.573   6.083   2.012 -0.7597 -0.6989 -0.3937
   87MOL   C20343375   3.435   6.142   1.960 -0.3245  0.3951  0.1528
   87MOL   O20443376   3.333   6.084   2.032  0.2208  0.5000  0.0566
   87MOL   C20543377   3.215   6.156   2.052 -0.0210 -0.5763  0.1177
   87MOL   C20643378   3.106   6.059   2.107 -0.2715 -0.3604  0.2404
   87MOL   C20743379   2.958   6.122   2.111 -0.0333 -0.1756  0.0964
   87MOL   C20843380   2.913   6.182   1.981 -0.3629 -0.3336  0.8942
   87MOL   C20943381   2.905   6.074   1.865  0.2390 -0.3367  0.7256
   87MOL   C21043382   2.890   6.145   1.722 -0.1298  0.2712  0.3742
   87MOL   H21143383   3.654   6.115   1.947 -0.3543  0.5600  0.7048
   87MOL   H21243384   3.557   5.976   2.001 -0.5411 -0.6275 -1.4899
   87MOL   H21343385   3.434   6.250   1.976  0.1100  0.7124 -1.7582
   87MOL   H21443386   3.186   6.195   1.955  0.7849 -0.6578 -0.1608
   87MOL   H21543387   3.238   6.248   2.106 -2.1164  0.7455 -1.1659
   87MOL   H21643388   3.140   6.039   2.209  2.7584 -0.9102 -0.8237
   87MOL   H21743389   3.113   5.961   2.060 -1.3315  0.0541 -0.8023
   87MOL   H21843390   2.888   6.045   2.144  0.3014 -0.3141  0.4845
   87MOL   H21943391   2.953   6.196   2.191  0.1587  1.0410 -0.9923
   87MOL   H22043392   2.816   6.231   1.996 -0.8521 -1.2889  0.8575
   87MOL   H22143393   2.981   6.259   1.944 -1.5486  0.8800  1.1570
   87MOL   H22243394   2.997   6.016   1.862 -0.8643 -2.0566 -1.3048
   87MOL   H22343395   2.822   6.004   1.878 -0.3146 -0.2983 -2.2403
   87MOL   H22443396   2.984   6.189   1.690 -0.5446  0.4775 -0.5747
   87MOL   H22543397   2.854   6.065   1.658  0.6385 -0.1407  0.4544
   87MOL   H22643398   2.813   6.223   1.722 -0.7132 -0.2824 -1.9678
   87MOL   C22743399   3.423   6.117   1.805  0.2236  0.0966 -0.1163
   87MOL   C22843400   3.475   6.220   1.707  0.6011  0.1291  0.2616
   87MOL   O22943401   3.612   6.231   1.728  0.6938 -0.1993 -0.1202
   87MOL   C23043402   3.658   6.361   1.708 -0.2111  0.4304  0.2984
   87MOL   C23143403   3.813   6.374   1.720  0.3967 -0.5043  0.4932
   87MOL   C23243404   3.858   6.329   1.866  0.0244  0.2915 -0.3848
   87MOL   C23343405   4.009   6.335   1.895  0.3231 -0.3262 -0.4221
   87MOL   C23443406   4.036   6.275   2.032  0.8562  0.0569 -0.0451
   87MOL   C23543407   4.183   6.257   2.048 -0.3271 -0.5003 -0.0817
   87MOL   H23643408   3.467   6.020   1.781 -0.0741 -0.1536  0.3592
   87MOL   H23743409   3.317   6.110   1.780 -0.5377  1.5114  2.5104
   87MOL   H23843410   3.421   6.310   1.736 -2.4976 -1.9260  1.1295
   87MOL   H23943411   3.618   6.439   1.772  0.1688  1.8655 -1.1644
   87MOL   H24043412   3.634   6.400   1.609 -3.4132  0.4288  1.0113
   87MOL   H24143413   3.840   6.477   1.696 -1.2660 -0.8564 -3.1794
   87MOL   H24243414   3.863   6.309   1.649 -0.3931  0.1510 -0.6712
   87MOL   H24343415   3.807   6.392   1.940  1.3458  2.9291 -1.6527
   87MOL   H24443416   3.824   6.226   1.878 -0.5914  0.7125  1.7421
   87MOL   H24543417   4.064   6.298   1.809 -0.0537 -0.5176 -0.5824
   87MOL   H24643418   4.032   6.441   1.908 -0.9357 -0.3459  2.5483
   87MOL   H24743419   4.006   6.346   2.109 -1.3651 -0.3602 -0.4630
   87MOL   H24843420   3.977   6.185   2.051  1.0903 -0.2050 -0.5659
   87MOL   H24943421   4.232   6.185   1.982  2.6672  2.0309 -0.7627
   87MOL   H25043422   4.245   6.343   2.024 -0.2670 -1.0633 -2.0014
   87MOL   H25143423   4.205   6.228   2.151  1.6105  0.1633 -0.2819
   87MOL   C25243424   3.463   6.177   1.562 -0.5661  0.1370  0.0638
   87MOL   C25343425   3.326   6.204   1.501 -0.0016 -0.6134  0.4412
   87MOL   O25443426   3.313   6.106   1.396  0.5030  0.0830 -0.7478
   87MOL   C25543427   3.177   6.084   1.355  0.5988  0.4846 -0.0230
   87MOL   C25643428   3.187   5.951   1.279 -0.1245  0.4467  0.2829
   87MOL   C25743429   3.259   5.830   1.346 -0.1554  0.1450 -0.2976
   87MOL   C25843430   3.192   5.786   1.473  0.0819 -0.0992  0.5073
   87MOL   C25943431   3.248   5.853   1.602 -0.0250 -0.3939 -0.1353
   87MOL   C26043432   3.171   5.806   1.722  0.1223  0.6123 -0.3492
   87MOL   H26143433   3.526   6.224   1.487 -1.3458 -0.1105 -0.7643
   87MOL   H26243434   3.476   6.069   1.559 -0.5086  0.1429  0.1151
   87MOL   H26343435   3.250   6.178   1.575  0.2587 -0.6501  0.6955
   87MOL   H26443436   3.139   6.151   1.279 -0.5588 -0.5640 -0.3923
   87MOL   H26543437   3.111   6.068   1.441  1.0456 -1.5567 -0.0161
   87MOL   H26643438   3.228   5.973   1.180 -0.0419 -1.4585 -0.1288
   87MOL   H26743439   3.081   5.925   1.270 -0.1980  1.3698 -1.7667
   87MOL   H26843440   3.269   5.754   1.268 -2.4970  0.1689 -0.6578
   87MOL   H26943441   3.359   5.862   1.373 -0.4908  0.8269  0.1464
   87MOL   H27043442   3.084   5.796   1.466  0.0547 -1.5103 -1.2909
   87MOL   H27143443   3.221   5.681   1.480  0.0194 -0.0239  2.0940
   87MOL   H27243444   3.356   5.849   1.607  0.0298  0.2071 -0.8406
   87MOL   H27343445   3.237   5.961   1.593 -1.7309 -0.4664  0.6843
   87MOL   H27443446   3.207   5.868   1.804 -0.3041  0.7613 -0.2735
   87MOL   H27543447   3.067   5.838   1.718 -0.3045 -0.6323  0.3870
   87MOL   H27643448   3.179   5.703   1.758 -0.4862  0.5276 -0.4398
   87MOL   C27743449   3.308   6.342   1.430 -0.1044  0.9103 -0.1649
   87MOL   C27843450   3.282   6.463   1.532 -0.6446 -0.4576  0.7971
   87MOL   O27943451   3.271   6.586   1.452  0.3855  0.2010  0.2387
   87MOL   C28043452   3.392   6.636   1.403  0.6513  0.1861 -0.0598
   87MOL   C28143453   3.367   6.788   1.374 -0.4149  0.0037  0.0897
   87MOL   C28243454   3.386   6.869   1.502  0.2420  0.5447  0.4616
   87MOL   C28343455   3.539   6.904   1.528 -0.0787 -0.1552 -0.6501
   87MOL   C28443456   3.558   7.000   1.646  0.6776 -0.2712 -0.0360
   87MOL   C28543457   3.710   7.030   1.678  0.3213 -0.1412 -0.4767
   87MOL   H28643458   3.400   6.359   1.374  0.1886  1.6945  0.5370
   87MOL   H28743459   3.218   6.342   1.369 -0.6028  0.0563  0.5734
   87MOL   H28843460   3.369   6.476   1.597 -0.8051 -1.3437  1.1877
   87MOL   H28943461   3.423   6.583   1.313 -0.2943 -0.2366 -0.1333
   87MOL   H29043462   3.476   6.634   1.473  1.3029  2.7835 -0.7055
   87MOL   H29143463   3.267   6.792   1.329 -0.3253 -4.6215 -0.7487
   87MOL   H29243464   3.435   6.820   1.295 -0.4298 -2.0415 -0.8066
   87MOL   H29343465   3.326   6.959   1.485 -1.6615 -0.9072 -0.7963
   87MOL   H29443466   3.322   6.821   1.576 -2.1501  0.7243 -1.4161
   87MOL   H29543467   3.596   6.813   1.543  0.8587  0.8733  2.2013
   87MOL   H29643468   3.581   6.952   1.440 -0.8397  2.1441  0.2078
   87MOL   H29743469   3.494   7.086   1.628 -0.5297 -0.8095  1.6172
   87MOL   H29843470   3.508   6.971   1.739 -0.4764  0.1212 -0.5244
   87MOL   H29943471   3.773   6.943   1.696  0.2733  0.0259  0.5133
   87MOL   H30043472   3.755   7.080   1.592 -0.2878  0.3791 -0.4924
   87MOL   H30143473   3.717   7.092   1.767  0.4087  0.3677 -0.8339
   87MOL   C30243474   3.158   6.448   1.623  0.2029  0.2732 -0.1857
   87MOL   C30343475   3.157   6.557   1.730  0.3389  0.1230 -0.3144
   87MOL   O30443476   3.271   6.550   1.807 -0.4298  0.3011 -0.4242
   87MOL   C30543477   3.346   6.671   1.810 -0.4567 -0.5751 -0.1874
   87MOL   C30643478   3.446   6.654   1.926 -0.2771 -0.5500  0.5695
   87MOL   C30743479   3.366   6.688   2.066  0.4036  0.0541  0.2782
   87MOL   C30843480   3.312   6.554   2.126  0.5629  0.0721  0.3698
   87MOL   C30943481   3.235   6.560   2.253 -0.1494 -0.3416  0.1321
   87MOL   C31043482   3.176   6.430   2.302  0.2340  0.1732  0.7261
   87MOL   H31143483   3.068   6.458   1.561  0.0294  1.1231  0.1918
   87MOL   H31243484   3.134   6.349   1.661  0.4135  0.4992  0.5392
   87MOL   H31343485   3.138   6.651   1.678 -0.5733  0.2276  0.1862
   87MOL   H31443486   3.285   6.761   1.817 -1.3391 -1.1274 -0.7722
   87MOL   H31543487   3.396   6.679   1.713  2.3744  3.2459  1.4310
   87MOL   H31643488   3.531   6.722   1.928 -0.2209 -0.6252  0.8835
   87MOL   H31743489   3.483   6.552   1.916  1.4943  0.2274 -1.0595
   87MOL   H31843490   3.442   6.723   2.135 -0.7273  0.6241  1.2667
   87MOL   H31943491   3.289   6.766   2.065 -0.0983 -0.4460  0.0191
   87MOL   H32043492   3.245   6.504   2.056  2.5418 -1.4304 -0.5006
   87MOL   H32143493   3.393   6.481   2.134  1.5935  1.0907 -0.5229
   87MOL   H32243494   3.292   6.604   2.335 -0.7657  1.2436 -0.2783
   87MOL   H32343495   3.166   6.641   2.230  1.4602  1.1642  0.5141
   87MOL   H32443496   3.244   6.351   2.333  0.2155 -0.6801 -1.3155
   87MOL   H32543497   3.121   6.449   2.393  1.2368  0.5504  1.2602
   87MOL   H32643498   3.107   6.393   2.226 -1.5802 -0.3755  2.6272
   87MOL   C32743499   3.033   6.546   1.826  0.8686  0.8633 -0.2376
   87MOL   C32843500   2.986   6.667   1.912 -0.0159  0.0841  0.0626
   87MOL   O32943501   2.914   6.752   1.820  0.0106 -0.6489 -0.2103
   87MOL   C33043502   2.960   6.883   1.806 -0.0431 -0.1362 -0.0579
   87MOL   C33143503   2.924   6.932   1.673 -1.2135 -0.1349 -0.0531
   87MOL   C33243504   2.997   7.054   1.623 -0.3709 -0.1318  0.1176
   87MOL   C33343505   2.947   7.110   1.492 -0.4504 -0.8859  0.0371
   87MOL   C33443506   2.973   7.015   1.378 -0.2194 -0.0059 -0.2241
   87MOL   C33543507   2.948   7.077   1.240 -0.2243  0.1918 -0.1509
   87MOL   H33643508   3.060   6.470   1.899  1.1146 -0.5564 -1.7764
   87MOL   H33743509   2.946   6.524   1.764  0.5417 -0.6413  0.7218
   87MOL   H33843510   3.069   6.722   1.957  0.1568 -1.3310  1.5004
   87MOL   H33943511   3.069   6.877   1.802  0.1144  2.7100 -2.0135
   87MOL   H34043512   2.929   6.954   1.883 -0.9229 -0.2813 -0.2768
   87MOL   H34143513   2.819   6.956   1.655 -0.7104  0.8065 -1.8902
   87MOL   H34243514   2.950   6.861   1.594 -2.5746  0.9158 -1.4787
   87MOL   H34343515   2.992   7.133   1.697  0.3499  2.4252 -2.4987
   87MOL   H34443516   3.102   7.035   1.600  0.4027  2.2103  1.5561
   87MOL   H34543517   2.841   7.134   1.496 -0.8030 -2.2959 -0.3683
   87MOL   H34643518   3.005   7.199   1.471 -2.2109  0.5010  0.9243
   87MOL   H34743519   3.078   6.988   1.372 -0.5257 -1.7746  1.6451
   87MOL   H34843520   2.925   6.918   1.394  0.6817 -0.2264  1.2223
   87MOL   H34943521   2.998   7.017   1.164  1.8111 -0.3061  1.5537
   87MOL   H35043522   2.841   7.080   1.219  0.5363 -1.5475 -4.8927
   87MOL   H35143523   2.984   7.179   1.247 -0.6057  0.4089 -1.2540
   87MOL   C35243524   2.898   6.625   2.029  0.8629 -0.0566 -0.1262
   87MOL   C35343525   2.842   6.740   2.114 -0.0301  0.0199 -0.0066
   87MOL   O35443526   2.950   6.802   2.192  0.2989  0.2555 -0.6157
   87MOL   C35543527   2.956   6.946   2.196 -0.0345  0.3812 -0.0874
   87MOL   C35643528   2.853   7.011   2.293 -0.8206 -0.2056 -0.1283
   87MOL   C35743529   2.847   7.160   2.287 -0.1988 -0.2622 -0.6981
   87MOL   C35843530   2.788   7.222   2.410 -0.3474  0.5827  0.4010
   87MOL   C35943531   2.635   7.244   2.414  1.1171 -0.0815 -0.2142
   87MOL   C36043532   2.592   7.366   2.330  0.1417  0.1454 -0.1745
   87MOL   H36143533   2.827   6.550   1.997  0.9346  0.8773 -2.5465
   87MOL   H36243534   2.962   6.568   2.097  1.3018  1.0645  0.4229
   87MOL   H36343535   2.784   6.807   2.051 -0.5876 -0.1337  0.3381
   87MOL   H36443536   2.948   6.981   2.093  0.9606 -0.6803 -0.5416
   87MOL   H36543537   3.058   6.967   2.228 -0.1990 -0.3119  0.9083
   87MOL   H36643538   2.871   6.980   2.396 -0.7898 -0.6379 -0.2638
   87MOL   H36743539   2.752   6.976   2.271 -0.9184 -0.3496  0.5448
   87MOL   H36843540   2.952   7.190   2.280 -0.3453  0.4857  0.2099
   87MOL   H36943541   2.792   7.186   2.197  2.1098  1.7545 -1.5657
   87MOL   H37043542   2.828   7.166   2.494 -0.8646 -1.7521 -0.8731
   87MOL   H37143543   2.841   7.318   2.412 -1.3848  1.1584  0.8393
   87MOL   H37243544   2.576   7.158   2.383 -0.9273  1.5293 -0.8369
   87MOL   H37343545   2.600   7.240   2.517 -1.4424 -2.0406 -1.1073
   87MOL   H37443546   2.619   7.463   2.373  3.0725 -1.0585  0.7872
   87MOL   H37543547   2.629   7.363   2.228  2.3249  3.9599  0.4189
   87MOL   H37643548   2.483   7.364   2.320  0.2702  0.7730 -1.7725
   87MOL   C37743549   2.748   6.689   2.220  0.1827 -0.0028 -0.9278
   87MOL   C37843550   2.602   6.675   2.172 -0.1776  0.4753  0.0441
   87MOL   O37943551   2.543   6.804   2.141  0.0438  0.2651  0.2037
   87MOL   C38043552   2.478   6.812   2.009  0.3418 -0.7283 -0.1694
   87MOL   C38143553   2.474   6.959   1.975  0.7065 -0.0048  0.2688
   87MOL   C38243554   2.618   7.002   1.933 -0.0037  0.6453 -0.0528
   87MOL   C38343555   2.614   7.143   1.867 -0.2047 -0.5636  0.0668
   87MOL   C38443556   2.746   7.217   1.867 -0.2261  0.4557  1.2535
   87MOL   C38543557   2.771   7.319   1.746 -0.4847  0.4126  0.1747
   87MOL   H38643558   2.788   6.592   2.249 -1.7869 -0.4908  0.2718
   87MOL   H38743559   2.749   6.750   2.310 -0.6027 -2.2143  0.6105
   87MOL   H38843560   2.604   6.622   2.077 -0.2812  1.8375 -0.7302
   87MOL   H38943561   2.379   6.769   2.022  1.5611 -3.4526  0.6317
   87MOL   H39043562   2.524   6.752   1.930  0.5319 -0.6071 -0.1527
   87MOL   H39143563   2.439   7.013   2.062 -1.0134  0.2177 -0.5453
   87MOL   H39243564   2.411   6.985   1.890  0.8372  2.8457  0.9887
   87MOL   H39343565   2.693   7.009   2.012  1.8739 -2.9006 -1.4041
   87MOL   H39443566   2.667   6.943   1.856  3.4385  3.0270  0.1884
   87MOL   H39543567   2.567   7.134   1.769  0.6756 -1.4616 -0.2910
   87MOL   H39643568   2.546   7.189   1.938 -0.7396  0.4972 -1.1110
   87MOL   H39743569   2.765   7.277   1.956  0.7399  0.4767  1.0454
   87MOL   H39843570   2.828   7.146   1.864 -1.1092 -0.5520  0.9232
   87MOL   H39943571   2.868   7.308   1.697 -1.9229  0.8711 -2.8721
   87MOL   H40043572   2.703   7.304   1.663 -1.5898  0.0428  1.1299
   87MOL   H40143573   2.765   7.419   1.791 -1.9671 -0.0316  1.0062
   87MOL   C40243574   2.510   6.609   2.271  0.4104  1.0607 -0.0895
   87MOL   C40343575   2.540   6.458   2.272 -0.3959  0.4422 -0.6933
   87MOL   O40443576   2.445   6.382   2.213 -0.1036 -0.9035  0.4039
   87MOL   C40543577   2.445   6.368   2.069 -0.0767  0.2118 -0.3688
   87MOL   C40643578   2.306   6.333   2.011  0.7684  0.0661 -0.3210
   87MOL   C40743579   2.194   6.434   2.034  0.7942  0.0391  0.0898
   87MOL   C40843580   2.076   6.395   1.947 -0.7240  1.0315  0.1387
   87MOL   C40943581   1.956   6.482   1.979  0.4975  0.1700 -0.4978
   87MOL   C41043582   1.851   6.486   1.867 -0.3937  0.1497 -0.1398
   87MOL   H41143583   2.406   6.626   2.244 -0.1259 -0.1676  1.1112
   87MOL   H41243584   2.522   6.649   2.372 -2.0898 -0.4755  0.8789
   87MOL   H41343585   2.635   6.432   2.224  0.3726  0.7691  0.6283
   87MOL   H41443586   2.524   6.299   2.038  1.2431  1.0962  0.9790
   87MOL   H41543587   2.475   6.463   2.026 -1.8417  1.3952  0.9384
   87MOL   H41643588   2.269   6.239   2.051 -1.2202  1.2051  0.5686
   87MOL   H41743589   2.318   6.313   1.904 -0.2741 -0.6276 -0.3186
   87MOL   H41843590   2.171   6.433   2.140  1.7002  1.2398  0.3173
   87MOL   H41943591   2.232   6.536   2.021  1.4649 -0.5337 -2.6985
   87MOL   H42043592   2.108   6.406   1.843 -0.7153 -0.5472 -0.0496
   87MOL   H42143593   2.045   6.290   1.950 -1.9098  1.3923  0.5238
   87MOL   H42243594   1.914   6.440   2.070  0.3057 -2.4103 -1.7528
   87MOL   H42343595   1.993   6.582   2.006 -2.3431  0.9604  0.6589
   87MOL   H42443596   1.779   6.566   1.884  0.7278  1.1768 -0.1830
   87MOL   H42543597   1.900   6.509   1.773 -0.4466 -0.7888 -0.4009
   87MOL   H42643598   1.805   6.387   1.875  1.6492 -0.6149  3.1010
   87MOL   C42743599   2.547   6.416   2.425 -0.7762  0.6121  0.0509
   87MOL   C42843600   2.638   6.294   2.453  0.5191  0.5132  0.2215
   87MOL   O42943601   2.661   6.290   2.594  0.4541 -0.4043 -0.0385
   87MOL   C43043602   2.800   6.246   2.616  0.3165  0.3962  0.5719
   87MOL   C43143603   2.885   6.371   2.666  0.0757  0.4822  0.1163
   87MOL   C43243604   2.894   6.485   2.567 -0.1524 -0.8358 -0.0894
   87MOL   C43343605   2.977   6.602   2.619  0.0489 -0.9321  0.5275
   87MOL   C43443606   2.971   6.723   2.521 -0.8367  0.2980  0.1207
   87MOL   C43543607   3.082   6.820   2.547 -0.1838 -0.6116  0.0905
   87MOL   H43643608   2.594   6.485   2.494  0.5415  0.9216 -1.1153
   87MOL   H43743609   2.448   6.381   2.455  0.3546 -1.1184  1.9391
   87MOL   H43843610   2.729   6.314   2.395  0.7365  2.8611  1.3255
   87MOL   H43943611   2.853   6.204   2.531 -0.9204  0.0229 -0.0158
   87MOL   H44043612   2.789   6.162   2.684 -1.3689 -1.3698 -1.8275
   87MOL   H44143613   2.987   6.341   2.689 -0.0557 -0.9376 -1.1345
   87MOL   H44243614   2.843   6.405   2.761 -1.7920 -1.9764  0.2313
   87MOL   H44343615   2.937   6.456   2.471  2.1051 -0.0268  0.6405
   87MOL   H44443616   2.797   6.520   2.533  0.5059  0.5656 -0.6024
   87MOL   H44543617   2.945   6.626   2.720  0.3586  1.6307  0.0439
   87MOL   H44643618   3.080   6.568   2.622 -0.1841 -1.7182  0.0122
   87MOL   H44743619   2.980   6.685   2.419  1.8986  0.2634  0.3328
   87MOL   H44843620   2.868   6.759   2.529 -0.9076  0.3942 -1.1317
   87MOL   H44943621   3.077   6.863   2.647 -1.1673 -1.3435  0.3681
   87MOL   H45043622   3.171   6.758   2.543 -0.9913 -1.8072  0.4184
   87MOL   H45143623   3.082   6.912   2.489 -0.6181  0.8171  2.2639
   87MOL   C45243624   2.560   6.170   2.415  0.9844  0.0858 -0.0414
   87MOL   C45343625   2.651   6.047   2.381 -0.3602  0.1078 -0.1657
   87MOL   O45443626   2.604   5.976   2.264 -0.1946 -0.4575 -0.0173
   87MOL   C45543627   2.577   6.043   2.144  0.2176  0.4984 -0.1585
   87MOL   C45643628   2.571   5.941   2.025 -1.1823  0.2619 -0.0391
   87MOL   C45743629   2.517   5.990   1.895 -0.0390 -0.2329  0.7390
   87MOL   C45843630   2.368   5.989   1.877 -0.5376 -0.4079 -0.5773
   87MOL   C45943631   2.310   6.035   1.744  0.3241  0.1252  0.1834
   87MOL   C46043632   2.337   5.937   1.631  0.9982  0.5982 -0.6039
   87MOL   H46143633   2.490   6.145   2.495 -1.6067  1.3752 -1.8062
   87MOL   H46243634   2.493   6.180   2.329 -0.1532  1.5748  0.9939
   87MOL   H46343635   2.753   6.075   2.358 -0.5366  0.5013 -0.4792
   87MOL   H46443636   2.660   6.107   2.112 -0.2021  0.8754 -0.5074
   87MOL   H46543637   2.484   6.099   2.145  0.4209  0.8567 -0.8970
   87MOL   H46643638   2.508   5.856   2.051 -1.7716  0.4594 -0.8306
   87MOL   H46743639   2.675   5.909   2.011 -1.6160 -1.1615 -0.0986
   87MOL   H46843640   2.564   6.084   1.867 -1.5289 -0.1471 -1.6095
   87MOL   H46943641   2.562   5.926   1.819 -1.0004 -1.1436  0.9201
   87MOL   H47043642   2.346   5.882   1.880 -0.0944 -0.4758  0.7861
   87MOL   H47143643   2.323   6.042   1.961  1.9633  0.2910  0.3742
   87MOL   H47243644   2.203   6.032   1.761  0.9321 -2.3530  4.4331
   87MOL   H47343645   2.333   6.139   1.722 -1.2535  0.4073 -0.2047
   87MOL   H47443646   2.441   5.902   1.629  0.5832 -0.6951 -0.1282
   87MOL   H47543647   2.287   5.841   1.644 -0.5998  1.3959 -0.7870
   87MOL   H47643648   2.318   5.976   1.531  2.3508  0.3555 -0.9715
   87MOL   C47743649   2.649   5.940   2.491 -1.1299 -0.2405 -0.4979
   87MOL   C47843650   2.772   5.838   2.501  0.0340 -0.2135 -0.3556
   87MOL   O47943651   2.893   5.916   2.514 -0.2627  0.7278  0.1724
   87MOL   C48043652   3.004   5.832   2.523 -0.0683  1.1330 -0.4436
   87MOL   C48143653   3.130   5.917   2.544  0.2056 -0.6476 -0.0042
   87MOL   C48243654   3.110   6.012   2.663  0.3189  0.0526  0.1012
   87MOL   C48343655   3.235   6.097   2.697 -0.4096 -0.6438 -0.5009
   87MOL   C48443656   3.291   6.175   2.588  0.1286 -0.1753 -0.5486
   87MOL   C48543657   3.424   6.251   2.616  0.0228 -0.5119 -0.3531
   87MOL   H48643658   2.648   5.997   2.584 -1.9795 -0.8900 -0.0956
   87MOL   H48743659   2.559   5.878   2.496 -0.6743 -0.9787 -1.1989
   87MOL   H48843660   2.759   5.777   2.590 -0.5530  0.8038  0.2621
   87MOL   H48943661   3.015   5.777   2.430 -2.7254 -0.6647  0.2621
   87MOL   H49043662   2.999   5.762   2.606  0.1557  2.7231  0.9273
   87MOL   H49143663   3.123   5.981   2.456 -0.5019  0.0700  0.5660
   87MOL   H49243664   3.225   5.865   2.555  0.5651 -0.2969 -1.3023
   87MOL   H49343665   3.022   6.075   2.651  0.6565  0.5425  0.1866
   87MOL   H49443666   3.084   5.945   2.745 -0.5453  0.4030  0.1229
   87MOL   H49543667   3.203   6.168   2.774 -0.9005 -2.1345  0.7167
   87MOL   H49643668   3.320   6.042   2.738 -1.1548 -0.6099  1.1541
   87MOL   H49743669   3.295   6.121   2.493 -1.4873 -0.0967 -0.6640
   87MOL   H49843670   3.214   6.246   2.559  0.8825  1.2504  0.8811
   87MOL   H49943671   3.411   6.314   2.704 -1.2399 -0.9836 -0.1901
   87MOL   H50043672   3.503   6.185   2.653  1.5848  1.4189 -0.2188
   87MOL   H50143673   3.464   6.310   2.534  1.0995 -2.4726 -1.2953
   87MOL   H50243674   2.767   5.770   2.416 -0.1059 -0.5964 -0.0415
   88MOL     C143675   5.198   7.619   0.802 -0.3007 -0.5479 -0.0663
   88MOL     C243676   5.305   7.678   0.708  0.6483 -0.1760  0.7442
   88MOL     O343677   5.428   7.634   0.765 -0.0242 -0.4400 -0.1251
   88MOL     C443678   5.478   7.506   0.714 -0.6139 -0.2516  0.1449
   88MOL     C543679   5.630   7.480   0.773 -0.3381  0.2268  0.0980
   88MOL     C643680   5.732   7.574   0.708  0.1171  0.1699 -0.2997
   88MOL     C743681   5.877   7.574   0.761  0.0403 -0.0493 -0.8839
   88MOL     C843682   5.964   7.671   0.677 -0.1188 -0.6103 -0.6363
   88MOL     C943683   6.110   7.694   0.720 -0.3242 -0.4181 -0.2702
   88MOL    H1043684   5.097   7.653   0.780  0.3840  1.8899  0.4226
   88MOL    H1143685   5.199   7.510   0.801 -2.8640 -0.6020  0.2977
   88MOL    H1243686   5.286   7.636   0.610  0.0825  0.6040  0.5095
   88MOL    H1343687   5.466   7.492   0.607 -1.2229  2.0049 -0.0926
   88MOL    H1443688   5.412   7.427   0.750  0.6046 -0.9875  0.8303
   88MOL    H1543689   5.659   7.376   0.759 -0.4139  0.1113  0.7753
   88MOL    H1643690   5.633   7.496   0.881  1.9875  0.5786  0.0060
   88MOL    H1743691   5.739   7.562   0.600  0.1567 -0.5359 -0.2201
   88MOL    H1843692   5.695   7.677   0.716 -1.7940 -0.5622  0.5269
   88MOL    H1943693   5.872   7.605   0.865  1.0671 -0.0105 -0.8410
   88MOL    H2043694   5.915   7.472   0.766 -0.2358 -0.0954  0.3284
   88MOL    H2143695   5.914   7.765   0.654  1.0242  0.2958  0.4944
   88MOL    H2243696   5.966   7.621   0.580  1.5431 -3.2805  0.7172
   88MOL    H2343697   6.174   7.606   0.716 -0.9399 -0.7766 -2.3831
   88MOL    H2443698   6.156   0.003   0.673 -0.2529 -0.0884  0.4016
   88MOL    H2543699   6.112   7.709   0.828 -1.0806  3.7186 -0.7395
   88MOL    H2643700   5.219   7.658   0.901 -0.1808 -0.7918  0.0048
   88MOL    C2743701   5.307   0.048   0.711  0.4039  0.3019 -0.1585
   88MOL    C2843702   5.421   0.103   0.632 -0.4103  0.1356  0.5754
   88MOL    O2943703   5.386   0.098   0.497 -0.3617  0.2803 -0.0394
   88MOL    C3043704   5.462   0.009   0.414  0.0452  0.1629  0.2907
   88MOL    C3143705   5.423   0.037   0.262  0.3475 -0.8763 -0.5178
   88MOL    C3243706   5.460   0.175   0.216  0.1093  0.3471  0.2698
   88MOL    C3343707   5.460   0.195   0.063  0.0054 -0.8165 -1.2212
   88MOL    C3443708   5.498   0.334   0.016 -0.6177 -0.2451  0.6539
   88MOL    C3543709   5.476   0.378   7.643 -0.2741  0.1485 -0.0472
   88MOL    H3643710   5.206   0.076   0.679 -0.8378 -2.5308  1.1010
   88MOL    H3743711   5.318   0.076   0.816 -1.2970  1.0232 -0.1516
   88MOL    H3843712   5.512   0.046   0.652  1.3882  2.6149 -0.3058
   88MOL    H3943713   5.437   7.686   0.446 -0.0296  0.1423  0.1667
   88MOL    H4043714   5.569   0.023   0.431  0.0434  0.2128  0.2589
   88MOL    H4143715   5.315   0.030   0.250 -0.1932  2.8326  1.4818
   88MOL    H4243716   5.473   7.749   0.191 -0.0964 -0.1155 -1.5569
   88MOL    H4343717   5.397   0.249   0.265 -0.0991 -0.6223  1.4939
   88MOL    H4443718   5.564   0.191   0.246  0.8745 -2.7490 -0.5956
   88MOL    H4543719   5.541   0.132   0.026  2.2529  0.0162  1.9830
   88MOL    H4643720   5.368   0.159   0.018  1.1139 -1.8166 -2.7264
   88MOL    H4743721   5.458   0.411   0.082 -2.6096 -0.7796  0.0800
   88MOL    H4843722   5.605   0.348   0.036 -0.1566 -0.9572 -1.2438
   88MOL    H4943723   5.536   0.468   7.633 -1.0414  0.8502  1.5494
   88MOL    H5043724   5.504   0.303   7.569  0.9482 -1.4760  2.0035
   88MOL    H5143725   5.372   0.409   7.633 -0.4080 -0.2121  0.2264
   88MOL    C5243726   5.444   0.253   0.664  0.2608 -0.8079  0.0308
   88MOL    C5343727   5.585   0.304   0.625 -0.1627 -1.2077 -0.1426
   88MOL    O5443728   5.590   0.445   0.636 -0.1684 -0.3554  0.0592
   88MOL    C5543729   5.541   0.511   0.522 -0.1619  0.2458  0.0666
   88MOL    C5643730   5.650   0.545   0.418 -0.3817 -0.9586  0.6055
   88MOL    C5743731   5.608   0.647   0.310  0.2328  1.2980  0.8654
   88MOL    C5843732   5.706   0.663   0.198 -0.1067  0.3659  0.0609
   88MOL    C5943733   5.658   0.769   0.097 -0.3309 -0.4467  0.3471
   88MOL    C6043734   5.764   0.801   7.777 -0.0499  0.1081 -0.1339
   88MOL    H6143735   5.441   0.265   0.772 -1.8574 -2.8478  0.2422
   88MOL    H6243736   5.364   0.313   0.622  2.4130  1.9286 -0.3484
   88MOL    H6343737   5.617   0.269   0.527 -1.8331 -1.9284 -0.4485
   88MOL    H6443738   5.513   0.607   0.564 -1.0379  0.4768 -1.0114
   88MOL    H6543739   5.463   0.453   0.472  1.8508 -1.8503 -0.7505
   88MOL    H6643740   5.692   0.455   0.373  3.0896  1.8554 -2.0886
   88MOL    H6743741   5.734   0.582   0.476  1.3450 -2.0191 -1.1495
   88MOL    H6843742   5.516   0.602   0.272  0.4056  0.8102  1.0151
   88MOL    H6943743   5.568   0.740   0.351 -2.1735  0.4525  0.5490
   88MOL    H7043744   5.806   0.692   0.229 -0.1664 -1.1944  1.7958
   88MOL    H7143745   5.723   0.571   0.141 -0.5371  1.4041 -1.7815
   88MOL    H7243746   5.576   0.722   0.042  0.3875 -0.4772 -0.6978
   88MOL    H7343747   5.616   0.857   0.146  0.4966 -0.4234  1.0216
   88MOL    H7443748   5.850   0.840   0.054  2.1491 -1.6433 -2.1998
   88MOL    H7543749   5.788   0.707   7.727  2.2691  0.5627  0.0446
   88MOL    H7643750   5.733   0.866   7.695 -3.3683  0.2949  1.1988
   88MOL    C7743751   5.695   0.267   0.738 -0.4202  0.4247  0.3451
   88MOL    C7843752   5.840   0.317   0.702  0.1587  0.1163  0.1896
   88MOL    O7943753   5.865   0.264   0.574  0.5719  0.0165  0.0430
   88MOL    C8043754   5.947   0.347   0.488  0.6030  0.1981  0.1926
   88MOL    C8143755   5.992   0.258   0.375  0.1723 -0.0196  0.6126
   88MOL    C8243756   5.874   0.176   0.310  0.4274 -0.0383  0.4123
   88MOL    C8343757   5.924   0.057   0.225  0.5071 -0.0802  0.9312
   88MOL    C8443758   5.801   7.771   0.153  0.2618 -0.3870  0.0514
   88MOL    C8543759   5.831   7.639   0.083 -0.5613  0.0355  0.5458
   88MOL    H8643760   5.704   0.161   0.759 -2.0590 -0.5604 -3.4398
   88MOL    H8743761   5.679   0.313   0.835  1.4855 -2.4306  2.0692
   88MOL    H8843762   5.836   0.425   0.720 -0.2125  0.0177  0.7165
   88MOL    H8943763   6.030   0.393   0.543 -0.4532  2.7373 -0.2755
   88MOL    H9043764   5.891   0.433   0.451  1.0460  0.1879 -0.5141
   88MOL    H9143765   6.059   0.184   0.418  0.2123 -1.1171 -1.2965
   88MOL    H9243766   6.052   0.313   0.303  0.0084 -0.1000  0.4139
   88MOL    H9343767   5.805   0.143   0.387 -0.7350  0.0014 -0.6033
   88MOL    H9443768   5.808   0.236   0.248 -0.9332 -0.7581  1.1215
   88MOL    H9543769   5.998   0.083   0.149  1.8423  2.9516  3.1887
   88MOL    H9643770   5.973   7.758   0.283  1.2720  0.1085  0.5403
   88MOL    H9743771   5.723   7.745   0.224 -1.1585  2.6677 -0.3368
   88MOL    H9843772   5.757   0.068   0.088  0.7099 -0.9067 -0.8602
   88MOL    H9943773   5.893   7.643   7.772 -0.2673  3.2316  0.8529
   88MOL   H10043774   5.883   7.576   0.156  1.5156 -0.3423 -1.2144
   88MOL   H10143775   5.740   7.591   0.048 -0.3399 -0.5027  0.6948
   88MOL   C10243776   5.945   0.267   0.801 -0.0836  0.1584 -0.2989
   88MOL   C10343777   5.925   0.298   0.951 -0.0358  0.1467  0.4920
   88MOL   O10443778   5.851   0.180   1.004 -0.5979 -0.6118 -0.7867
   88MOL   C10543779   5.751   0.210   1.093 -0.3010  0.6871  0.5036
   88MOL   C10643780   5.634   0.106   1.084 -0.1495  0.4168  0.0625
   88MOL   C10743781   5.662   7.740   1.126  0.0731  0.3592  0.0430
   88MOL   C10843782   5.539   7.643   1.122  0.2123  0.1106  0.4672
   88MOL   C10943783   5.441   7.674   1.235  0.7656  0.0326 -0.4050
   88MOL   C11043784   5.347   7.553   1.257  0.0046 -0.0171  0.3495
   88MOL   H11143785   5.965   0.162   0.779 -1.5909  0.1863 -1.9142
   88MOL   H11243786   6.041   0.309   0.770 -1.3894  2.1651 -1.7402
   88MOL   H11343787   5.874   0.392   0.971  1.8801  1.4873 -0.6913
   88MOL   H11443788   5.705   0.305   1.069  0.1587  0.8491  0.2644
   88MOL   H11543789   5.786   0.225   1.195 -0.2076 -1.8851  0.8973
   88MOL   H11643790   5.592   0.098   0.984 -3.2426 -3.2882  1.5199
   88MOL   H11743791   5.554   0.141   1.150 -0.5029 -2.0438  0.9888
   88MOL   H11843792   5.739   7.690   1.067 -1.0275 -1.1885 -0.1239
   88MOL   H11943793   5.701   7.739   1.228  0.9612 -0.0602 -0.2936
   88MOL   H12043794   5.491   7.640   1.024 -0.4634 -0.8624  0.8206
   88MOL   H12143795   5.573   7.539   1.126 -1.8369 -0.6301 -0.7875
   88MOL   H12243796   5.506   7.684   1.322  0.5731 -1.9430 -0.0068
   88MOL   H12343797   5.385   7.763   1.208  3.1069  1.2208 -1.5666
   88MOL   H12443798   5.276   7.546   1.340  0.3159 -0.6887  0.5625
   88MOL   H12543799   5.287   7.530   1.169  0.1583  2.0375 -0.3273
   88MOL   H12643800   5.408   7.463   1.262 -1.3301 -0.9166  0.6273
   88MOL   C12743801   6.058   0.305   1.025  0.7472  0.4851  0.0594
   88MOL   C12843802   6.134   0.438   1.022  0.0227 -0.4118 -0.0699
   88MOL   O12943803   6.135   0.499   0.896 -0.7444  1.1306  0.0941
   88MOL   C13043804   6.078   0.627   0.902 -0.0772 -0.4630 -0.4769
   88MOL   C13143805   6.088   0.686   0.766 -0.2719 -0.1055  0.0654
   88MOL   C13243806   6.043   0.836   0.758 -0.7069  0.6357 -0.3267
   88MOL   C13343807   6.055   0.892   0.610  0.3916 -0.2492 -0.0317
   88MOL   C13443808   5.935   0.861   0.511  0.0400 -0.1211  0.2379
   88MOL   C13543809   5.813   0.937   0.554 -0.2855  0.6937 -0.1076
   88MOL   H13643810   6.043   0.277   1.129  1.1236 -1.2678 -0.3272
   88MOL   H13743811   6.125   0.226   0.991 -1.7878 -1.6842 -0.1527
   88MOL   H13843812   6.077   0.496   1.094  0.4056  0.5736 -0.5478
   88MOL   H13943813   6.135   0.685   0.974  1.8879 -3.4355  0.4501
   88MOL   H14043814   5.973   0.610   0.929  0.4756 -3.4504 -0.0197
   88MOL   H14143815   6.023   0.629   0.700  0.5387 -0.2326 -0.6288
   88MOL   H14243816   6.189   0.677   0.726 -0.5598  0.2520 -0.7366
   88MOL   H14343817   5.943   0.848   0.799 -1.4816 -1.2346 -1.5921
   88MOL   H14443818   6.107   0.894   0.825 -1.4349  1.9493 -0.7534
   88MOL   H14543819   6.070   0.999   0.607 -1.8319  0.0809 -0.6987
   88MOL   H14643820   6.144   0.843   0.570 -0.6592 -1.6032 -0.7730
   88MOL   H14743821   5.970   0.895   0.413  0.8238 -0.0309  0.5383
   88MOL   H14843822   5.931   0.753   0.498 -0.3830  0.1034 -1.6775
   88MOL   H14943823   5.825   1.044   0.572  0.6374  0.3535  1.3449
   88MOL   H15043824   5.736   0.924   0.478 -0.0724  2.4897 -0.6734
   88MOL   H15143825   5.771   0.907   0.649  1.0667 -0.9002  0.0089
   88MOL   C15243826   6.280   0.437   1.084 -0.4012  0.0215 -0.6955
   88MOL   C15343827   6.339   0.582   1.114 -0.2474  0.6243  0.1293
   88MOL   O15443828   6.253   0.633   1.215  0.0571  0.1294 -0.1449
   88MOL   C15543829   6.255   0.775   1.210 -0.1646  0.2378 -0.1953
   88MOL   C15643830   6.161   0.838   1.306  0.4116  0.2102  0.3621
   88MOL   C15743831   6.010   0.804   1.283 -0.4564  0.1267 -0.2822
   88MOL   C15843832   5.915   0.880   1.386 -0.0236 -0.4682  0.2143
   88MOL   C15943833   5.770   0.842   1.382 -0.2535 -0.2768 -0.0295
   88MOL   C16043834   5.693   0.899   1.501  0.0103  0.1370  0.3136
   88MOL   H16143835   6.284   0.373   1.172 -1.1110  2.7290  1.3678
   88MOL   H16243836   6.342   0.378   1.016  1.4838 -0.8471  1.6908
   88MOL   H16343837   6.340   0.636   1.020  2.8706 -0.4222 -0.4843
   88MOL   H16443838   6.263   0.817   1.109  3.2735  0.0949 -0.0445
   88MOL   H16543839   6.350   0.816   1.246  0.9665 -1.3633 -1.2634
   88MOL   H16643840   6.161   0.947   1.296  1.0856  0.2491  0.7020
   88MOL   H16743841   6.186   0.816   1.410  1.6199 -0.8257 -0.1371
   88MOL   H16843842   5.990   0.850   1.186 -0.6094  1.5249  0.4006
   88MOL   H16943843   5.989   0.697   1.281 -0.5838  0.1442  0.1093
   88MOL   H17043844   5.959   0.843   1.479 -0.8806 -1.9464  0.0535
   88MOL   H17143845   5.942   0.985   1.375 -0.7231 -0.4608 -1.6186
   88MOL   H17243846   5.726   0.864   1.285  2.2439 -1.9983 -1.5945
   88MOL   H17343847   5.769   0.733   1.389  0.1774 -0.2410  0.6557
   88MOL   H17443848   5.746   0.892   1.596  1.2250  1.2037 -0.2679
   88MOL   H17543849   5.656   1.001   1.492 -0.0922  0.2100  1.4944
   88MOL   H17643850   5.604   0.841   1.523  0.6653 -0.6793  0.8673
   88MOL   C17743851   6.483   0.575   1.172 -0.1699  0.4923  0.0328
   88MOL   C17843852   6.595   0.584   1.070  0.5079  0.1738  0.2362
   88MOL   O17943853   6.585   0.710   1.010  0.2280 -0.5884  0.4424
   88MOL   C18043854   6.622   0.727   0.871  0.5293 -0.4030 -0.0845
   88MOL   C18143855   6.545   0.852   0.823  0.1396  0.3771 -0.5365
   88MOL   C18243856   6.604   0.989   0.867 -0.4398 -0.6509 -0.7042
   88MOL   C18343857   6.538   1.101   0.789 -1.0353 -0.2815  0.1265
   88MOL   C18443858   6.386   1.117   0.814 -0.5187  0.1320  0.1808
   88MOL   C18543859   6.346   1.159   0.953 -0.0438  0.5721  0.8728
   88MOL   H18643860   6.512   0.645   1.251 -1.5792  2.8224 -1.4629
   88MOL   H18743861   6.493   0.481   1.227  0.6462  0.9208  0.6271
   88MOL   H18843862   6.558   0.519   0.990  1.4089 -0.9852  0.7426
   88MOL   H18943863   6.585   0.641   0.816  1.1650 -1.1813  0.6955
   88MOL   H19043864   6.729   0.735   0.856  0.5859 -0.1224  0.4372
   88MOL   H19143865   6.444   0.836   0.861 -0.5505  1.4363 -1.8774
   88MOL   H19243866   6.534   0.850   0.715  1.0061 -1.5357 -0.6168
   88MOL   H19343867   6.577   0.993   0.972  1.0182 -1.4984 -0.2816
   88MOL   H19443868   6.711   0.997   0.848 -0.1522 -1.5638  0.5213
   88MOL   H19543869   6.581   1.198   0.814 -1.8993 -0.2268  1.4299
   88MOL   H19643870   6.562   1.086   0.684  2.0261  0.0681  0.7475
   88MOL   H19743871   6.335   1.187   0.747  1.1584  1.7309  0.5405
   88MOL   H19843872   6.339   1.022   0.786 -1.8682  0.5682  0.9330
   88MOL   H19943873   6.377   1.081   1.024 -0.3861  0.0373  0.4367
   88MOL   H20043874   6.388   1.252   0.993  0.8020  0.5715 -0.0114
   88MOL   H20143875   6.237   1.163   0.956 -0.1489 -0.9085 -0.3285
   88MOL   C20243876   6.740   0.547   1.118  0.0830 -0.4781  0.0025
   88MOL   C20343877   6.800   0.645   1.222 -0.0182 -0.2682  0.0917
   88MOL   O20443878   6.738   0.647   1.351  0.5614  0.1551 -0.0847
   88MOL   C20543879   6.742   0.535   1.437  0.4924  0.9933  0.1569
   88MOL   C20643880   6.613   0.520   1.528 -0.6598  0.6311 -1.0734
   88MOL   C20743881   6.596   0.619   1.645  0.0325 -0.0289 -0.5567
   88MOL   C20843882   6.461   0.597   1.725 -0.0512  0.5496 -0.5601
   88MOL   C20943883   6.449   0.669   1.856 -0.4455 -0.4101 -0.4100
   88MOL   C21043884   6.424   0.823   1.828  0.3219 -0.5109  0.3489
   88MOL   H21143885   6.734   0.446   1.158  1.3352  0.4441  2.5735
   88MOL   H21243886   6.814   0.551   1.038 -0.0311  2.5780 -0.0341
   88MOL   H21343887   6.896   0.601   1.248  0.5847  0.4937 -0.8303
   88MOL   H21443888   6.834   0.527   1.495  1.3205 -0.5927 -1.3248
   88MOL   H21543889   6.736   0.451   1.368  1.5045 -0.5228  1.8734
   88MOL   H21643890   6.604   0.418   1.564 -2.6877  1.7668  1.8228
   88MOL   H21743891   6.533   0.537   1.456  0.2041  2.8453 -1.5671
   88MOL   H21843892   6.674   0.600   1.718 -0.2399  1.4106  0.1341
   88MOL   H21943893   6.609   0.725   1.621  0.9737  0.4661  1.9354
   88MOL   H22043894   6.377   0.630   1.664 -0.6261  1.3396  0.6340
   88MOL   H22143895   6.438   0.493   1.748 -0.3251  0.6713 -0.2976
   88MOL   H22243896   6.357   0.637   1.904 -0.3837 -1.4416 -0.9801
   88MOL   H22343897   6.534   0.661   1.923 -1.9753 -0.8261  1.5274
   88MOL   H22443898   6.482   0.862   1.745 -0.9557 -2.5307 -1.5391
   88MOL   H22543899   6.322   0.832   1.790  0.6579  1.8577 -0.0768
   88MOL   H22643900   6.441   0.887   1.915  2.8109  0.4940 -0.8306
   88MOL   C22743901   6.814   0.797   1.171  0.4108 -0.6043  0.0785
   88MOL   C22843902   6.906   0.876   1.264 -0.0540  0.3222  0.4413
   88MOL   O22943903   7.037   0.815   1.279  0.2789  0.0911 -0.2171
   88MOL   C23043904   7.081   0.813   1.418 -0.8766 -0.0601  0.0004
   88MOL   C23143905   7.232   0.777   1.423  0.2096 -0.2703  0.7418
   88MOL   C23243906   7.288   0.779   1.564 -0.0716  0.9330 -0.7546
   88MOL   C23343907   7.232   0.656   1.653 -0.4058 -0.2781  0.1048
   88MOL   C23443908   7.291   0.646   1.788 -0.6130 -0.6954  0.1179
   88MOL   C23543909   7.240   0.535   1.879  0.5612 -0.0598 -0.4919
   88MOL   H23643910   6.852   0.803   1.069 -1.3460 -0.1363 -0.5595
   88MOL   H23743911   6.720   0.851   1.164  0.0702 -1.2755 -0.5193
   88MOL   H23843912   6.846   0.878   1.354  0.1084  1.6200  0.5251
   88MOL   H23943913   7.017   0.740   1.466  1.4956 -1.7055  0.7522
   88MOL   H24043914   7.069   0.911   1.464  0.0170 -0.3290  0.8300
   88MOL   H24143915   7.283   0.851   1.360  1.3860 -0.9471  0.8707
   88MOL   H24243916   7.245   0.676   1.386 -0.6496 -1.2485  3.0104
   88MOL   H24343917   7.397   0.788   1.565 -0.0710  0.9082 -0.5063
   88MOL   H24443918   7.256   0.877   1.600  0.6785  1.4078 -1.3486
   88MOL   H24543919   7.123   0.655   1.657 -0.5242  2.8987 -0.5834
   88MOL   H24643920   7.260   0.569   1.593 -1.6661 -1.6623  1.5068
   88MOL   H24743921   7.399   0.644   1.773 -0.6590  2.1159 -0.9994
   88MOL   H24843922   7.287   0.740   1.844 -0.1551 -0.0362 -0.9409
   88MOL   H24943923   7.242   0.437   1.831 -0.0473 -0.8770  1.1357
   88MOL   H25043924   7.292   0.518   1.973  1.1309 -0.9347 -0.9608
   88MOL   H25143925   7.138   0.551   1.914  0.7610 -0.1328  0.1293
   88MOL   C25243926   6.917   1.016   1.213 -0.3483  0.0355  0.0096
   88MOL   C25343927   6.957   1.115   1.324 -0.2364  0.3543  0.6729
   88MOL   O25443928   6.898   1.245   1.304  0.0639  0.0119  0.0789
   88MOL   C25543929   6.775   1.287   1.378  0.6947  0.3166 -0.9269
   88MOL   C25643930   6.663   1.179   1.352 -1.0502 -0.0540 -0.6039
   88MOL   C25743931   6.532   1.220   1.423  0.0399 -0.1827 -0.3342
   88MOL   C25843932   6.411   1.120   1.409 -0.3255 -0.0993  0.1652
   88MOL   C25943933   6.278   1.175   1.460  0.5644  0.1681 -0.6336
   88MOL   C26043934   6.243   1.118   1.604 -0.3142  0.0702 -0.5114
   88MOL   H26143935   6.983   1.030   1.128 -1.3094  0.5237 -0.6762
   88MOL   H26243936   6.820   1.040   1.168 -0.3803 -0.5927 -0.2496
   88MOL   H26343937   6.913   1.083   1.419  0.2981 -1.0749  0.4518
   88MOL   H26443938   6.740   1.378   1.330 -0.0486  0.2920 -0.4377
   88MOL   H26543939   6.803   1.301   1.483  0.7143  0.7880 -0.9965
   88MOL   H26643940   6.703   1.093   1.405  1.7578  2.0772  0.8975
   88MOL   H26743941   6.645   1.159   1.246  0.2184  1.0410 -1.0457
   88MOL   H26843942   6.547   1.229   1.531  0.6126  2.9588 -0.6311
   88MOL   H26943943   6.501   1.320   1.393  0.8971 -0.1803 -1.2278
   88MOL   H27043944   6.405   1.097   1.303  1.6616 -3.0956  0.6074
   88MOL   H27143945   6.442   1.025   1.452 -0.2804 -0.7338 -1.2403
   88MOL   H27243946   6.290   1.282   1.477  1.4340 -0.0507  0.2238
   88MOL   H27343947   6.209   1.145   1.382 -1.8472  0.1999  1.4207
   88MOL   H27443948   6.245   1.009   1.607 -0.9157  0.0793  0.2734
   88MOL   H27543949   6.312   1.149   1.682 -0.4035 -0.2365 -0.3088
   88MOL   H27643950   6.145   1.141   1.646  0.4122 -1.7560  2.2997
   88MOL   C27743951   7.105   1.144   1.304 -0.8324 -0.2347  0.5043
   88MOL   C27843952   7.171   1.235   1.412 -0.1842 -0.1625 -0.2096
   88MOL   O27943953   7.164   1.156   1.529 -0.0073  0.6704  0.4855
   88MOL   C28043954   7.135   1.217   1.657  0.3737  0.5030  0.6766
   88MOL   C28143955   7.116   1.110   1.763  0.7878  0.7107  0.6285
   88MOL   C28243956   7.000   1.019   1.737  0.0916  0.1145  0.5079
   88MOL   C28343957   6.961   0.939   1.863 -0.1748  0.1682  0.0725
   88MOL   C28443958   6.873   0.818   1.828  0.2578  0.0477 -0.4761
   88MOL   C28543959   6.821   0.749   1.962 -0.1198 -0.0080  0.1296
   88MOL   H28643960   7.155   1.047   1.293 -0.1581  0.2986 -1.5002
   88MOL   H28743961   7.115   1.186   1.203 -2.3000  1.5868  1.0916
   88MOL   H28843962   7.116   1.327   1.430 -0.1713 -0.3423  0.7633
   88MOL   H28943963   7.041   1.269   1.639 -0.0464 -1.0272 -1.7661
   88MOL   H29043964   7.214   1.290   1.676 -0.6069  1.9274 -0.5882
   88MOL   H29143965   7.105   1.173   1.852  1.4168  0.3034  1.0051
   88MOL   H29243966   7.211   1.061   1.784  0.3963  0.4791  1.9237
   88MOL   H29343967   6.908   1.066   1.703 -0.4820  0.0935  1.9895
   88MOL   H29443968   7.031   0.946   1.663 -1.1078 -0.9966  1.0695
   88MOL   H29543969   7.047   0.907   1.923 -0.0287  0.5131  0.0452
   88MOL   H29643970   6.909   1.011   1.926 -2.2996 -0.7728 -0.5699
   88MOL   H29743971   6.788   0.868   1.780  0.7213  2.1534  0.8578
   88MOL   H29843972   6.930   0.751   1.764  1.2352 -1.8280  2.2485
   88MOL   H29943973   6.756   0.830   1.996 -0.2214  0.6374 -1.5226
   88MOL   H30043974   6.765   0.657   1.945  0.4486 -0.3000 -0.1767
   88MOL   H30143975   6.909   0.729   2.022  0.4947  0.2385 -0.6886
   88MOL   C30243976   7.321   1.258   1.377 -0.4662 -0.3001 -0.0679
   88MOL   C30343977   7.346   1.362   1.261 -0.6094  0.2787  0.0742
   88MOL   O30443978   7.487   1.389   1.270  0.3016  0.1778 -0.3867
   88MOL   C30543979   7.578   1.299   1.200 -0.6536 -0.2911 -0.4785
   88MOL   C30643980   7.712   1.371   1.210  0.7708 -0.4816  0.3736
   88MOL   C30743981   0.044   1.283   1.152  0.5240  0.1430 -0.2281
   88MOL   C30843982   0.178   1.352   1.149 -0.3784  0.7209  0.4680
   88MOL   C30943983   0.243   1.374   1.284  0.4157  0.0011 -0.2278
   88MOL   C31043984   0.394   1.398   1.290  0.3226  0.1728  0.0486
   88MOL   H31143985   7.377   1.287   1.466 -1.6326  0.8052  0.3102
   88MOL   H31243986   7.379   1.167   1.359 -0.4802 -0.7007  1.7683
   88MOL   H31343987   7.323   1.317   1.165  2.2493  0.7140 -0.8783
   88MOL   H31443988   7.552   1.280   1.096  1.0763 -1.5373 -0.7037
   88MOL   H31543989   7.586   1.203   1.251  0.5845  0.9721  1.7907
   88MOL   H31643990   7.740   1.393   1.313  1.7929 -1.4349  0.3122
   88MOL   H31743991   7.709   1.474   1.173  0.5060 -0.4549  0.4700
   88MOL   H31843992   0.025   1.184   1.195  0.9232 -0.8950 -2.3548
   88MOL   H31943993   0.015   1.255   1.051 -1.3024 -0.3006  0.3901
   88MOL   H32043994   0.242   1.292   1.084  0.5905  1.2888  0.8934
   88MOL   H32143995   0.168   1.450   1.103  2.5951  0.3560 -1.0633
   88MOL   H32243996   0.185   1.449   1.338  0.5268  0.6143 -0.9659
   88MOL   H32343997   0.225   1.288   1.349  0.1637  1.3831  1.5542
   88MOL   H32443998   0.428   1.400   1.394  2.1374  1.8795 -0.5427
   88MOL   H32543999   0.440   1.303   1.260  1.2665  0.4102  0.7099
   88MOL   H32644000   0.430   1.479   1.227  0.7799 -0.6122 -0.7088
   88MOL   C32744001   7.268   1.497   1.282  0.1194 -0.8686 -0.1045
   88MOL   C32844002   7.300   1.606   1.177 -0.3032 -0.4482 -0.4962
   88MOL   O32944003   7.251   1.573   1.049  0.3842  0.1796 -0.5617
   88MOL   C33044004   7.346   1.557   0.950 -0.0060 -1.1571 -0.3748
   88MOL   C33144005   7.283   1.472   0.836  0.1237  0.1076 -0.2459
   88MOL   C33244006   7.176   1.548   0.754 -0.1858  0.2355  0.2344
   88MOL   C33344007   7.154   1.489   0.615 -0.5686 -0.1188  0.3671
   88MOL   C33444008   7.042   1.564   0.547  0.0187  0.1259 -0.2966
   88MOL   C33544009   7.040   1.547   0.393  0.0041  0.0836 -0.4273
   88MOL   H33644010   7.278   1.540   1.382 -2.3404  0.5486 -0.4161
   88MOL   H33744011   7.162   1.471   1.280 -0.4330  1.2936 -0.3516
   88MOL   H33844012   7.407   1.626   1.180 -0.5492  0.9732 -0.8915
   88MOL   H33944013   7.436   1.508   0.988 -1.1113 -1.6542  1.6297
   88MOL   H34044014   7.383   1.652   0.912  0.6609 -0.8116  1.0942
   88MOL   H34144015   7.231   1.387   0.881  0.6999  0.2482  0.7061
   88MOL   H34244016   7.364   1.432   0.775 -1.7090 -1.5530 -1.6595
   88MOL   H34344017   7.081   1.564   0.804 -0.4344  0.3841 -0.2771
   88MOL   H34444018   7.207   1.651   0.738  0.1798 -0.2273 -2.3316
   88MOL   H34544019   7.247   1.491   0.557  0.6152  2.9504  2.2600
   88MOL   H34644020   7.116   1.388   0.628 -2.4527  0.6681  1.0978
   88MOL   H34744021   6.948   1.530   0.591  0.1296  0.8536  0.5247
   88MOL   H34844022   7.060   1.671   0.560 -2.2060  0.2869  1.8423
   88MOL   H34944023   7.029   1.444   0.359  0.0409 -0.1565  0.2815
   88MOL   H35044024   6.956   1.605   0.355  0.3844  1.2987  0.5371
   88MOL   H35144025   7.134   1.587   0.354 -0.0243  0.4698 -0.1002
   88MOL   C35244026   7.213   1.730   1.201 -0.5243 -0.1108 -0.5740
   88MOL   C35344027   7.270   1.852   1.127  0.0138 -0.2769 -0.0386
   88MOL   O35444028   7.404   1.868   1.168 -0.0425 -0.2301  0.1173
   88MOL   C35544029   7.485   1.933   1.075 -0.2599  0.2991  0.4727
   88MOL   C35644030   7.623   1.951   1.128  0.1388 -0.1597 -0.6621
   88MOL   C35744031   7.713   1.831   1.130 -0.1136  0.3099 -0.2077
   88MOL   C35844032   0.080   1.849   1.174 -0.4134  0.4668  0.0608
   88MOL   C35944033   0.173   1.724   1.182  0.6193  0.3501 -0.0171
   88MOL   C36044034   0.322   1.760   1.179 -0.3919 -0.0190 -0.8609
   88MOL   H36144035   7.113   1.718   1.159 -0.3187 -0.2113 -1.0355
   88MOL   H36244036   7.207   1.752   1.308  0.5715 -1.1041 -0.2948
   88MOL   H36344037   7.262   1.819   1.023  0.7064  0.1011 -0.2209
   88MOL   H36444038   7.438   2.031   1.070 -1.8590 -0.5467 -1.8086
   88MOL   H36544039   7.482   1.885   0.978 -0.2055  1.2319  0.0026
   88MOL   H36644040   7.616   1.991   1.230  1.4530 -0.0087 -0.6304
   88MOL   H36744041   7.658   2.032   1.065  0.6297  0.8828  0.9098
   88MOL   H36844042   7.669   1.752   1.191  1.3020 -1.4807 -1.4367
   88MOL   H36944043   7.709   1.786   1.030  0.2661 -3.2048  1.2640
   88MOL   H37044044   0.127   1.925   1.111 -1.9669  2.1068  0.8443
   88MOL   H37144045   0.077   1.889   1.275 -0.4319  4.2629 -1.3775
   88MOL   H37244046   0.148   1.663   1.269  0.3688 -0.2927 -0.5390
   88MOL   H37344047   0.156   1.662   1.094 -0.4161 -1.4345  1.4162
   88MOL   H37444048   0.379   1.679   1.134  0.5928 -0.5645  1.2919
   88MOL   H37544049   0.347   1.837   1.107 -1.2822  0.2818 -0.8497
   88MOL   H37644050   0.369   1.779   1.276 -1.8233 -0.0987 -0.1400
   88MOL   C37744051   7.193   1.976   1.157  0.7821  0.7414  0.2981
   88MOL   C37844052   7.064   2.004   1.063  0.5098  0.1845  0.4911
   88MOL   O37944053   7.107   2.013   0.929  0.3871  0.1071 -0.2132
   88MOL   C38044054   7.059   1.923   0.833 -1.2104 -0.4604 -0.2065
   88MOL   C38144055   7.131   1.961   0.705  0.2569 -0.3229 -0.0781
   88MOL   C38244056   7.280   1.954   0.737 -0.6146  0.5805 -0.4401
   88MOL   C38344057   7.362   1.972   0.610 -0.3759  0.0038  0.4482
   88MOL   C38444058   7.514   1.972   0.643 -0.3615  0.1015  0.0824
   88MOL   C38544059   7.594   2.009   0.517 -0.2674  0.6122  0.2472
   88MOL   H38644060   7.157   1.977   1.260 -1.0347  1.7106 -0.3219
   88MOL   H38744061   7.257   2.064   1.155  1.4106  0.3441  2.1108
   88MOL   H38844062   6.991   1.923   1.064 -0.2457  0.8625  1.3457
   88MOL   H38944063   6.954   1.937   0.807 -0.8373  0.6399 -1.1598
   88MOL   H39044064   7.090   1.825   0.867  0.9052  0.6324  1.1447
   88MOL   H39144065   7.117   2.067   0.682  2.2203  0.1347  0.7236
   88MOL   H39244066   7.094   1.905   0.620 -4.3406  0.8798  1.0033
   88MOL   H39344067   7.306   2.029   0.812  0.2545 -2.2898  2.2272
   88MOL   H39444068   7.288   1.850   0.769 -0.0687  0.4568 -0.9686
   88MOL   H39544069   7.329   1.906   0.530 -0.4163  0.8510 -0.2394
   88MOL   H39644070   7.341   2.072   0.573  2.1048  0.0530 -0.9315
   88MOL   H39744071   7.535   2.043   0.722  0.8629  0.8549 -0.9191
   88MOL   H39844072   7.534   1.875   0.690 -0.0648  0.6140  1.0249
   88MOL   H39944073   7.547   2.073   0.442  0.6872  1.9056  0.7337
   88MOL   H40044074   7.685   2.044   0.565  0.8091 -0.3511 -1.0492
   88MOL   H40144075   7.636   1.925   0.462  2.0670  1.5021  0.6201
   88MOL   C40244076   6.990   2.135   1.095  0.3867  0.3694  0.1705
   88MOL   C40344077   6.874   2.180   1.006 -0.7345  0.4540  0.1982
   88MOL   O40444078   6.829   2.309   1.043  0.7183  0.2370 -0.5068
   88MOL   C40544079   6.903   2.423   1.005 -0.1658  0.7948  0.0329
   88MOL   C40644080   6.864   2.541   1.098  0.1654 -0.8570 -0.0291
   88MOL   C40744081   6.905   2.532   1.247 -0.0203 -0.0992  0.6216
   88MOL   C40844082   6.880   2.668   1.321  0.0086  0.5208 -0.0863
   88MOL   C40944083   6.975   2.784   1.275 -0.1102  0.6733  0.5560
   88MOL   C41044084   6.966   2.902   1.373 -0.2092  0.0130 -0.5261
   88MOL   H41144085   7.061   2.217   1.078  0.4224 -0.2231 -2.8600
   88MOL   H41244086   6.958   2.129   1.199  0.6196  1.3067  0.3021
   88MOL   H41344087   6.909   2.173   0.903 -0.0554 -0.3627  0.4774
   88MOL   H41444088   6.888   2.457   0.902  2.5135 -0.7535 -0.9082
   88MOL   H41544089   7.011   2.406   1.010 -0.4104 -1.8493 -2.5137
   88MOL   H41644090   6.758   2.564   1.097  0.8290  2.3254  0.5106
   88MOL   H41744091   6.918   2.620   1.045  0.9391 -1.5149 -0.2496
   88MOL   H41844092   6.841   2.457   1.294  2.5288 -0.8682  2.9793
   88MOL   H41944093   7.012   2.513   1.255  0.3671  2.2670  1.7634
   88MOL   H42044094   6.776   2.702   1.322  0.1762  1.0152  0.3745
   88MOL   H42144095   6.913   2.664   1.424 -1.1361  0.7404  0.2981
   88MOL   H42244096   7.078   2.750   1.274 -0.6234 -0.9237  0.5207
   88MOL   H42344097   6.953   2.811   1.171 -0.6112 -1.1273  0.1826
   88MOL   H42444098   7.024   2.896   1.466  1.2908  2.1167 -1.2756
   88MOL   H42544099   6.988   2.997   1.325 -4.7109  1.3559 -0.1357
   88MOL   H42644100   6.862   2.919   1.402  0.0078 -1.2431  1.0818
   88MOL   C42744101   6.741   2.097   1.010  0.4142  0.0529 -0.3856
   88MOL   C42844102   6.637   2.137   0.896  0.8861  0.3309  0.1539
   88MOL   O42944103   6.680   2.098   0.769 -0.7042 -1.2308 -0.4368
   88MOL   C43044104   6.722   2.179   0.670 -0.5041 -0.3406 -1.3435
   88MOL   C43144105   6.595   2.241   0.605  0.4437 -0.1018 -0.2921
   88MOL   C43244106   6.623   2.344   0.497 -0.7732  0.6358 -0.0780
   88MOL   C43344107   6.501   2.392   0.417 -0.1637  0.4617 -0.1127
   88MOL   C43444108   6.534   2.521   0.349 -0.0072 -0.9007 -0.0159
   88MOL   C43544109   6.412   2.588   0.292 -0.2326 -0.1207  1.3942
   88MOL   H43644110   6.754   1.989   0.999  0.0754  0.0142 -0.4141
   88MOL   H43744111   6.685   2.114   1.102 -0.5926 -0.1550 -0.9415
   88MOL   H43844112   6.603   2.240   0.900 -3.3657 -1.0173  1.0746
   88MOL   H43944113   6.754   2.124   0.581  1.7055 -1.8418  0.3343
   88MOL   H44044114   6.800   2.249   0.696  0.8562 -1.7957 -1.4380
   88MOL   H44144115   6.538   2.284   0.688  2.2193  0.1091  0.8408
   88MOL   H44244116   6.538   2.155   0.569 -1.5128  0.2110  1.9130
   88MOL   H44344117   6.684   2.424   0.539  0.4481 -0.8225  0.9949
   88MOL   H44444118   6.689   2.292   0.427 -1.1855  0.9086 -0.6680
   88MOL   H44544119   6.464   2.320   0.344 -0.7265  0.3496  0.2706
   88MOL   H44644120   6.417   2.409   0.485  0.3069 -0.8294  0.8065
   88MOL   H44744121   6.589   2.583   0.420 -1.2776 -1.0482  1.1268
   88MOL   H44844122   6.605   2.507   0.268  0.9201 -1.5070  0.8970
   88MOL   H44944123   6.428   2.666   0.218 -1.8234 -0.3421  0.7988
   88MOL   H45044124   6.354   2.524   0.225  1.3304  2.2657 -2.4106
   88MOL   H45144125   6.345   2.606   0.376  0.2739 -0.3571  1.8482
   88MOL   C45244126   6.514   2.042   0.891 -0.8206 -0.3568 -0.2920
   88MOL   C45344127   6.425   2.063   1.012  0.3806 -0.6817 -0.5051
   88MOL   O45444128   6.467   1.968   1.110 -0.0661 -0.0340 -0.1879
   88MOL   C45544129   6.486   2.024   1.241 -0.3409 -0.1716  0.0630
   88MOL   C45644130   6.572   1.936   1.332  0.4737 -0.2228  0.1585
   88MOL   C45744131   6.503   1.808   1.373  0.6592 -0.3720  1.0444
   88MOL   C45844132   6.586   1.712   1.461  0.3794  0.0588  0.4847
   88MOL   C45944133   6.515   1.587   1.515 -0.3828 -0.4564  0.0589
   88MOL   C46044134   6.376   1.614   1.583 -0.4347 -0.1062 -0.2750
   88MOL   H46144135   6.469   2.058   0.793 -0.6453  1.4747 -0.0971
   88MOL   H46244136   6.550   1.940   0.882  1.7255  0.5050 -0.1896
   88MOL   H46344137   6.434   2.165   1.049  0.5151 -0.7303 -0.4046
   88MOL   H46444138   6.392   2.039   1.295 -1.4558  1.7674 -2.3119
   88MOL   H46544139   6.532   2.123   1.238 -1.2128  0.2993  1.5183
   88MOL   H46644140   6.584   1.991   1.425 -0.8969  1.4892 -0.6365
   88MOL   H46744141   6.671   1.923   1.288 -0.0324  0.0948 -1.1018
   88MOL   H46844142   6.411   1.833   1.426  0.4761  0.1252  0.5031
   88MOL   H46944143   6.455   1.767   1.284  0.7802 -0.8092  1.1807
   88MOL   H47044144   6.672   1.672   1.407 -0.3296  0.3919 -0.9151
   88MOL   H47144145   6.617   1.760   1.553  0.5934 -0.3008  0.6023
   88MOL   H47244146   6.497   1.525   1.427  1.7921 -1.6421  0.4135
   88MOL   H47344147   6.581   1.521   1.571 -0.2039  1.1031  1.7319
   88MOL   H47444148   6.359   1.685   1.664 -1.1872 -0.9898  0.3499
   88MOL   H47544149   6.306   1.641   1.504 -0.1532  2.2076  0.2308
   88MOL   H47644150   6.341   1.522   1.629  2.4429 -1.9353 -1.5884
   88MOL   C47744151   6.279   2.038   0.969  0.4224  1.1579 -0.0914
   88MOL   C47844152   6.204   2.161   0.925  0.1905 -0.0327  0.3192
   88MOL   O47944153   6.220   2.266   1.026  0.3756  0.2476 -0.2572
   88MOL   C48044154   6.149   2.379   0.992  0.4247 -1.1554 -0.2604
   88MOL   C48144155   6.186   2.490   1.088  0.4123 -0.0149  0.3717
   88MOL   C48244156   6.121   2.476   1.230  0.6793  0.2515 -0.1655
   88MOL   C48344157   6.127   2.599   1.315 -0.0674  0.5484  0.9362
   88MOL   C48444158   6.033   2.598   1.427  0.3247 -0.3896 -0.5707
   88MOL   C48544159   6.052   2.733   1.489 -0.1355  0.2242  0.7682
   88MOL   H48644160   6.271   1.956   0.897 -1.6272 -1.2789  2.8135
   88MOL   H48744161   6.228   2.004   1.059  1.8981 -1.9375 -0.3706
   88MOL   H48844162   6.246   2.190   0.829  0.9292  0.1481  0.6988
   88MOL   H48944163   6.041   2.367   0.982  0.1264  2.3668 -2.0376
   88MOL   H49044164   6.181   2.411   0.892  0.5161  0.0982  0.1586
   88MOL   H49144165   6.175   2.589   1.043  1.0584  0.2852  0.8478
   88MOL   H49244166   6.294   2.489   1.101  0.4813  0.5321 -0.1120
   88MOL   H49344167   6.021   2.439   1.208  2.0360 -3.5018 -0.2867
   88MOL   H49444168   6.171   2.394   1.280  1.0255  0.3095 -0.4101
   88MOL   H49544169   6.230   2.616   1.347  0.0298 -0.4115  1.1592
   88MOL   H49644170   6.109   2.686   1.251  1.5539 -1.3272 -2.2295
   88MOL   H49744171   5.930   2.578   1.399  0.3947 -0.1863 -0.9653
   88MOL   H49844172   6.072   2.524   1.498  1.5731 -1.4055 -2.2662
   88MOL   H49944173   6.158   2.747   1.506  0.4378 -1.5607 -1.1468
   88MOL   H50044174   6.012   2.801   1.414  2.9814  0.5128 -0.6913
   88MOL   H50144175   5.990   2.750   1.577  0.0987 -0.0494  0.9861
   88MOL   H50244176   6.101   2.124   0.920  0.8023 -1.6413 -0.8631
   89MOL     C144177   5.912   1.366   7.378  0.2090  0.8680 -0.4071
   89MOL     C244178   5.804   1.473   7.353  0.2152 -0.4886  0.1515
   89MOL     O344179   5.768   1.524   7.485 -0.1273 -0.3356  1.0266
   89MOL     C444180   5.859   1.609   7.539  0.0819 -0.1493  0.2271
   89MOL     C544181   5.792   1.674   7.659 -0.0123  0.2562 -0.6674
   89MOL     C644182   5.884   1.771   7.735  0.2604  0.1185  0.4735
   89MOL     C744183   5.819   1.822   0.080 -0.0342 -0.5848 -0.0918
   89MOL     C844184   5.911   1.888   0.183 -0.4939  0.6577 -0.5716
   89MOL     C944185   5.852   1.887   0.324 -0.0340  0.0483  0.6403
   89MOL    H1044186   6.010   1.414   7.382  1.4434 -1.4426 -1.5478
   89MOL    H1144187   5.883   1.297   7.458  1.2710 -1.0463 -1.6303
   89MOL    H1244188   5.830   1.556   7.287 -1.5052 -0.7039 -0.8132
   89MOL    H1344189   5.891   1.694   7.479 -0.1192  0.0714  0.4294
   89MOL    H1444190   5.953   1.569   7.578 -1.1248 -4.4042 -0.9047
   89MOL    H1544191   5.757   1.597   7.729 -0.8527 -1.0828 -2.5313
   89MOL    H1644192   5.696   1.719   7.635  1.0940  3.8248  1.2746
   89MOL    H1744193   5.974   1.720   7.770  1.0823  0.9033 -0.4890
   89MOL    H1844194   5.918   1.852   7.671  1.8335 -1.8011 -1.2118
   89MOL    H1944195   5.734   1.887   0.060  0.4802  0.3127  0.6101
   89MOL    H2044196   5.766   1.736   0.121 -0.7044 -1.1188 -2.0091
   89MOL    H2144197   5.916   1.994   0.158  0.3353  0.8063  0.2290
   89MOL    H2244198   6.014   1.855   0.173 -0.8357 -0.1845 -1.3828
   89MOL    H2344199   5.764   1.952   0.318 -0.5174 -0.6783 -0.3559
   89MOL    H2444200   5.821   1.788   0.360  1.3645 -1.4537 -2.1639
   89MOL    H2544201   5.910   1.925   0.408  2.9052 -0.5676 -1.0444
   89MOL    H2644202   5.933   1.303   7.292  1.2250  2.1683 -1.1210
   89MOL    C2744203   5.677   1.426   7.275  0.3644 -0.5864  0.2548
   89MOL    C2844204   5.557   1.522   7.275  0.4986  0.2074  0.6509
   89MOL    O2944205   5.595   1.640   7.209 -0.0841 -0.5978  0.0990
   89MOL    C3044206   5.606   1.750   7.300  0.1083 -0.2122  0.2196
   89MOL    C3144207   5.664   1.865   7.215 -0.2924  0.4296 -0.5992
   89MOL    C3244208   5.564   1.915   7.109  0.5269 -0.3018  0.5738
   89MOL    C3344209   5.615   1.914   6.961  0.1128  0.0366  0.8579
   89MOL    C3444210   5.506   1.949   6.858 -1.2557  0.8375  0.4099
   89MOL    C3544211   5.556   1.942   6.712 -0.2385  0.5334 -0.5296
   89MOL    H3644212   5.703   1.398   7.173 -2.3934  1.3113 -1.0496
   89MOL    H3744213   5.632   1.337   7.320 -2.7921  0.5994 -0.3821
   89MOL    H3844214   5.529   1.551   7.376 -2.4689 -0.6144  0.1003
   89MOL    H3944215   5.662   1.730   7.391 -2.0632  0.6326  1.7880
   89MOL    H4044216   5.503   1.775   7.327  0.6217  2.6454 -0.2450
   89MOL    H4144217   5.765   1.853   7.175  0.0323 -0.1621  0.3919
   89MOL    H4244218   5.675   1.948   7.285  2.2687  0.6268 -1.1730
   89MOL    H4344219   5.470   1.861   7.114  0.0855  0.1239 -2.0960
   89MOL    H4444220   5.527   2.013   7.139  0.1227 -0.0538 -0.6728
   89MOL    H4544221   5.701   1.978   6.939  0.0057 -0.2001 -0.2319
   89MOL    H4644222   5.659   1.816   6.941  0.5782  0.3214  0.4715
   89MOL    H4744223   5.429   1.872   6.864  0.9794 -1.5182 -0.3650
   89MOL    H4844224   5.469   2.051   6.870 -1.0714  1.0438 -0.7366
   89MOL    H4944225   5.594   1.842   6.689 -0.6423  0.3955 -0.5987
   89MOL    H5044226   5.483   1.981   6.641  0.2469  1.7775 -0.3633
   89MOL    H5144227   5.646   2.001   6.695 -0.1055  0.7466  0.8773
   89MOL    C5244228   5.446   1.454   7.191  0.4500  0.4069  0.7606
   89MOL    C5344229   5.327   1.542   7.142  0.7224  0.5083  0.0286
   89MOL    O5444230   5.263   1.476   7.025  0.1508 -0.6460  0.0171
   89MOL    C5544231   5.254   1.558   6.908  0.0385  0.0789  0.5632
   89MOL    C5644232   5.367   1.525   6.810 -0.0146 -0.0226 -0.6590
   89MOL    C5744233   5.336   1.604   6.682 -0.2111  1.0135  0.6805
   89MOL    C5844234   5.444   1.580   6.579  0.0306  0.1981 -0.5405
   89MOL    C5944235   5.432   1.653   6.441  0.1762 -0.0422 -1.0214
   89MOL    C6044236   5.298   1.616   6.370 -0.1612  0.1054  0.0875
   89MOL    H6144237   5.407   1.372   7.252  1.5393  0.2348  1.2293
   89MOL    H6244238   5.479   1.401   7.101  0.3748  1.6993 -0.0499
   89MOL    H6344239   5.372   1.636   7.108  1.8712 -0.3983 -0.9708
   89MOL    H6444240   5.259   1.661   6.945  2.2988 -0.6178  2.3521
   89MOL    H6544241   5.160   1.538   6.858  0.8842 -3.0698  0.1226
   89MOL    H6644242   5.375   1.421   6.780  2.4787 -0.2163  0.5418
   89MOL    H6744243   5.468   1.546   6.845  0.5102 -4.7832  0.9792
   89MOL    H6844244   5.239   1.591   6.634  0.1876  1.5988 -0.3014
   89MOL    H6944245   5.342   1.712   6.698  1.9004  0.9694  0.2966
   89MOL    H7044246   5.544   1.602   6.615  0.0340  1.1122 -1.0711
   89MOL    H7144247   5.463   1.473   6.577 -2.1499 -0.2959  2.2800
   89MOL    H7244248   5.428   1.761   6.451  0.6267 -0.3228  3.4188
   89MOL    H7344249   5.516   1.625   6.378  1.0620 -0.2553  0.2339
   89MOL    H7444250   5.214   1.654   6.427  0.2028  1.2352 -0.1243
   89MOL    H7544251   5.290   1.655   6.269 -0.1649  0.5898  0.2730
   89MOL    H7644252   5.292   1.507   6.368  0.4294  0.0856 -3.8420
   89MOL    C7744253   5.220   1.550   7.248  0.0327  0.0222 -0.0412
   89MOL    C7844254   5.142   1.674   7.228  0.5164 -0.1982 -0.3537
   89MOL    O7944255   5.125   1.731   7.360  0.0001 -0.0208  0.3902
   89MOL    C8044256   5.143   1.867   7.353  0.3223 -0.1538  1.1926
   89MOL    C8144257   5.086   1.939   7.478 -0.4348  0.4377  0.7466
   89MOL    C8244258   5.135   2.085   7.486  0.8234  0.1514  0.1783
   89MOL    C8344259   5.120   2.150   7.620 -0.6195  0.3213  0.3545
   89MOL    C8444260   5.174   2.290   7.621 -0.2285 -0.4874  0.0547
   89MOL    C8544261   5.253   2.338   7.750 -0.0209  0.2326  0.2561
   89MOL    H8644262   5.273   1.552   7.343 -0.0778 -0.4107  0.0273
   89MOL    H8744263   5.165   1.457   7.251 -0.0106  0.0525  0.0957
   89MOL    H8844264   5.200   1.738   7.162  1.0677 -1.2866 -0.9309
   89MOL    H8944265   5.095   1.926   7.274  0.4033 -1.4200  0.1897
   89MOL    H9044266   5.250   1.890   7.351  0.2586  0.0270 -0.3948
   89MOL    H9144267   5.134   1.884   7.559 -0.1065 -1.4951 -0.7030
   89MOL    H9244268   4.978   1.925   7.477 -0.3987  0.1405  0.8239
   89MOL    H9344269   5.237   2.092   7.448  1.2999 -0.5033  1.3257
   89MOL    H9444270   5.089   2.149   7.410  0.8757  0.4013  0.3593
   89MOL    H9544271   5.016   2.133   7.648 -0.9697 -0.3342 -1.2918
   89MOL    H9644272   5.171   2.089   7.695  2.0759  0.8066 -1.0096
   89MOL    H9744273   5.257   2.289   7.550  1.4521  1.6670  1.9055
   89MOL    H9844274   5.091   2.354   7.591 -2.6128 -3.1246  0.7505
   89MOL    H9944275   5.182   2.367   0.049  0.0433  1.3676 -0.0915
   89MOL   H10044276   5.316   2.256   0.006  0.2577  1.0111  1.6193
   89MOL   H10144277   5.315   2.426   7.734  1.7546 -1.6797 -4.1288
   89MOL   C10244278   5.003   1.651   7.164 -0.2070  0.5692 -0.8326
   89MOL   C10344279   4.922   1.765   7.107 -0.1862  0.1379 -0.2774
   89MOL   O10444280   4.986   1.792   6.988  0.2702 -0.3814 -0.1626
   89MOL   C10544281   4.950   1.918   6.930 -0.0554 -0.1326  0.1485
   89MOL   C10644282   5.050   1.958   6.822  0.9452 -0.2131 -0.8734
   89MOL   C10744283   5.012   2.085   6.742 -0.3940 -0.2383 -0.8139
   89MOL   C10844284   5.120   2.111   6.642 -0.1843 -0.2026  0.2385
   89MOL   C10944285   5.139   2.013   6.522 -0.4464  0.2464 -0.0323
   89MOL   C11044286   5.232   2.073   6.422 -0.5067  0.1033  0.8559
   89MOL   H11144287   5.018   1.574   7.089  0.0095  0.4948 -0.7141
   89MOL   H11244288   4.952   1.595   7.243  1.5456  0.5552  0.3122
   89MOL   H11344289   4.919   1.840   7.185 -1.5705 -1.1728  0.9622
   89MOL   H11444290   4.951   1.999   7.003  0.4199 -0.1149  0.1234
   89MOL   H11544291   4.855   1.919   6.876  0.5501  0.2941 -0.9177
   89MOL   H11644292   5.056   1.870   6.759  2.1558  0.2083 -1.3674
   89MOL   H11744293   5.153   1.958   6.858  1.5036  2.7842 -2.2641
   89MOL   H11844294   4.915   2.071   6.693 -0.9451  1.8359 -0.3540
   89MOL   H11944295   4.998   2.160   6.819  0.2113 -0.3737 -0.5708
   89MOL   H12044296   5.092   2.205   6.594 -2.7276 -1.4708 -0.8698
   89MOL   H12144297   5.220   2.123   6.683 -0.0311  0.5564 -0.3349
   89MOL   H12244298   5.180   1.919   6.559 -3.7752 -1.0840  0.4159
   89MOL   H12344299   5.045   1.981   6.479  0.6833  0.4595 -2.7503
   89MOL   H12444300   5.167   2.135   6.360 -2.2408 -1.0008  1.5350
   89MOL   H12544301   5.306   2.130   6.478 -0.9110  1.4614  0.0247
   89MOL   H12644302   5.278   2.002   6.353 -0.9175  0.4455  0.2155
   89MOL   C12744303   4.774   1.721   7.083 -0.2300 -0.6479  0.1461
   89MOL   C12844304   4.669   1.792   7.170  0.0465 -0.5711  0.1991
   89MOL   O12944305   4.674   1.930   7.131  0.4606 -0.4675  0.6257
   89MOL   C13044306   4.578   2.014   7.184  0.4494 -0.0394  0.4947
   89MOL   C13144307   4.613   2.160   7.156  0.0686 -0.0347 -0.2610
   89MOL   C13244308   4.590   2.183   7.012 -0.0925 -0.8749 -0.2807
   89MOL   C13344309   4.554   2.330   6.990  0.3320 -0.1282 -0.2336
   89MOL   C13444310   4.550   2.361   6.839  0.0493 -0.5173 -0.1202
   89MOL   C13544311   4.530   2.509   6.802 -0.1499  0.6968 -0.3743
   89MOL   H13644312   4.748   1.739   6.979  0.7842 -1.4524 -0.2557
   89MOL   H13744313   4.761   1.614   7.099 -0.7801 -0.5657  0.2345
   89MOL   H13844314   4.570   1.763   7.134 -1.1130  0.7466  2.2121
   89MOL   H13944315   4.584   2.007   7.293  1.1927 -3.6971  0.2871
   89MOL   H14044316   4.473   1.999   7.160  0.7613 -0.1952 -0.7894
   89MOL   H14144317   4.717   2.179   7.183 -0.0734  0.5486 -0.1154
   89MOL   H14244318   4.553   2.221   7.224 -0.3522 -0.8747  0.1314
   89MOL   H14344319   4.680   2.161   6.955  0.7908 -0.0586  0.7990
   89MOL   H14444320   4.496   2.133   6.988  1.1382 -2.8990 -0.9989
   89MOL   H14544321   4.455   2.351   7.030  0.1328 -2.9470  0.8332
   89MOL   H14644322   4.626   2.391   7.045  0.8672 -1.9496  1.1350
   89MOL   H14744323   4.646   2.335   6.795  0.2801  0.9192 -0.4962
   89MOL   H14844324   4.478   2.302   6.783 -0.5792  0.3288 -0.2112
   89MOL   H14944325   4.586   2.575   6.869 -1.7238  0.1448  1.5407
   89MOL   H15044326   4.545   2.525   6.695  0.0548 -1.5235 -0.7130
   89MOL   H15144327   4.427   2.527   6.831  0.5271  0.6329  2.1766
   89MOL   C15244328   4.677   1.772   7.319 -0.8477 -0.1401 -0.0633
   89MOL   C15344329   4.674   1.618   7.366 -0.2183 -0.0227 -0.4687
   89MOL   O15444330   4.690   1.622   7.502  0.1126  0.1950 -0.3691
   89MOL   C15544331   4.780   1.514   7.558  0.9411 -0.0721  0.1836
   89MOL   C15644332   4.764   1.527   7.711  0.0274  0.6187  0.7982
   89MOL   C15744333   4.623   1.509   7.763 -0.1386 -0.5664  0.1491
   89MOL   C15844334   4.620   1.542   0.130 -0.2845 -0.3987  0.0162
   89MOL   C15944335   4.497   1.603   0.194  0.0198  0.6707 -0.1925
   89MOL   C16044336   4.369   1.526   0.155  0.0153  0.0178 -0.1446
   89MOL   H16144337   4.764   1.820   7.363 -1.0577  1.3062 -1.1940
   89MOL   H16244338   4.600   1.821   7.379 -1.4543  1.8453 -2.3792
   89MOL   H16344339   4.759   1.564   7.323 -0.4801 -0.8594  0.0451
   89MOL   H16444340   4.881   1.524   7.517  0.2915  0.6671 -1.2827
   89MOL   H16544341   4.745   1.416   7.525  1.5133  0.4932 -2.2641
   89MOL   H16644342   4.786   1.630   7.739 -2.4609  1.0475  1.3544
   89MOL   H16744343   4.832   1.460   7.762 -0.4283 -0.7787 -0.4130
   89MOL   H16844344   4.554   1.572   7.707 -0.4662 -1.3588 -0.3498
   89MOL   H16944345   4.582   1.410   7.743 -2.6578 -0.0876  2.5968
   89MOL   H17044346   4.639   1.445   0.177  0.1264 -0.1250  0.4168
   89MOL   H17144347   4.700   1.607   0.165 -0.6854  0.3151 -0.3888
   89MOL   H17244348   4.498   1.603   0.303  0.9317 -1.0267 -0.1934
   89MOL   H17344349   4.485   1.707   0.163 -3.9942  0.4362  0.2546
   89MOL   H17444350   4.278   1.564   0.203 -0.0148  1.2711 -1.1587
   89MOL   H17544351   4.347   1.529   0.048  0.4575  1.4786 -0.2002
   89MOL   H17644352   4.365   1.422   0.188 -2.5150 -0.6970 -2.4493
   89MOL   C17744353   4.546   1.535   7.351  0.1874 -0.0206 -0.1832
   89MOL   C17844354   4.551   1.445   7.225  0.4962 -0.2401  0.6991
   89MOL   O17944355   4.650   1.351   7.243 -0.7417  0.1711 -0.2879
   89MOL   C18044356   4.719   1.314   7.124  0.5686 -0.3496 -0.4594
   89MOL   C18144357   4.863   1.273   7.166 -0.5197  0.1833  0.4494
   89MOL   C18244358   4.959   1.270   7.043  0.4120  0.1610  0.3198
   89MOL   C18344359   5.102   1.204   7.061  0.4665  0.1599 -0.5911
   89MOL   C18444360   5.170   1.162   6.936 -0.2471 -0.6818 -0.3616
   89MOL   C18544361   5.121   1.031   6.882 -0.0918  0.4290 -0.9046
   89MOL   H18644362   4.530   1.467   7.435  0.2527 -1.7314 -1.5122
   89MOL   H18744363   4.456   1.596   7.343 -0.8104 -1.2982  1.0457
   89MOL   H18844364   4.563   1.510   7.138 -0.4394  1.3773  1.7705
   89MOL   H18944365   4.733   1.389   7.047  2.2778  2.5963  2.5648
   89MOL   H19044366   4.668   1.226   7.085 -2.8650  1.8966 -1.2015
   89MOL   H19144367   4.855   1.179   7.220  1.3040  0.1150  0.6372
   89MOL   H19244368   4.910   1.336   7.242  0.0755 -1.2969  1.3209
   89MOL   H19344369   4.908   1.213   6.966  0.3646 -0.8931  1.1274
   89MOL   H19444370   4.972   1.373   7.010 -1.4804  0.1333 -0.5676
   89MOL   H19544371   5.162   1.272   7.121  0.0763  0.7749 -0.8978
   89MOL   H19644372   5.087   1.116   7.124 -1.9426  0.9012 -0.0745
   89MOL   H19744373   5.173   1.249   6.871  2.4977 -1.6225 -1.5642
   89MOL   H19844374   5.276   1.150   6.958 -0.1022  2.3324  0.8108
   89MOL   H19944375   5.020   1.025   6.843 -0.1954 -3.4364 -0.2454
   89MOL   H20044376   5.191   1.015   6.800 -2.1399  0.0247 -2.5948
   89MOL   H20144377   5.138   0.955   6.959  2.8173 -0.2928 -2.1904
   89MOL   C20244378   4.416   1.370   7.207  1.2400  0.0775 -0.2698
   89MOL   C20344379   4.376   1.357   7.059 -0.0386 -0.0299 -0.3072
   89MOL   O20444380   4.375   1.487   6.994 -0.1840  0.0380  0.3341
   89MOL   C20544381   4.358   1.480   6.847  0.2755  0.0779  0.4917
   89MOL   C20644382   4.378   1.624   6.794  0.2432 -0.1933  0.4754
   89MOL   C20744383   4.536   1.648   6.794  0.3187 -0.3418 -0.4401
   89MOL   C20844384   4.563   1.793   6.747  0.9778  0.0795  1.2084
   89MOL   C20944385   4.568   1.811   6.594  0.8609 -0.1966  0.4028
   89MOL   C21044386   4.603   1.956   6.533 -0.0573  0.5999  0.3342
   89MOL   H21144387   4.432   1.273   7.255  2.9680  0.6203  0.3049
   89MOL   H21244388   4.334   1.413   7.264  0.0701 -1.4947 -0.7499
   89MOL   H21344389   4.454   1.298   7.010  0.3149  0.5323 -0.4231
   89MOL   H21444390   4.252   1.454   6.838  0.7628 -2.5720  2.1896
   89MOL   H21544391   4.426   1.409   6.802 -1.4000 -2.3679  1.7171
   89MOL   H21644392   4.330   1.699   6.856  1.0410  0.4219  0.3744
   89MOL   H21744393   4.344   1.631   6.690  0.0327  1.0287  0.6090
   89MOL   H21844394   4.566   1.636   6.898  0.5074  1.8414 -0.2340
   89MOL   H21944395   4.590   1.573   6.736 -2.5771 -1.4747 -1.7526
   89MOL   H22044396   4.486   1.861   6.786  2.1941  1.1999  1.7097
   89MOL   H22144397   4.651   1.831   6.799  0.6033 -0.2492  2.0960
   89MOL   H22244398   4.655   1.756   6.559 -0.3764 -2.1825  0.3998
   89MOL   H22344399   4.486   1.758   6.545  1.8322 -1.3732  0.0525
   89MOL   H22444400   4.537   2.033   6.571  1.1006  1.1924  1.1591
   89MOL   H22544401   4.707   1.975   6.559 -0.0214  0.9193 -0.0393
   89MOL   H22644402   4.596   1.959   6.424 -3.8487  1.2391  0.5208
   89MOL   C22744403   4.244   1.276   7.049 -0.4920 -0.4795 -0.3733
   89MOL   C22844404   4.247   1.126   7.095  0.0648  0.3089 -0.5463
   89MOL   O22944405   4.120   1.071   7.062 -0.0786  0.3212  0.2986
   89MOL   C23044406   4.027   1.054   7.172 -0.0506  0.1028 -0.5889
   89MOL   C23144407   3.903   0.980   7.114 -0.7954 -0.1749 -0.6577
   89MOL   C23244408   3.935   0.855   7.029  0.1307 -0.9293 -0.2875
   89MOL   C23344409   3.814   0.767   6.994  0.2700  0.2592  0.4671
   89MOL   C23444410   3.857   0.650   6.899  0.0420  0.2535 -0.3703
   89MOL   C23544411   3.741   0.579   6.832 -0.0296 -0.0460 -0.1744
   89MOL   H23644412   4.169   1.333   7.105  0.9387  0.9703  0.1192
   89MOL   H23744413   4.203   1.273   6.948 -0.5243 -1.7540 -0.3217
   89MOL   H23844414   4.260   1.131   7.203 -1.9853 -1.3618 -0.1946
   89MOL   H23944415   3.989   1.147   7.213 -0.6799 -1.0818  1.5651
   89MOL   H24044416   4.070   1.001   7.256 -0.4635  2.4583  1.1785
   89MOL   H24144417   3.851   1.044   7.042 -0.3005  2.8971  1.6477
   89MOL   H24244418   3.820   0.947   7.177 -1.1858  0.3247 -0.9003
   89MOL   H24344419   3.981   0.893   6.938 -0.6179 -1.5965 -0.9635
   89MOL   H24444420   4.007   0.788   7.075  1.3907  0.4109 -0.2809
   89MOL   H24544421   3.763   0.730   7.083  1.7047  0.2662  1.3037
   89MOL   H24644422   3.749   0.834   6.937  0.7278 -1.0232 -1.6127
   89MOL   H24744423   3.924   0.686   6.821  1.0707 -2.5221 -0.8561
   89MOL   H24844424   3.922   0.588   6.961  0.1539  0.3329 -0.4071
   89MOL   H24944425   3.698   0.628   6.745  0.5081  0.5555 -0.1025
   89MOL   H25044426   3.776   0.491   6.777 -2.3223 -1.2072  0.1616
   89MOL   H25144427   3.668   0.541   6.903  1.0772 -0.6434  0.6511
   89MOL   C25244428   4.343   1.041   7.018  0.3663  0.1356 -0.0483
   89MOL   C25344429   4.364   0.907   7.088  0.5313  0.7218 -0.9901
   89MOL   O25444430   4.414   0.909   7.221  0.1252  0.0072  0.0456
   89MOL   C25544431   4.546   0.961   7.248  0.2047 -0.3796 -0.3206
   89MOL   C25644432   4.554   1.007   7.396  0.2473 -0.1831  0.1908
   89MOL   C25744433   4.695   1.054   7.439  0.8459 -0.5921  0.1586
   89MOL   C25844434   4.717   1.059   7.592 -0.2912 -0.3876 -0.1472
   89MOL   C25944435   4.868   1.072   7.621 -0.6748  0.0876 -0.0607
   89MOL   C26044436   4.893   1.119   7.760 -0.1854 -0.2458  0.4845
   89MOL   H26144437   4.306   1.034   6.916  1.0534  0.5824 -0.3293
   89MOL   H26244438   4.439   1.088   6.999 -0.5733  1.2397 -2.2617
   89MOL   H26344439   4.265   0.867   7.112  1.5212 -0.6971  0.7959
   89MOL   H26444440   4.562   1.057   7.199  1.9925 -0.4758  0.0309
   89MOL   H26544441   4.625   0.897   7.208  2.5743  2.6141 -0.5826
   89MOL   H26644442   4.521   0.927   7.462 -1.9379 -1.0145 -1.8326
   89MOL   H26744443   4.488   1.090   7.420 -1.1692 -1.0713 -0.5635
   89MOL   H26844444   4.768   0.992   7.388  0.5910 -0.4846 -0.3361
   89MOL   H26944445   4.716   1.154   7.402  1.1149 -0.1757  1.4011
   89MOL   H27044446   4.666   1.147   7.631  0.0418  0.1801 -0.9808
   89MOL   H27144447   4.672   0.971   7.637 -1.9110 -0.0060 -1.0027
   89MOL   H27244448   4.922   0.979   7.608 -1.4199 -0.7875  2.7825
   89MOL   H27344449   4.910   1.152   7.559 -2.6657  0.2274 -1.2930
   89MOL   H27444450   4.886   1.034   0.049 -0.1417 -1.2868 -0.8015
   89MOL   H27544451   4.995   1.153   0.002 -0.1585 -0.1952  0.2665
   89MOL   H27644452   4.836   1.210   0.002 -0.6539 -0.8004  1.6676
   89MOL   C27744453   4.438   0.796   7.005  0.1121  0.3515  0.2663
   89MOL   C27844454   4.351   0.728   6.899 -0.6612  0.9007 -1.0470
   89MOL   O27944455   4.358   0.814   6.788  0.0598  0.0216  0.0192
   89MOL   C28044456   4.242   0.800   6.704 -0.1011  0.1650  0.1809
   89MOL   C28144457   4.251   0.909   6.595  0.0145  0.5740  0.0544
   89MOL   C28244458   4.354   0.880   6.480 -0.3763  0.4192  0.8417
   89MOL   C28344459   4.315   0.769   6.374 -0.0941  0.0440  0.0027
   89MOL   C28444460   4.422   0.693   6.303 -0.0434 -0.4347 -0.2953
   89MOL   C28544461   4.485   0.590   6.397 -0.3384  0.0186  0.1791
   89MOL   H28644462   4.524   0.841   6.954  0.1363 -0.4587 -0.4290
   89MOL   H28744463   4.489   0.728   7.074  0.3920 -1.0281 -1.2681
   89MOL   H28844464   4.247   0.719   6.933 -0.2749  0.6125  0.0952
   89MOL   H28944465   4.149   0.804   6.760 -0.5683 -0.7618 -0.5221
   89MOL   H29044466   4.237   0.705   6.651 -2.0898 -0.6862  1.8199
   89MOL   H29144467   4.269   1.006   6.642  1.5168  0.3395 -0.0446
   89MOL   H29244468   4.156   0.915   6.542  0.1578  0.1028 -0.2546
   89MOL   H29344469   4.374   0.974   6.429 -1.3676 -0.3576 -1.0107
   89MOL   H29444470   4.452   0.855   6.522 -0.1592  2.2960  1.4748
   89MOL   H29544471   4.257   0.693   6.426 -0.7156  2.5596  3.1275
   89MOL   H29644472   4.252   0.813   6.297  0.7440  0.1454 -0.6249
   89MOL   H29744473   4.374   0.652   6.214 -0.5862 -0.7926  0.1502
   89MOL   H29844474   4.504   0.756   6.269 -1.8709  2.8605  1.1846
   89MOL   H29944475   4.553   0.636   6.468  0.6069 -0.0273 -0.6664
   89MOL   H30044476   4.405   0.533   6.444 -1.7963  0.4545 -1.7005
   89MOL   H30144477   4.551   0.515   6.351 -1.2356 -0.4797 -0.3126
   89MOL   C30244478   4.392   0.583   6.869  0.0487  0.2480  0.4526
   89MOL   C30344479   4.380   0.483   6.986  0.0925  0.3388  0.2391
   89MOL   O30444480   4.473   0.373   6.974 -0.7986 -0.3960 -0.2936
   89MOL   C30544481   4.611   0.404   7.006 -0.6637  0.5389  0.2995
   89MOL   C30644482   4.671   0.261   7.023 -0.1790 -0.8099  0.2298
   89MOL   C30744483   4.604   0.184   7.136 -0.2400  0.5259 -0.1363
   89MOL   C30844484   4.679   0.055   7.175 -0.4428  0.3920 -0.1713
   89MOL   C30944485   4.641   7.778   7.306 -0.5088  0.8698 -0.6338
   89MOL   C31044486   4.702   7.634   7.325  0.1531 -0.1209  0.1690
   89MOL   H31144487   4.351   0.545   6.775 -0.2733  0.2000  0.6107
   89MOL   H31244488   4.496   0.595   6.838  0.2585  2.3812  1.8832
   89MOL   H31344489   4.407   0.535   7.078  1.1727 -1.9262  1.2422
   89MOL   H31444490   4.619   0.462   7.098  0.5537  1.0477 -0.1076
   89MOL   H31544491   4.659   0.464   6.928  0.4722  2.0367  2.0964
   89MOL   H31644492   4.778   0.276   7.032 -0.2767  0.6611 -0.9635
   89MOL   H31744493   4.654   0.216   6.926  0.7934  0.2175 -0.4276
   89MOL   H31844494   4.607   0.248   7.224 -1.5440 -0.8742  0.9423
   89MOL   H31944495   4.497   0.167   7.121 -0.2019 -0.3727  0.5749
   89MOL   H32044496   4.666   7.758   7.098 -4.2142  2.1581 -1.4093
   89MOL   H32144497   4.785   0.081   7.166 -0.6880  1.4100 -0.2354
   89MOL   H32244498   4.679   0.071   7.379  2.6942 -0.0433 -1.3329
   89MOL   H32344499   4.533   7.776   7.318 -0.5263 -0.6692 -0.9683
   89MOL   H32444500   4.671   7.595   7.422  1.4595 -0.4456  0.4684
   89MOL   H32544501   4.656   7.560   7.260 -0.2095 -0.8007  1.1745
   89MOL   H32644502   4.811   7.636   7.315  0.2517  0.7160  1.2667
   89MOL   C32744503   4.231   0.431   7.011 -0.2512  0.8649  0.2519
   89MOL   C32844504   4.201   0.395   7.157  0.6474  0.2167 -0.3550
   89MOL   O32944505   4.201   0.520   7.220  0.5138  0.3268  0.3714
   89MOL   C33044506   4.268   0.523   7.344  1.0200 -0.2950  0.0114
   89MOL   C33144507   4.238   0.654   7.416  0.2634 -0.5055  0.3661
   89MOL   C33244508   4.310   0.653   7.553  0.4219  0.6693 -0.1732
   89MOL   C33344509   4.286   0.789   7.622  0.0299 -0.7195  0.1654
   89MOL   C33444510   4.355   0.820   7.750 -0.6952 -0.0356  0.2639
   89MOL   C33544511   4.341   0.975   0.009  0.1794  0.0329 -0.1577
   89MOL   H33644512   4.208   0.345   6.948  1.6128  0.1949  0.4369
   89MOL   H33744513   4.170   0.516   6.980 -2.5807 -0.4795  1.0277
   89MOL   H33844514   4.279   0.331   7.198  1.2844  0.3296 -1.3519
   89MOL   H33944515   4.375   0.511   7.328  0.9846  1.3447 -1.5303
   89MOL   H34044516   4.238   0.438   7.406  1.3672 -1.5046 -1.4683
   89MOL   H34144517   4.131   0.666   7.432  0.7026  1.3064  2.2035
   89MOL   H34244518   4.276   0.729   7.348 -1.3366 -1.2014 -1.3312
   89MOL   H34344519   4.281   0.578   7.626  1.5120 -0.4554 -0.8804
   89MOL   H34444520   4.415   0.644   7.526 -0.2258 -2.9342 -1.8529
   89MOL   H34544521   4.298   0.871   7.551 -2.0259  0.6889  1.3760
   89MOL   H34644522   4.179   0.790   7.646  0.2756  0.9987  1.2986
   89MOL   H34744523   4.305   0.762   0.051 -2.0532 -0.1077 -0.6240
   89MOL   H34844524   4.459   0.787   7.750 -1.2091 -1.7429 -2.1586
   89MOL   H34944525   4.384   0.998   0.106 -2.5827  0.8177  0.9245
   89MOL   H35044526   4.388   1.041   7.714 -0.0120  1.6361  1.1359
   89MOL   H35144527   4.237   1.007   0.009 -0.1923 -1.1659  0.5471
   89MOL   C35244528   4.052   0.342   7.161  0.2985 -0.2121  0.3374
   89MOL   C35344529   4.024   0.197   7.106 -0.2090  0.4372  0.2922
   89MOL   O35444530   3.885   0.160   7.113 -0.3099 -0.1909  0.1766
   89MOL   C35544531   3.819   0.167   6.990  0.0785  0.5759  0.2365
   89MOL   C35644532   3.676   0.134   6.995  0.0464  0.6341 -0.0584
   89MOL   C35744533   3.593   0.256   7.000 -0.0595  0.5094  0.1501
   89MOL   C35844534   3.615   0.333   7.132 -0.0776 -0.0400 -0.4294
   89MOL   C35944535   3.503   0.437   7.146 -0.0047 -0.8210 -0.1443
   89MOL   C36044536   3.387   0.376   7.229 -0.0614 -0.6066  0.2885
   89MOL   H36144537   4.018   0.335   7.265 -0.1908 -1.2043  0.1161
   89MOL   H36244538   3.985   0.416   7.117  1.7203  0.0663 -1.3969
   89MOL   H36344539   4.055   0.188   7.001  2.2995  1.0374  0.9292
   89MOL   H36444540   3.863   0.083   6.936 -0.2610  0.2832  0.4153
   89MOL   H36544541   3.835   0.255   6.926  0.4585  0.1689 -0.2297
   89MOL   H36644542   3.658   0.080   7.088 -0.6042  0.9527  0.0030
   89MOL   H36744543   3.628   0.076   6.916 -2.5870  1.9466  0.5490
   89MOL   H36844544   3.611   0.317   6.911 -1.2269 -1.9881 -1.8847
   89MOL   H36944545   3.488   0.231   6.986  0.8740 -1.7011 -3.8421
   89MOL   H37044546   3.621   0.270   7.222  2.4047 -0.2665 -0.7016
   89MOL   H37144547   3.712   0.383   7.131 -0.7292  1.2179 -1.0110
   89MOL   H37244548   3.548   0.514   7.208  1.1507 -1.4734 -0.1524
   89MOL   H37344549   3.473   0.472   7.047 -0.3182 -3.2703 -0.9456
   89MOL   H37444550   3.363   0.274   7.200 -1.2542 -0.6007  1.1860
   89MOL   H37544551   3.413   0.371   7.335 -0.1038  1.1647  0.3960
   89MOL   H37644552   3.293   0.429   7.212 -0.7788 -1.3484  1.8234
   89MOL   C37744553   4.102   0.086   7.187 -0.5690 -0.2190  0.9745
   89MOL   C37844554   4.111   7.729   7.112  0.3540  0.3371  0.4940
   89MOL   O37944555   4.154   7.626   7.206 -0.3575 -0.5453  0.1296
   89MOL   C38044556   4.075   7.511   7.236 -0.1871 -0.0706 -0.3999
   89MOL   C38144557   4.158   7.422   7.337  0.7315  0.2039  0.0042
   89MOL   C38244558   4.116   7.281   7.351 -0.1253 -0.8065  0.4310
   89MOL   C38344559   4.210   7.203   7.450  0.0208 -0.5107  0.0045
   89MOL   C38444560   4.170   7.054   7.460  0.1130 -0.0178 -0.6184
   89MOL   C38544561   4.020   7.034   7.496 -0.8469 -0.0811  0.2712
   89MOL   H38644562   4.202   0.123   7.210 -0.0499 -1.7572  1.2447
   89MOL   H38744563   4.044   0.077   7.279 -1.3367 -0.9514  0.4301
   89MOL   H38844564   4.014   7.704   7.068  0.4852  1.4949 -0.4891
   89MOL   H38944565   4.062   7.444   7.151  0.6924 -0.0924 -0.5279
   89MOL   H39044566   3.976   7.544   7.268  0.1434  0.1718  0.3755
   89MOL   H39144567   4.151   7.470   7.435  1.0037  0.6597 -0.1980
   89MOL   H39244568   4.265   7.430   7.318  0.9445  0.4745  1.2762
   89MOL   H39344569   4.018   7.286   7.399 -1.0228 -0.2237 -1.4187
   89MOL   H39444570   4.096   7.239   7.253  0.1921  0.3260 -0.1240
   89MOL   H39544571   4.316   7.208   7.424 -0.0222  1.7976  0.2139
   89MOL   H39644572   4.194   7.240   7.551  0.5684 -0.5601  0.1121
   89MOL   H39744573   4.203   7.013   7.364  3.4182 -0.1297  0.4817
   89MOL   H39844574   4.242   7.012   7.531 -0.2685 -3.4833 -2.1794
   89MOL   H39944575   3.998   6.930   7.521  1.2849 -0.6248 -0.0099
   89MOL   H40044576   4.006   7.089   7.589  1.5316  2.1659 -0.6420
   89MOL   H40144577   3.945   7.075   7.430 -0.2480  0.0833 -0.3065
   89MOL   C40244578   4.208   7.718   6.988 -1.0534  0.8873 -0.5980
   89MOL   C40344579   4.225   7.572   6.918  0.2722 -0.0056 -0.4127
   89MOL   O40444580   4.322   7.576   6.812 -0.1606  0.7022 -0.1525
   89MOL   C40544581   4.451   7.624   6.835 -0.4120  0.4328 -0.5900
   89MOL   C40644582   4.519   7.582   6.703  0.0636  0.0772 -0.8332
   89MOL   C40744583   4.656   7.643   6.683  0.3692  0.2437  0.4962
   89MOL   C40844584   4.761   7.566   6.606  0.7762 -0.0931 -0.5115
   89MOL   C40944585   4.900   7.627   6.592 -0.0094  0.0581  0.2292
   89MOL   C41044586   4.899   7.735   6.480 -0.0263 -0.2263  0.1123
   89MOL   H41144587   4.302   7.768   7.012 -1.3036  0.9846  0.1959
   89MOL   H41244588   4.172   0.007   6.911  0.8548 -2.3899 -4.5644
   89MOL   H41344589   4.278   7.515   6.994 -0.5036  0.0461  0.1735
   89MOL   H41444590   4.495   7.587   6.927 -3.6208 -1.2716  0.3556
   89MOL   H41544591   4.451   7.732   6.847 -2.0816  0.2443  1.3586
   89MOL   H41644592   4.457   7.610   6.618  0.2544 -2.0762 -1.7304
   89MOL   H41744593   4.527   7.473   6.710  0.9618  0.2271  0.6505
   89MOL   H41844594   4.632   7.739   6.637 -0.6211 -0.4649 -0.4984
   89MOL   H41944595   4.699   7.659   6.782  1.5888  0.3173 -0.0289
   89MOL   H42044596   4.776   7.476   6.666  1.6441  1.0277  0.9539
   89MOL   H42144597   4.707   7.550   6.512 -3.3671  0.1656  1.7328
   89MOL   H42244598   4.928   7.678   6.684  2.0672  1.5512 -1.1711
   89MOL   H42344599   4.968   7.544   6.574  0.7157  0.3059  1.7434
   89MOL   H42444600   4.835   0.043   6.497 -2.3211 -1.1893 -3.1804
   89MOL   H42544601   4.998   7.772   6.456  0.4031 -2.0306 -1.0409
   89MOL   H42644602   4.861   7.682   6.393 -0.1138 -1.4156  0.8588
   89MOL   C42744603   4.098   7.503   6.857  0.3999  0.1510 -0.0225
   89MOL   C42844604   4.117   7.352   6.848  0.5286  0.2792 -0.5265
   89MOL   O42944605   4.026   7.284   6.934 -0.2526  0.1808  0.9025
   89MOL   C43044606   4.049   7.146   6.949  0.0096  0.2555 -0.6206
   89MOL   C43144607   3.953   7.089   7.051  0.7041 -0.6486 -0.5474
   89MOL   C43244608   3.979   6.946   7.083  0.2424  0.3765 -0.2026
   89MOL   C43344609   3.869   6.872   7.157 -0.1521  0.9124  0.2322
   89MOL   C43444610   3.742   6.860   7.071  0.1312  0.0856 -0.2627
   89MOL   C43544611   3.664   6.728   7.093  0.1744 -0.0931 -0.1713
   89MOL   H43644612   4.018   7.523   6.928 -0.3436  0.6555 -0.9829
   89MOL   H43744613   4.072   7.552   6.763 -2.0628  0.3554  0.7182
   89MOL   H43844614   4.215   7.313   6.876  1.3383  2.6625  0.0828
   89MOL   H43944615   4.153   7.127   6.978 -0.1924  0.6274  0.3801
   89MOL   H44044616   4.037   7.086   6.859  0.2689  0.0971 -0.5509
   89MOL   H44144617   3.853   7.094   7.008  1.4002  0.9979 -2.0809
   89MOL   H44244618   3.945   7.157   7.136  0.4737  1.8979 -2.5373
   89MOL   H44344619   4.003   6.889   6.994 -0.9651 -0.5613  0.0699
   89MOL   H44444620   4.065   6.939   7.151 -1.5674 -2.5426  1.9028
   89MOL   H44544621   3.906   6.773   7.184 -0.1534  0.6718 -0.6401
   89MOL   H44644622   3.861   6.914   7.257 -2.6606 -1.7377  1.1805
   89MOL   H44744623   3.677   6.946   7.088 -0.5688 -0.5575  0.3582
   89MOL   H44844624   3.769   6.859   6.966 -0.1438 -1.8163 -0.3333
   89MOL   H44944625   3.571   6.724   7.036 -0.7711  1.7643  1.1950
   89MOL   H45044626   3.724   6.640   7.070 -0.5231 -1.0527  1.5340
   89MOL   H45144627   3.643   6.716   7.200  2.6995  3.1291  0.7487
   89MOL   C45244628   4.101   7.304   6.695 -0.4892  0.4431 -0.1202
   89MOL   C45344629   4.224   7.327   6.598 -0.2371  0.6879 -0.0582
   89MOL   O45444630   4.191   7.288   6.464  0.1341  0.1763  0.1765
   89MOL   C45544631   4.182   7.402   6.376  0.0050 -0.1693  0.4234
   89MOL   C45644632   4.310   7.450   6.309  0.1186 -0.8007 -0.3549
   89MOL   C45744633   4.405   7.344   6.255 -0.7002  0.4586  0.2988
   89MOL   C45844634   4.534   7.401   6.196 -0.2791 -0.4637 -0.0837
   89MOL   C45944635   4.637   7.296   6.153 -0.7233  0.0636  0.2645
   89MOL   C46044636   4.704   7.214   6.265  0.6305 -0.1289 -0.3495
   89MOL   H46144637   4.066   7.203   6.671  0.0120  0.0654  0.7047
   89MOL   H46244638   4.016   7.361   6.657 -2.3522 -1.7147  0.6529
   89MOL   H46344639   4.265   7.428   6.600 -0.1609  0.6710 -0.6497
   89MOL   H46444640   4.125   7.482   6.421 -0.2074 -0.7461  1.1848
   89MOL   H46544641   4.114   7.369   6.296  0.1830 -0.1894  0.2794
   89MOL   H46644642   4.360   7.507   6.387 -0.8445  0.5249 -0.6985
   89MOL   H46744643   4.294   7.536   6.243  0.3539  0.1409  0.7955
   89MOL   H46844644   4.442   7.280   6.336 -0.9825  1.1655  0.9901
   89MOL   H46944645   4.348   7.284   6.185  2.7467 -0.8554 -1.5118
   89MOL   H47044646   4.503   7.458   6.109  1.1784  1.4483  0.5993
   89MOL   H47144647   4.572   7.481   6.259 -0.1082 -2.5463  2.5608
   89MOL   H47244648   4.586   7.223   6.090  2.1185 -2.9575  1.2984
   89MOL   H47344649   4.715   7.338   6.089 -0.8915 -1.1068 -0.7414
   89MOL   H47444650   4.652   7.129   6.308  2.3198 -1.3970 -0.7183
   89MOL   H47544651   4.787   7.160   6.217  0.0267 -0.4190 -1.0851
   89MOL   H47644652   4.738   7.281   6.343 -2.5254 -0.0334  0.9972
   89MOL   C47744653   4.352   7.248   6.644 -0.0978 -0.1340 -0.0583
   89MOL   C47844654   4.331   7.092   6.660  0.2656  0.1447 -0.2293
   89MOL   O47944655   4.455   7.052   6.721 -0.2976 -0.2330  0.7089
   89MOL   C48044656   4.451   6.922   6.754  0.3085 -0.2826 -0.2108
   89MOL   C48144657   4.569   6.897   6.850  0.9929 -0.1460  1.0342
   89MOL   C48244658   4.537   6.938   6.996  0.0193 -0.5361  0.9120
   89MOL   C48344659   4.528   7.088   7.018 -0.1841 -0.4407 -0.5448
   89MOL   C48444660   4.507   7.132   7.162 -0.0422  0.0898  0.1231
   89MOL   C48544661   4.447   7.274   7.164  0.1048  0.6168 -0.3164
   89MOL   H48644662   4.429   7.274   6.571 -1.2331 -0.2985 -1.3248
   89MOL   H48744663   4.401   7.283   6.736  0.7289  1.9336 -1.2560
   89MOL   H48844664   4.250   7.068   6.729  0.6540 -0.1088  0.1376
   89MOL   H48944665   4.471   6.853   6.672  0.0386 -0.0530 -0.4682
   89MOL   H49044666   4.353   6.898   6.796 -0.2328  1.7577 -0.2531
   89MOL   H49144667   4.659   6.942   6.809 -0.1834  2.4137  1.1949
   89MOL   H49244668   4.589   6.790   6.848  1.9390  0.0165  1.6299
   89MOL   H49344669   4.440   6.893   7.016 -0.6626  1.0143  1.1452
   89MOL   H49444670   4.610   6.906   7.070 -0.5311 -1.2137  1.1668
   89MOL   H49544671   4.615   7.140   6.980  0.5177 -0.8809  0.4327
   89MOL   H49644672   4.455   7.119   6.943  0.7083  0.5571 -1.0135
   89MOL   H49744673   4.441   7.060   7.210  1.5788 -1.1488  0.5352
   89MOL   H49844674   4.602   7.133   7.215 -0.3558 -1.4025  0.7487
   89MOL   H49944675   4.473   7.333   7.252 -3.1759  1.5671  0.0715
   89MOL   H50044676   4.476   7.338   7.081 -1.6701  0.0633 -1.4054
   89MOL   H50144677   4.339   7.257   7.158  0.5460 -1.5732 -3.0700
   89MOL   H50244678   4.312   7.042   6.565  1.2294 -0.8123  0.0843
   90MOL     C144679   4.431   3.144   5.039  0.4167 -0.2397 -0.1520
   90MOL     C244680   4.493   3.279   5.074  0.5955  0.1632 -0.9831
   90MOL     O344681   4.397   3.358   5.152  0.2962 -0.6890 -0.2965
   90MOL     C444682   4.289   3.414   5.082 -0.0514 -0.0549  0.3693
   90MOL     C544683   4.165   3.462   5.166  0.1635  0.1605 -0.0236
   90MOL     C644684   4.208   3.557   5.284 -0.0085  0.1779 -0.8497
   90MOL     C744685   4.185   3.703   5.247  0.4631 -0.0946 -0.2096
   90MOL     C844686   4.247   3.775   5.125 -0.0005 -0.1011  0.4380
   90MOL     C944687   4.147   3.881   5.063  0.2054 -0.5498 -0.5650
   90MOL    H1044688   4.506   3.065   5.047 -2.3010 -2.8531  0.4291
   90MOL    H1144689   4.354   3.116   5.111  2.2622  0.8471  2.3616
   90MOL    H1244690   4.565   3.240   5.147 -1.9621  0.2157  1.6652
   90MOL    H1344691   4.253   3.329   5.023 -0.2941  0.4145 -0.1543
   90MOL    H1444692   4.326   3.496   5.021 -0.5477  0.9554  1.4246
   90MOL    H1544693   4.124   3.371   5.209 -0.2125  0.5895  0.5399
   90MOL    H1644694   4.094   3.501   5.093  1.0868 -1.1066 -1.6025
   90MOL    H1744695   4.149   3.541   5.375 -0.8605  0.9233 -1.2679
   90MOL    H1844696   4.311   3.531   5.311 -0.3501 -1.7570 -1.3824
   90MOL    H1944697   4.076   3.706   5.246  0.5114  2.9993 -0.8031
   90MOL    H2044698   4.214   3.760   5.336 -2.6302  0.0285  0.7582
   90MOL    H2144699   4.262   3.701   5.046 -2.1179  1.3298 -1.3701
   90MOL    H2244700   4.349   3.801   5.153  0.4073 -1.3933  0.1599
   90MOL    H2344701   4.102   3.941   5.141  3.0421 -1.4641  1.8912
   90MOL    H2444702   4.205   3.939   4.992  0.1562  1.5505  1.0627
   90MOL    H2544703   4.065   3.839   5.005 -0.0845 -1.1184  0.2368
   90MOL    H2644704   4.381   3.134   4.943 -1.1749 -0.4087  0.6777
   90MOL    C2744705   4.561   3.352   4.957 -0.3041 -0.0119 -0.9460
   90MOL    C2844706   4.656   3.473   4.985  0.2775  0.4866  0.4227
   90MOL    O2944707   4.734   3.504   4.864  0.0057 -0.0186  0.0775
   90MOL    C3044708   4.860   3.445   4.864  0.0063 -0.4610 -0.3783
   90MOL    C3144709   4.953   3.522   4.763  0.0776 -0.4986 -0.2069
   90MOL    C3244710   4.959   3.675   4.794  0.6739  0.6250 -0.3063
   90MOL    C3344711   5.054   3.760   4.710  0.5421  0.1704  0.4940
   90MOL    C3444712   5.041   3.911   4.743  0.1441  0.0726  0.3339
   90MOL    C3544713   5.147   3.995   4.670  0.2447  0.6193 -0.2765
   90MOL    H3644714   4.620   3.274   4.908  0.9030 -0.4208  1.1034
   90MOL    H3744715   4.482   3.377   4.886 -1.0327 -0.1937 -0.2108
   90MOL    H3844716   4.723   3.443   5.065  2.8824  2.0524 -1.0876
   90MOL    H3944717   4.864   3.338   4.841  3.3497 -0.6226  0.6859
   90MOL    H4044718   4.912   3.461   4.958 -2.1212  1.4768  0.5069
   90MOL    H4144719   4.913   3.505   4.663  0.6169 -1.2570 -0.3006
   90MOL    H4244720   5.047   3.468   4.755  0.1259 -0.3936 -0.3531
   90MOL    H4344721   4.859   3.717   4.785  0.4271 -0.0044 -0.4946
   90MOL    H4444722   4.997   3.694   4.894 -1.9634 -1.9838  1.2840
   90MOL    H4544723   5.159   3.737   4.725  0.9138 -0.0874 -2.1537
   90MOL    H4644724   5.031   3.755   4.603  0.4343 -2.5835  0.6153
   90MOL    H4744725   4.936   3.930   4.721  0.2826 -0.2712 -0.6623
   90MOL    H4844726   5.054   3.920   4.851 -2.1146  0.4280  0.5919
   90MOL    H4944727   5.131   4.100   4.693  1.4193  0.4807  1.3228
   90MOL    H5044728   5.248   3.976   4.708  0.2680 -0.6528 -0.9639
   90MOL    H5144729   5.155   3.977   4.563  2.5067  1.6668 -0.3248
   90MOL    C5244730   4.572   3.597   5.032  0.2177  0.0890  0.4698
   90MOL    C5344731   4.675   3.703   5.076 -0.4418  0.8328 -0.2608
   90MOL    O5444732   4.616   3.829   5.046  0.4922 -0.6444  0.0350
   90MOL    C5544733   4.646   3.881   4.914 -0.1479 -0.3991 -0.2966
   90MOL    C5644734   4.525   3.972   4.881  0.1812  0.0695 -0.2703
   90MOL    C5744735   4.511   4.100   4.963 -0.1009  0.1884  0.2617
   90MOL    C5844736   4.399   4.193   4.915  0.7892  0.7699  0.5736
   90MOL    C5944737   4.400   4.326   4.994 -0.7715 -0.0707  0.4223
   90MOL    C6044738   4.286   4.411   4.932  0.1174  0.3095 -0.4631
   90MOL    H6144739   4.499   3.581   5.111 -0.2565  0.5395  0.1246
   90MOL    H6244740   4.526   3.630   4.939  0.1615  0.7800  0.7385
   90MOL    H6344741   4.771   3.693   5.026  0.8505  1.1632  2.0891
   90MOL    H6444742   4.652   3.798   4.844  0.7392 -1.3778  0.9247
   90MOL    H6544743   4.737   3.940   4.908 -0.7009  0.5268  0.2262
   90MOL    H6644744   4.436   3.910   4.889 -1.1513  1.9284 -0.4905
   90MOL    H6744745   4.521   4.000   4.776 -0.3574  0.7211 -0.0768
   90MOL    H6844746   4.488   4.070   5.065  0.7256  0.6153  0.5791
   90MOL    H6944747   4.602   4.156   4.941  0.3357 -0.3084  0.7674
   90MOL    H7044748   4.400   4.214   4.808 -1.4526 -0.4178  0.2756
   90MOL    H7144749   4.307   4.136   4.925 -0.0138  1.5329 -2.0397
   90MOL    H7244750   4.401   4.316   5.103 -1.8489 -0.0007  0.4440
   90MOL    H7344751   4.490   4.383   4.969 -0.5852 -0.4826  0.1430
   90MOL    H7444752   4.280   4.495   5.001  1.5732  0.0113  0.0331
   90MOL    H7544753   4.312   4.436   4.829 -0.3724 -0.3571 -0.7582
   90MOL    H7644754   4.191   4.359   4.944  1.0939 -1.4337 -0.1069
   90MOL    C7744755   4.702   3.686   5.232 -0.6585 -0.0513 -0.3647
   90MOL    C7844756   4.809   3.781   5.293  0.2470  0.0089 -0.3593
   90MOL    O7944757   4.934   3.744   5.232  0.1777  0.0869  0.3097
   90MOL    C8044758   5.005   3.868   5.212  0.3843  0.4049 -0.6889
   90MOL    C8144759   5.152   3.844   5.166 -0.7705 -0.4507 -0.1130
   90MOL    C8244760   5.229   3.973   5.128 -0.4505  0.2806 -0.0495
   90MOL    C8344761   5.376   3.948   5.092 -0.7310 -0.3404 -0.0049
   90MOL    C8444762   5.456   3.869   5.191  0.4532 -0.0748  0.1361
   90MOL    C8544763   5.606   3.879   5.162  0.3310 -0.0242  0.4730
   90MOL    H8644764   4.732   3.583   5.252  2.1013  0.8293  0.2765
   90MOL    H8744765   4.608   3.684   5.287 -0.0030  1.7510  0.8717
   90MOL    H8844766   4.784   3.885   5.276 -0.6564  0.3348  2.7004
   90MOL    H8944767   5.009   3.942   5.292 -0.5047 -0.3441  0.0656
   90MOL    H9044768   4.950   3.918   5.133 -0.5683 -1.3619 -1.1720
   90MOL    H9144769   5.160   3.769   5.087  0.2172 -0.6827  0.1957
   90MOL    H9244770   5.208   3.795   5.245  3.0103  0.7934 -1.8685
   90MOL    H9344771   5.181   4.031   5.050 -3.1254 -3.2695 -1.2233
   90MOL    H9444772   5.216   4.042   5.211 -0.6726  0.9060 -0.6058
   90MOL    H9544773   5.392   3.894   4.999 -0.3075 -0.6996  0.2755
   90MOL    H9644774   5.433   4.041   5.089 -0.6073 -0.1326  4.6581
   90MOL    H9744775   5.436   3.913   5.289  1.2899  2.0366 -0.5899
   90MOL    H9844776   5.438   3.763   5.181  1.5871 -0.1271 -1.5994
   90MOL    H9944777   5.666   3.811   5.222  2.9102  2.9361  1.4026
   90MOL   H10044778   5.619   3.843   5.060 -0.3925  1.6396 -0.2150
   90MOL   H10144779   5.638   3.982   5.175 -0.1427  0.2646 -0.5770
   90MOL   C10244780   4.829   3.768   5.451 -0.6457 -0.4810 -0.0729
   90MOL   C10344781   4.693   3.771   5.518  0.1946  0.1162 -0.0635
   90MOL   O10444782   4.720   3.767   5.655  0.2132  0.5105 -0.1534
   90MOL   C10544783   4.711   3.649   5.722  0.1214 -0.1674  0.0238
   90MOL   C10644784   4.766   3.665   5.869 -0.2473  0.4782 -0.0085
   90MOL   C10744785   4.916   3.677   5.875  0.1643  0.4752 -0.4058
   90MOL   C10844786   4.982   3.714   6.006  0.0262  0.5459 -0.0087
   90MOL   C10944787   5.135   3.726   6.013  0.4971  0.4560  0.3294
   90MOL   C11044788   5.187   3.774   6.147 -0.5261 -0.6873 -0.1807
   90MOL   H11144789   4.872   3.672   5.480  0.2707  0.3238  1.2329
   90MOL   H11244790   4.899   3.844   5.484 -0.8066 -0.4661  0.2327
   90MOL   H11344791   4.634   3.682   5.494  0.9507  0.0291 -1.6183
   90MOL   H11444792   4.762   3.570   5.667  1.2643  1.1647 -0.8542
   90MOL   H11544793   4.607   3.617   5.725  0.3315 -0.8095  0.9597
   90MOL   H11644794   4.747   3.578   5.932  0.1542  0.4806  0.1190
   90MOL   H11744795   4.709   3.745   5.916 -0.8112 -0.2555  0.5905
   90MOL   H11844796   4.957   3.587   5.830 -1.7738  0.0331 -1.3234
   90MOL   H11944797   4.933   3.758   5.803 -1.0586 -1.3270 -2.7464
   90MOL   H12044798   4.944   3.814   6.022 -3.2614 -0.2893 -2.1361
   90MOL   H12144799   4.946   3.637   6.075  1.3108 -0.7654 -0.7616
   90MOL   H12244800   5.177   3.626   5.998  0.7969  1.0135 -2.7527
   90MOL   H12344801   5.178   3.783   5.931  0.4446 -1.6673 -1.2321
   90MOL   H12444802   5.159   3.715   6.235  3.0699 -0.0271  1.4774
   90MOL   H12544803   5.294   3.759   6.135 -0.6998 -1.2552 -1.0148
   90MOL   H12644804   5.162   3.879   6.163 -0.9980 -1.0999  2.0047
   90MOL   C12744805   4.607   3.899   5.492 -0.4547 -0.1390  0.0657
   90MOL   C12844806   4.502   3.933   5.604 -1.0241 -0.6279 -0.0350
   90MOL   O12944807   4.389   3.841   5.585  0.2746  0.3474  0.3145
   90MOL   C13044808   4.348   3.755   5.696  0.5122 -0.2216  0.1027
   90MOL   C13144809   4.219   3.696   5.661  0.4646  0.5168 -0.1512
   90MOL   C13244810   4.172   3.587   5.762  0.0236  0.4019  0.4508
   90MOL   C13344811   4.036   3.527   5.734  0.3690 -0.8239  0.3922
   90MOL   C13444812   3.983   3.426   5.841 -0.3776  0.3181 -0.0687
   90MOL   C13544813   3.836   3.393   5.821 -0.1448  0.1781 -0.7264
   90MOL   H13644814   4.677   3.983   5.491 -0.7353  0.1877  2.5275
   90MOL   H13744815   4.545   3.895   5.403  0.4042 -0.9680 -0.4936
   90MOL   H13844816   4.531   3.927   5.709 -0.4759 -0.3398 -0.1703
   90MOL   H13944817   4.355   3.799   5.795  0.0027 -0.2890  0.1702
   90MOL   H14044818   4.430   3.683   5.699  0.5276 -0.2280 -0.4017
   90MOL   H14144819   4.205   3.668   5.556  2.9151  1.2855 -0.7102
   90MOL   H14244820   4.147   3.778   5.667 -2.5899 -2.0196 -0.7145
   90MOL   H14344821   4.248   3.510   5.744 -0.0103  0.0726  1.6502
   90MOL   H14444822   4.184   3.627   5.863 -0.2503  0.1624  0.5777
   90MOL   H14544823   3.969   3.613   5.743  2.6805  1.0077  0.5066
   90MOL   H14644824   4.033   3.485   5.634 -0.9614  0.0676  0.0337
   90MOL   H14744825   4.033   3.329   5.836 -2.3488 -0.7049 -0.6191
   90MOL   H14844826   4.005   3.448   5.945 -4.3298  0.3120  0.8582
   90MOL   H14944827   3.804   3.372   5.719  0.2112 -1.0166 -0.5983
   90MOL   H15044828   3.810   3.315   5.893 -0.4275  1.2928  0.3827
   90MOL   H15144829   3.783   3.484   5.847  0.5886  0.6075 -0.7255
   90MOL   C15244830   4.456   4.076   5.586  0.2589  0.1379  0.4607
   90MOL   C15344831   4.344   4.129   5.680  0.7297  0.2413  0.2893
   90MOL   O15444832   4.385   4.107   5.815 -0.2226 -0.3338 -0.3289
   90MOL   C15544833   4.272   4.091   5.906  1.0318 -0.2921  0.2889
   90MOL   C15644834   4.325   4.103   6.051  0.1197 -0.2201  0.2231
   90MOL   C15744835   4.208   4.070   6.143 -0.3232 -0.3285 -0.0867
   90MOL   C15844836   4.238   4.033   6.285  0.0996 -0.2326 -0.4670
   90MOL   C15944837   4.331   4.134   6.355  0.5223  0.2793  0.1395
   90MOL   C16044838   4.328   4.110   6.506  0.7629  0.6153  0.5087
   90MOL   H16144839   4.545   4.139   5.586  0.4950 -0.1920 -0.0045
   90MOL   H16244840   4.420   4.087   5.484  0.2766  2.6054  0.6857
   90MOL   H16344841   4.254   4.071   5.663  1.4602 -0.2623 -2.0925
   90MOL   H16444842   4.238   3.989   5.888 -0.1528  0.0819  0.3793
   90MOL   H16544843   4.187   4.154   5.882  1.1493  0.2712  1.3076
   90MOL   H16644844   4.370   4.198   6.078 -1.3965  1.1152 -1.8031
   90MOL   H16744845   4.406   4.030   6.062  0.5937  0.2618 -0.0405
   90MOL   H16844846   4.130   4.146   6.147 -0.6011 -0.5739 -0.7172
   90MOL   H16944847   4.151   3.983   6.109 -0.2388 -0.5547  0.3474
   90MOL   H17044848   4.141   4.020   6.335  0.1714 -0.4189 -0.3746
   90MOL   H17144849   4.279   3.932   6.291 -0.6402 -0.5060  0.0770
   90MOL   H17244850   4.430   4.125   6.311  0.2255 -0.3552 -0.4048
   90MOL   H17344851   4.294   4.234   6.332  1.2118 -0.0692 -2.6608
   90MOL   H17444852   4.361   4.198   6.560 -1.0848  0.2039  2.4077
   90MOL   H17544853   4.227   4.078   6.533  0.4893 -0.8216 -2.0343
   90MOL   H17644854   4.387   4.030   6.552 -0.6551  2.1384  5.2639
   90MOL   C17744855   4.316   4.285   5.663  0.3895  0.7548 -0.1530
   90MOL   C17844856   4.246   4.322   5.527  0.6029  0.1656  0.0229
   90MOL   O17944857   4.109   4.280   5.537 -0.3717  0.2102  0.1036
   90MOL   C18044858   4.031   4.257   5.425 -0.4103 -0.9219 -0.4671
   90MOL   C18144859   4.016   4.117   5.398 -0.9131  0.6473  0.1876
   90MOL   C18244860   3.944   4.029   5.503  0.0634  0.6858  0.3472
   90MOL   C18344861   3.916   3.882   5.458 -0.6392  0.2454 -0.8322
   90MOL   C18444862   3.851   3.815   5.577  0.6463  0.5319  0.0324
   90MOL   C18544863   3.798   3.681   5.547 -0.0847  0.3973 -0.1620
   90MOL   H18644864   4.262   4.327   5.748 -0.1355  1.3249 -0.7633
   90MOL   H18744865   4.412   4.336   5.678  0.9988 -0.5225  0.3022
   90MOL   H18844866   4.288   4.266   5.443 -0.9504 -1.2514  0.1735
   90MOL   H18944867   4.059   4.312   5.335 -2.4893 -0.2311 -0.7091
   90MOL   H19044868   3.933   4.290   5.459 -0.6406 -0.6696 -1.3524
   90MOL   H19144869   4.114   4.072   5.386 -0.4851  0.9048  2.5707
   90MOL   H19244870   3.966   4.110   5.301  0.4181  0.2330 -0.4796
   90MOL   H19344871   4.014   4.019   5.586  1.0670 -0.1698 -0.5901
   90MOL   H19444872   3.851   4.083   5.524  0.6871  1.4409  1.2227
   90MOL   H19544873   3.850   3.881   5.372 -0.1974  0.4999 -1.1767
   90MOL   H19644874   4.009   3.836   5.423 -1.7742 -2.0808 -0.8370
   90MOL   H19744875   3.926   3.822   5.656 -0.7271  1.9451  1.2226
   90MOL   H19844876   3.762   3.868   5.611 -0.1477  0.5756 -2.0267
   90MOL   H19944877   3.754   3.631   5.634  2.2404  0.2079  0.9261
   90MOL   H20044878   3.726   3.683   5.465 -0.6280  2.4966  0.3534
   90MOL   H20144879   3.883   3.618   5.521 -0.0590  1.1241 -1.9235
   90MOL   C20244880   4.249   4.471   5.479  0.5350  0.2111  0.3272
   90MOL   C20344881   4.384   4.544   5.466 -0.1100  0.1441 -0.2875
   90MOL   O20444882   4.375   4.676   5.405  0.3216  0.0594  0.3995
   90MOL   C20544883   4.335   4.779   5.496 -0.0444  0.9382  0.6489
   90MOL   C20644884   4.395   4.910   5.433  0.2881  0.6271  0.0203
   90MOL   C20744885   4.402   5.033   5.533 -0.3734 -0.1298 -0.7916
   90MOL   C20844886   4.539   5.107   5.515  0.7917 -0.4287 -0.9520
   90MOL   C20944887   4.542   5.198   5.394  0.4970 -0.1953 -0.4894
   90MOL   C21044888   4.682   5.252   5.362 -0.6364 -0.3883 -0.6524
   90MOL   H21144889   4.214   4.461   5.376  1.0320  3.3445 -0.2066
   90MOL   H21244890   4.180   4.528   5.541 -0.0013 -1.2504  1.0904
   90MOL   H21344891   4.417   4.546   5.570 -2.4141 -2.1660  0.5419
   90MOL   H21444892   4.379   4.765   5.595 -0.2703  1.2853  0.7994
   90MOL   H21544893   4.229   4.802   5.496  0.2413  2.4756 -1.5913
   90MOL   H21644894   4.342   4.945   5.345  0.4265  1.5360  0.2871
   90MOL   H21744895   4.491   4.885   5.388 -0.6190 -1.0946 -0.9980
   90MOL   H21844896   4.322   5.101   5.504 -1.0337  0.0776  1.4398
   90MOL   H21944897   4.387   5.001   5.636  0.0549  0.5699 -0.5072
   90MOL   H22044898   4.554   5.169   5.604 -0.2247  1.2147 -1.9034
   90MOL   H22144899   4.613   5.027   5.508 -0.4722 -1.4576 -2.8734
   90MOL   H22244900   4.493   5.133   5.321 -1.4593  2.3684 -1.5210
   90MOL   H22344901   4.474   5.281   5.415 -0.0345 -1.1586  1.8337
   90MOL   H22444902   4.738   5.312   5.435  0.1907 -1.4438 -0.4141
   90MOL   H22544903   4.748   5.166   5.352  0.9087  0.5854  0.6610
   90MOL   H22644904   4.687   5.300   5.265 -1.7315 -0.3413 -0.6826
   90MOL   C22744905   4.480   4.471   5.367 -0.3791  0.3424  0.0809
   90MOL   C22844906   4.632   4.500   5.392  0.2253  0.3458  0.7911
   90MOL   O22944907   4.701   4.431   5.290  0.4177  0.3660  0.1340
   90MOL   C23044908   4.758   4.307   5.323  0.1835  0.0911 -0.4004
   90MOL   C23144909   4.830   4.255   5.198 -0.4373 -0.3100 -0.6631
   90MOL   C23244910   4.980   4.297   5.188 -0.2780  0.0975  0.4429
   90MOL   C23344911   5.025   4.277   5.042 -0.2540  0.7833 -0.3878
   90MOL   C23444912   5.166   4.327   5.015  0.3237 -0.7209  0.1189
   90MOL   C23544913   5.215   4.291   4.875  0.0810 -0.3313 -0.5992
   90MOL   H23644914   4.477   4.362   5.369  4.1345  0.0564 -2.5520
   90MOL   H23744915   4.450   4.484   5.263 -0.3488  1.1019  0.1619
   90MOL   H23844916   4.657   4.465   5.492 -1.0874  2.2921  1.8225
   90MOL   H23944917   4.684   4.231   5.345 -1.1909  2.1170  2.2979
   90MOL   H24044918   4.835   4.316   5.400  0.5062 -3.1153 -0.2872
   90MOL   H24144919   4.774   4.297   5.115  2.0423  1.4282 -1.5199
   90MOL   H24244920   4.807   4.151   5.175  0.7136 -0.7328  0.0117
   90MOL   H24344921   4.978   4.405   5.200  0.9093  0.3603 -1.4345
   90MOL   H24444922   5.055   4.258   5.257  0.9621 -1.0801 -1.5074
   90MOL   H24544923   5.035   4.169   5.030 -1.5039  0.6741 -0.5105
   90MOL   H24644924   4.951   4.315   4.972 -0.8485  1.6484  0.7031
   90MOL   H24744925   5.170   4.436   5.014 -1.0467 -0.6599  0.6961
   90MOL   H24844926   5.229   4.281   5.091 -0.5587 -1.8522  0.1699
   90MOL   H24944927   5.310   4.339   4.853  0.2448  1.0849  2.8616
   90MOL   H25044928   5.239   4.185   4.871 -0.0793 -0.6069  3.6931
   90MOL   H25144929   5.148   4.304   4.790 -0.0033 -0.2209 -0.5154
   90MOL   C25244930   4.679   4.649   5.364  0.3574  0.0032 -0.4559
   90MOL   C25344931   4.832   4.679   5.373 -0.2840  0.4741 -0.0682
   90MOL   O25444932   4.877   4.653   5.505  0.4008  0.0782 -0.0401
   90MOL   C25544933   5.010   4.607   5.511  0.3576 -0.4499 -0.3675
   90MOL   C25644934   5.064   4.600   5.662  0.6912  0.1540 -0.5913
   90MOL   C25744935   5.030   4.731   5.735  0.2941 -0.3188 -0.3284
   90MOL   C25844936   5.080   4.722   5.887  0.5694  0.0477  0.5028
   90MOL   C25944937   5.090   4.850   5.963 -1.0509  0.1431  1.0487
   90MOL   C26044938   5.198   4.841   6.069  0.5739 -0.2735 -0.0009
   90MOL   H26144939   4.656   4.684   5.263 -1.3048  1.1430  0.2949
   90MOL   H26244940   4.623   4.709   5.436  2.4138 -0.2394  1.3904
   90MOL   H26344941   4.896   4.605   5.324  0.6553  0.7866  0.6729
   90MOL   H26444942   5.080   4.676   5.463  2.5965 -1.1212  1.8177
   90MOL   H26544943   5.027   4.511   5.461  2.2416  0.1240 -0.8648
   90MOL   H26644944   5.171   4.577   5.669  0.9707  1.0252 -1.8567
   90MOL   H26744945   5.023   4.515   5.716  0.4984  0.2132 -0.6459
   90MOL   H26844946   5.080   4.812   5.682  2.2470 -0.1693  1.6540
   90MOL   H26944947   4.923   4.753   5.727  0.7373  1.8274 -0.7059
   90MOL   H27044948   5.034   4.643   5.946 -0.7150  0.2469 -0.2292
   90MOL   H27144949   5.184   4.691   5.878  0.2849 -1.2533  1.5682
   90MOL   H27244950   5.106   4.931   5.892 -2.0195  0.6257  1.3654
   90MOL   H27344951   4.991   4.865   6.006 -0.3545  2.5835  1.9098
   90MOL   H27444952   5.187   4.737   6.101 -3.2681 -0.1547 -0.5988
   90MOL   H27544953   5.296   4.854   6.024  1.4261 -2.2985  1.1825
   90MOL   H27644954   5.180   4.907   6.153  2.1153  0.6060 -0.3566
   90MOL   C27744955   4.870   4.818   5.328 -0.2581 -0.4665 -0.2992
   90MOL   C27844956   4.961   4.819   5.196  0.0395 -0.7373  0.2332
   90MOL   O27944957   4.872   4.793   5.084  0.5017  0.2406 -0.4410
   90MOL   C28044958   4.880   4.657   5.040 -0.3842  0.2751  0.0179
   90MOL   C28144959   4.800   4.662   4.912  0.1332 -0.1326  0.4460
   90MOL   C28244960   4.788   4.519   4.852 -0.1876 -0.9176 -0.0043
   90MOL   C28344961   4.693   4.518   4.736  0.3046 -0.0103 -0.9362
   90MOL   C28444962   4.663   4.382   4.679 -0.2875 -0.6256 -0.7018
   90MOL   C28544963   4.529   4.373   4.593  0.3792  0.4849  0.0240
   90MOL   H28644964   4.784   4.880   5.305  0.8176  0.8244 -0.8698
   90MOL   H28744965   4.922   4.864   5.412 -2.0465 -0.0682  0.6033
   90MOL   H28844966   5.044   4.749   5.191 -0.6449 -1.5889  0.8080
   90MOL   H28944967   4.832   4.586   5.107  1.5484 -0.9454  0.1421
   90MOL   H29044968   4.981   4.618   5.029 -0.2012  1.0254 -0.9518
   90MOL   H29144969   4.853   4.730   4.845 -0.1494 -1.8765 -1.6131
   90MOL   H29244970   4.703   4.710   4.927  0.5566  1.0199 -0.4607
   90MOL   H29344971   4.886   4.495   4.810 -0.4642  0.2242 -1.3503
   90MOL   H29444972   4.752   4.438   4.915  0.4167 -0.8503  0.4330
   90MOL   H29544973   4.598   4.571   4.751  1.5002  2.2120 -1.0138
   90MOL   H29644974   4.734   4.570   4.649  0.4642  1.7219  0.1515
   90MOL   H29744975   4.754   4.360   4.623 -0.4434 -1.9253 -0.4650
   90MOL   H29844976   4.673   4.305   4.756  0.9181  1.1607  0.9920
   90MOL   H29944977   4.507   4.269   4.570  3.1361 -0.1541  0.0621
   90MOL   H30044978   4.454   4.394   4.669 -0.6791 -0.1586 -0.8388
   90MOL   H30144979   4.532   4.453   4.520  1.8719  0.7311  0.3286
   90MOL   C30244980   5.039   4.958   5.174  0.6076 -0.2774  0.0647
   90MOL   C30344981   5.129   4.954   5.042 -0.1627  0.0315 -0.6602
   90MOL   O30444982   5.245   4.882   5.072  0.5695  0.4315 -0.2840
   90MOL   C30544983   5.313   4.834   4.958 -0.5456 -0.0257  0.2582
   90MOL   C30644984   5.450   4.774   5.007 -0.0921  0.0252 -0.7067
   90MOL   C30744985   5.522   4.721   4.884  0.4707  0.0979 -0.0088
   90MOL   C30844986   5.656   4.656   4.919 -0.2813 -0.1663  0.5919
   90MOL   C30944987   5.745   4.639   4.794  0.2464  0.4275 -0.2002
   90MOL   C31044988   5.883   4.583   4.808  0.4935  0.0390  0.6101
   90MOL   H31144989   4.965   5.038   5.165  1.6444  0.8724  1.6694
   90MOL   H31244990   5.092   4.989   5.264  2.7735 -0.7667 -1.0087
   90MOL   H31344991   5.073   4.909   4.960  1.6678 -0.0489 -1.8921
   90MOL   H31444992   5.329   4.917   4.889  3.1219 -2.0983 -1.5263
   90MOL   H31544993   5.256   4.758   4.903 -3.2773  2.5572 -0.6151
   90MOL   H31644994   5.427   4.712   5.094 -1.3987  0.2276 -0.8992
   90MOL   H31744995   5.518   4.847   5.052 -1.3853 -0.3752  1.9878
   90MOL   H31844996   5.457   4.655   4.827 -0.0338  0.7608 -0.2050
   90MOL   H31944997   5.532   4.804   4.814 -1.2933  0.5891  0.3092
   90MOL   H32044998   5.699   4.726   4.992  1.1516 -0.6948  0.2787
   90MOL   H32144999   5.647   4.558   4.965 -0.2759 -1.1843 -1.5213
   90MOL   H32245000   5.688   4.568   4.733 -0.4293 -0.8831  1.8833
   90MOL   H32345001   5.749   4.727   4.730  3.3098  0.4289 -0.0406
   90MOL   H32445002   5.936   4.627   4.892 -1.3684  0.4499  1.5998
   90MOL   H32545003   5.883   4.479   4.839  1.6315 -0.0396  0.3796
   90MOL   H32645004   5.937   4.594   4.714  0.3446 -0.3596  0.4779
   90MOL   C32745005   5.162   5.108   5.016 -0.3753  0.3738  0.2816
   90MOL   C32845006   5.058   5.187   4.936  0.0398 -0.0755  0.0499
   90MOL   O32945007   5.096   5.323   4.949  0.2379 -0.3038  0.5885
   90MOL   C33045008   5.065   5.393   5.072  0.2434  0.7730  0.3802
   90MOL   C33145009   5.108   5.538   5.069  0.4331  0.2571  0.4757
   90MOL   C33245010   5.045   5.619   4.947  0.3571 -0.4018 -0.1066
   90MOL   C33345011   5.093   5.770   4.944 -0.1892  0.4530 -0.2708
   90MOL   C33445012   5.248   5.784   4.911  0.3383  0.3969 -0.4351
   90MOL   C33545013   5.337   5.788   5.046  0.7228 -0.2268  0.6537
   90MOL   H33645014   5.261   5.114   4.971 -0.2062  0.8587  0.7171
   90MOL   H33745015   5.177   5.136   5.120  1.7476 -1.8790  0.6466
   90MOL   H33845016   4.955   5.180   4.971  0.3315  2.7064  1.5639
   90MOL   H33945017   5.118   5.355   5.159 -1.3099 -2.2485  0.0879
   90MOL   H34045018   4.958   5.381   5.092  0.5721  2.9357  3.8949
   90MOL   H34145019   5.217   5.546   5.069  0.4447  0.3383 -1.4325
   90MOL   H34245020   5.065   5.576   5.162  0.1727 -0.3504  0.6015
   90MOL   H34345021   5.047   5.574   4.848 -0.7968 -2.7730  0.9018
   90MOL   H34445022   4.939   5.630   4.969 -0.5655 -3.2616 -2.7651
   90MOL   H34545023   5.032   5.811   4.864  0.3056 -1.0816 -1.4528
   90MOL   H34645024   5.062   5.820   5.036  0.0704  0.2582 -0.0740
   90MOL   H34745025   5.284   5.703   4.849  1.2420  1.3915 -1.2272
   90MOL   H34845026   5.265   5.875   4.853  0.4071 -0.9530 -2.5681
   90MOL   H34945027   5.439   5.823   5.026  0.1320 -0.1921 -2.5912
   90MOL   H35045028   5.283   5.847   5.119  0.0152 -1.4036  1.0942
   90MOL   H35145029   5.343   5.690   5.094 -1.0569 -0.4340  0.4848
   90MOL   C35245030   5.067   5.165   4.784  0.3871 -0.0849  0.7342
   90MOL   C35345031   4.967   5.246   4.697 -0.2722 -0.5397 -0.3971
   90MOL   O35445032   4.832   5.216   4.729  0.0880 -0.2421 -0.0589
   90MOL   C35545033   4.754   5.311   4.807  0.1805  0.8552 -0.2459
   90MOL   C35645034   4.615   5.242   4.823  0.0197 -0.0899 -0.1404
   90MOL   C35745035   4.629   5.130   4.920 -0.0798  0.3701  0.1658
   90MOL   C35845036   4.504   5.040   4.932 -0.0982  0.1062  1.1250
   90MOL   C35945037   4.500   4.942   5.052  1.0908 -0.5311  0.8738
   90MOL   C36045038   4.373   4.851   5.054  0.2684 -0.4071  0.8786
   90MOL   H36145039   5.166   5.188   4.744  0.4780  0.0406  1.0371
   90MOL   H36245040   5.051   5.058   4.768  1.2747  0.0986 -1.6540
   90MOL   H36345041   4.992   5.348   4.728 -0.1515 -0.5305 -0.5197
   90MOL   H36445042   4.729   5.396   4.743 -1.6351  0.4966 -0.0501
   90MOL   H36545043   4.781   5.345   4.906  0.6860  0.1288 -0.1323
   90MOL   H36645044   4.587   5.197   4.727  0.0184  1.8258 -1.0561
   90MOL   H36745045   4.540   5.312   4.860  1.7907  0.8723  1.7198
   90MOL   H36845046   4.715   5.074   4.885  0.9336  1.6439  0.5923
   90MOL   H36945047   4.650   5.170   5.019  0.7991  3.2818 -1.1319
   90MOL   H37045048   4.417   5.106   4.936  0.0610  0.4997 -1.2108
   90MOL   H37145049   4.489   4.981   4.841 -1.2929  0.8529  0.8129
   90MOL   H37245050   4.591   4.882   5.050 -1.5446 -4.6545  0.0503
   90MOL   H37345051   4.492   4.990   5.149 -2.4308  0.6708  0.0509
   90MOL   H37445052   4.380   4.776   4.975 -0.4320 -0.5118  0.9115
   90MOL   H37545053   4.355   4.809   5.153 -2.3702  0.8438  0.9850
   90MOL   H37645054   4.279   4.900   5.027  1.1376 -0.5267 -2.6109
   90MOL   C37745055   4.990   5.229   4.544 -0.1912  0.3826  0.5798
   90MOL   C37845056   5.131   5.224   4.479  0.1106 -0.0464 -0.2563
   90MOL   O37945057   5.196   5.106   4.523 -0.2240  0.3478 -0.1585
   90MOL   C38045058   5.314   5.072   4.449 -0.3408  0.5843  0.8606
   90MOL   C38145059   5.364   4.928   4.485  0.1761 -0.0053  0.2320
   90MOL   C38245060   5.521   4.914   4.481  0.3107  0.5479 -0.4998
   90MOL   C38345061   5.579   4.881   4.337 -0.1581  0.3932 -0.5237
   90MOL   C38445062   5.733   4.860   4.337  0.0439 -0.7314 -0.2814
   90MOL   C38545063   5.805   4.838   4.203  0.3534  0.1815  0.1800
   90MOL   H38645064   4.942   5.134   4.523  1.6487  0.1202 -2.8358
   90MOL   H38745065   4.920   5.299   4.496 -0.4074 -0.7459 -0.7911
   90MOL   H38845066   5.122   5.219   4.370  1.2635 -3.1466 -0.2458
   90MOL   H38945067   5.399   5.138   4.463  3.4937 -3.9095 -0.2353
   90MOL   H39045068   5.296   5.066   4.342  0.9465 -0.7396  0.7049
   90MOL   H39145069   5.325   4.854   4.417  0.4308  2.8536 -3.1472
   90MOL   H39245070   5.332   4.906   4.587 -1.0699  2.5550  0.4322
   90MOL   H39345071   5.566   5.007   4.516  1.2048 -0.6697  1.6551
   90MOL   H39445072   5.550   4.827   4.540  1.0514 -0.2470 -2.0104
   90MOL   H39545073   5.540   4.788   4.297  1.9510 -2.7999  4.3158
   90MOL   H39645074   5.554   4.965   4.272 -1.2832  0.5582  0.1094
   90MOL   H39745075   5.781   4.949   4.378  1.0335 -0.5764 -1.7749
   90MOL   H39845076   5.755   4.778   4.406 -2.3261 -1.2416 -0.0533
   90MOL   H39945077   5.793   4.740   4.155 -0.9713  0.3899  0.0755
   90MOL   H40045078   5.779   4.908   4.123 -0.5943  0.5820  0.8338
   90MOL   H40145079   5.912   4.833   4.221  0.0262 -1.1701  1.9061
   90MOL   C40245080   5.213   5.344   4.506  0.1872  0.1024 -0.6063
   90MOL   C40345081   5.171   5.474   4.434 -0.2456  0.2761  0.5629
   90MOL   O40445082   5.190   5.454   4.291  0.2771 -0.0698  0.1684
   90MOL   C40545083   5.088   5.490   4.202  0.6120 -0.6502  0.6744
   90MOL   C40645084   5.151   5.485   4.063  0.3996 -0.5393 -0.0153
   90MOL   C40745085   5.205   5.350   4.018 -0.3882 -0.4156  0.4063
   90MOL   C40845086   5.262   5.362   3.879  0.9291 -0.1907  0.0500
   90MOL   C40945087   5.298   5.238   3.804 -0.0504  1.0061  0.0405
   90MOL   C41045088   5.412   5.149   3.862  0.1213 -0.0588  0.9439
   90MOL   H41145089   5.318   5.336   4.478  0.4856 -0.9110  0.7243
   90MOL   H41245090   5.224   5.363   4.613 -0.4213 -1.4568 -0.2579
   90MOL   H41345091   5.067   5.495   4.459 -0.8398 -1.7969 -0.0813
   90MOL   H41445092   5.046   5.588   4.223  3.6945  0.2879  2.7159
   90MOL   H41545093   5.006   5.419   4.205 -2.4462  2.7130  0.1311
   90MOL   H41645094   5.226   5.564   4.065 -1.4500  1.2764 -0.5628
   90MOL   H41745095   5.081   5.523   3.989 -1.1063 -1.7173  0.7668
   90MOL   H41845096   5.277   5.315   4.091 -0.8796  0.9854  1.5850
   90MOL   H41945097   5.122   5.279   4.012 -0.7053 -0.2427  2.2843
   90MOL   H42045098   5.197   5.420   3.814 -1.2363 -1.9236  0.6244
   90MOL   H42145099   5.351   5.426   3.878  0.3136  0.6709 -0.4692
   90MOL   H42245100   5.215   5.171   3.781  0.2856  1.0422 -1.3147
   90MOL   H42345101   5.336   5.263   3.705  0.6532  0.1463  0.0883
   90MOL   H42445102   5.407   5.142   3.971  0.2649  2.2096  1.1153
   90MOL   H42545103   5.401   5.051   3.816 -1.4876 -0.3096  1.8173
   90MOL   H42645104   5.508   5.188   3.827  1.2286 -3.4533 -0.0142
   90MOL   C42745105   5.256   5.583   4.489  0.3649 -1.0042  0.9128
   90MOL   C42845106   5.200   5.727   4.469  0.1989 -0.0207  0.0667
   90MOL   O42945107   5.074   5.741   4.536  0.2535  0.6928  0.3212
   90MOL   C43045108   4.979   5.847   4.506 -0.5167 -0.1849 -0.1694
   90MOL   C43145109   4.836   5.794   4.543  0.0154 -0.4335 -0.1114
   90MOL   C43245110   4.799   5.674   4.455  0.3944  0.0440 -0.1865
   90MOL   C43345111   4.651   5.631   4.459  0.7665 -0.5106 -0.1883
   90MOL   C43445112   4.637   5.499   4.384 -0.1175 -0.4675 -0.3365
   90MOL   C43545113   4.521   5.411   4.415 -0.0568 -0.5878  0.8451
   90MOL   H43645114   5.272   5.562   4.595 -0.2185 -1.4226  0.9265
   90MOL   H43745115   5.353   5.589   4.441 -0.1622  0.0210 -0.0293
   90MOL   H43845116   5.187   5.739   4.362 -0.4243 -0.2517  0.1094
   90MOL   H43945117   5.002   5.867   4.401  0.0675 -0.7865 -0.1566
   90MOL   H44045118   5.007   5.940   4.555  0.8750  0.0504 -1.3684
   90MOL   H44145119   4.762   5.875   4.544  1.2232  0.7004 -0.5215
   90MOL   H44245120   4.819   5.756   4.643  1.7284 -1.7884 -0.3242
   90MOL   H44345121   4.845   5.682   4.357 -0.7158 -0.2711 -0.7344
   90MOL   H44445122   4.845   5.583   4.494  0.7614 -0.0475 -0.8207
   90MOL   H44545123   4.620   5.621   4.563 -2.7102  2.1602 -0.8909
   90MOL   H44645124   4.578   5.699   4.416 -1.4360 -3.3195 -1.0444
   90MOL   H44745125   4.648   5.510   4.277 -1.5486 -0.1042 -0.4546
   90MOL   H44845126   4.724   5.441   4.417  0.2607 -0.0045 -0.5040
   90MOL   H44945127   4.513   5.378   4.519  1.6967 -1.4645  0.7179
   90MOL   H45045128   4.429   5.465   4.396 -1.6596 -2.1840  3.7657
   90MOL   H45145129   4.515   5.324   4.349  1.9141  0.0085 -0.1722
   90MOL   C45245130   5.309   5.825   4.522  1.1890  0.0622 -0.2248
   90MOL   C45345131   5.323   5.958   4.440  0.3630  0.3964  0.2825
   90MOL   O45445132   5.393   5.928   4.321  0.0154 -0.3633 -0.4306
   90MOL   C45545133   5.329   5.934   4.196 -0.3365 -0.0625  0.2780
   90MOL   C45645134   5.388   5.842   4.084 -1.1743  0.6513 -0.3850
   90MOL   C45745135   5.288   5.844   3.970  1.2152 -0.2603 -0.7096
   90MOL   C45845136   5.348   5.768   3.854  1.2545  0.5898  0.2579
   90MOL   C45945137   5.254   5.765   3.730 -0.1030 -0.0042 -0.1017
   90MOL   C46045138   5.321   5.713   3.605  0.2649 -0.2933  0.2890
   90MOL   H46145139   5.284   5.865   4.621 -1.4085  0.4784 -1.0291
   90MOL   H46245140   5.409   5.785   4.537  1.1517 -0.0539 -0.2897
   90MOL   H46345141   5.224   6.000   4.423  0.4863  0.4672 -0.2533
   90MOL   H46445142   5.302   6.034   4.165 -0.1840 -0.6532 -1.7958
   90MOL   H46545143   5.226   5.904   4.216  0.1047 -0.9590  1.2572
   90MOL   H46645144   5.412   5.741   4.118  0.9536 -0.0691 -3.8294
   90MOL   H46745145   5.488   5.881   4.061  0.3569 -2.4611  0.7232
   90MOL   H46845146   5.196   5.797   4.004  0.5774  1.7183  0.3608
   90MOL   H46945147   5.259   5.946   3.945  0.8917  0.1639  1.3489
   90MOL   H47045148   5.440   5.822   3.832  2.2334 -1.4483 -0.8056
   90MOL   H47145149   5.367   5.666   3.886 -1.8445 -0.0401  0.2184
   90MOL   H47245150   5.172   5.698   3.756  1.5906 -1.2514  2.1424
   90MOL   H47345151   5.215   5.866   3.717  0.6631  0.4452  1.0541
   90MOL   H47445152   5.418   5.762   3.606 -0.0052  0.2474  3.0290
   90MOL   H47545153   5.346   5.607   3.602 -2.5932 -1.0355  1.1303
   90MOL   H47645154   5.264   5.745   3.518 -2.8701 -0.4949  2.1797
   90MOL   C47745155   5.412   6.053   4.525 -0.6374 -0.3973  0.1884
   90MOL   C47845156   5.452   6.183   4.457 -0.1807  0.5122  0.1156
   90MOL   O47945157   5.549   6.255   4.526  0.2813  0.4230  0.0187
   90MOL   C48045158   5.594   6.377   4.465 -0.2257 -0.4136 -0.2362
   90MOL   C48145159   5.700   6.444   4.550  0.1623 -0.3936  0.9062
   90MOL   C48245160   5.650   6.495   4.688  0.3347 -0.4294  0.0669
   90MOL   C48345161   5.761   6.571   4.770  0.6490  0.0388  0.3129
   90MOL   C48445162   5.718   6.646   4.901  0.2025  0.4092  0.3041
   90MOL   C48545163   5.654   6.556   5.005 -0.1585  0.1781 -0.0514
   90MOL   H48645164   5.359   6.090   4.613  0.8188  1.7449  0.2192
   90MOL   H48745165   5.501   6.007   4.567  0.2802  1.0237 -0.1819
   90MOL   H48845166   5.483   6.168   4.353  0.9038 -0.7965  0.6115
   90MOL   H48945167   5.507   6.441   4.456  1.3965  1.6952 -1.4008
   90MOL   H49045168   5.630   6.372   4.362 -0.9283  3.1970 -0.7002
   90MOL   H49145169   5.729   6.536   4.500 -0.6357 -0.7632 -0.2479
   90MOL   H49245170   5.783   6.376   4.568  0.8953 -0.1075 -1.3531
   90MOL   H49345171   5.562   6.558   4.679  0.0100 -1.1366 -2.0084
   90MOL   H49445172   5.602   6.416   4.747 -1.7782  1.6596  1.2040
   90MOL   H49545173   5.834   6.497   4.802 -0.2488 -0.3818  1.4029
   90MOL   H49645174   5.813   6.641   4.704  0.1379 -1.2293 -1.4604
   90MOL   H49745175   5.804   6.700   4.939 -1.5875  3.6630 -0.1265
   90MOL   H49845176   5.657   6.735   4.887 -0.1709  0.3120  1.2848
   90MOL   H49945177   5.561   6.514   4.968 -0.1791  0.9107 -0.8507
   90MOL   H50045178   5.718   6.473   5.036 -0.0678  1.2177  2.6771
   90MOL   H50145179   5.635   6.622   5.089  0.1153 -0.8392  0.8178
   90MOL   H50245180   5.364   6.247   4.458 -1.4666 -1.2038 -0.3215
   91MOL     C145181   2.295   6.771   6.286 -0.3592 -0.5715  0.0045
   91MOL     C245182   2.429   6.801   6.219  0.1372  0.1730  0.1137
   91MOL     O345183   2.464   6.682   6.151  0.9341  0.0334  0.3019
   91MOL     C445184   2.585   6.677   6.072 -0.0479 -0.1644  0.3643
   91MOL     C545185   2.564   6.545   5.989 -0.6596  0.0345 -0.3107
   91MOL     C645186   2.446   6.563   5.891  0.4609  0.5110 -0.9301
   91MOL     C745187   2.386   6.431   5.848 -0.6132  0.1592 -0.0819
   91MOL     C845188   2.237   6.452   5.820  0.2703  1.1239  0.2132
   91MOL     C945189   2.149   6.326   5.810 -0.2516 -0.0173  0.0334
   91MOL    H1045190   2.267   6.867   6.329  0.0016 -0.4802  0.0363
   91MOL    H1145191   2.215   6.748   6.216  0.7878 -2.7436 -0.6505
   91MOL    H1245192   2.415   6.885   6.150 -1.9502 -0.3404 -0.1415
   91MOL    H1345193   2.681   6.673   6.123  0.0665  0.5424  0.2120
   91MOL    H1445194   2.592   6.767   6.010  0.4732  0.6751  1.6308
   91MOL    H1545195   2.544   6.461   6.055 -0.8454 -0.7985 -1.4178
   91MOL    H1645196   2.653   6.537   5.926 -0.3635  3.2171 -0.4016
   91MOL    H1745197   2.368   6.625   5.935 -0.3684 -0.1517 -1.4376
   91MOL    H1845198   2.472   6.624   5.804 -0.3776  0.1480 -1.4487
   91MOL    H1945199   2.421   6.386   5.755 -1.7225  0.7882 -0.8165
   91MOL    H2045200   2.402   6.351   5.921 -2.6462  1.7728  2.1730
   91MOL    H2145201   2.235   6.505   5.725  1.4882  1.6432  0.4719
   91MOL    H2245202   2.183   6.515   5.891  1.4010  0.6879  1.4813
   91MOL    H2345203   2.160   6.262   5.898 -0.4624  0.2263  0.2384
   91MOL    H2445204   2.046   6.362   5.817 -0.6932 -0.6058 -2.8702
   91MOL    H2545205   2.159   6.282   5.711 -2.3665 -0.4891  0.0151
   91MOL    H2645206   2.305   6.695   6.363 -1.1739 -0.8924 -0.2019
   91MOL    C2745207   2.541   6.842   6.324 -0.1948  0.7457  0.1251
   91MOL    C2845208   2.658   6.937   6.272  0.2777  0.3125  0.1654
   91MOL    O2945209   2.623   7.080   6.276  0.0136 -0.0795  0.3354
   91MOL    C3045210   2.526   7.120   6.195  0.1736 -0.2019  1.0801
   91MOL    C3145211   2.516   7.272   6.185 -0.6837  0.2152 -0.9013
   91MOL    C3245212   2.657   7.340   6.174  0.2954  0.1022 -0.2845
   91MOL    C3345213   2.733   7.295   6.044  0.1817  0.0401 -0.1594
   91MOL    C3445214   2.869   7.360   6.024  0.1312 -0.5960 -0.4959
   91MOL    C3545215   2.946   7.323   5.893  0.3873 -0.3557 -0.5978
   91MOL    H3645216   2.489   6.903   6.398  0.2204  1.9276 -0.5414
   91MOL    H3745217   2.585   6.752   6.367 -0.1118  0.3525 -0.7568
   91MOL    H3845218   2.666   6.917   6.165 -0.9492 -1.4032  0.3728
   91MOL    H3945219   2.435   7.072   6.231  1.4201 -2.7097  1.0244
   91MOL    H4045220   2.552   7.074   6.100  0.3993  0.1815  0.9570
   91MOL    H4145221   2.463   7.311   6.273  0.0426  0.0176 -0.3718
   91MOL    H4245222   2.454   7.298   6.099 -3.1326 -0.2588  0.6413
   91MOL    H4345223   2.620   7.442   6.183  0.1654 -0.0209  0.5696
   91MOL    H4445224   2.706   7.317   6.268 -0.8018  1.1261  0.5476
   91MOL    H4545225   2.765   7.193   6.065 -1.1760 -0.1072  1.2699
   91MOL    H4645226   2.676   7.297   5.951  1.0029 -1.3720 -0.7061
   91MOL    H4745227   2.854   7.467   6.026  2.1992 -0.3136  0.9942
   91MOL    H4845228   2.935   7.332   6.106 -1.3416 -1.8291  0.2919
   91MOL    H4945229   2.967   7.222   5.859 -2.6901 -1.6208  1.0254
   91MOL    H5045230   2.891   7.373   5.813  1.8563  2.0152 -0.1864
   91MOL    H5145231   3.037   7.382   5.906 -0.9581  2.3951 -3.0571
   91MOL    C5245232   2.788   6.916   6.350 -0.2527  0.0777 -0.5229
   91MOL    C5345233   2.913   6.953   6.272 -0.5055 -0.4261 -0.2019
   91MOL    O5445234   3.024   6.969   6.367  0.4380  0.1347 -0.3141
   91MOL    C5545235   3.033   7.106   6.412  0.3638 -0.3147  0.3700
   91MOL    C5645236   3.133   7.124   6.515 -0.6559 -0.0844  0.0413
   91MOL    C5745237   3.111   7.057   6.655 -0.1417  0.6142 -0.5576
   91MOL    C5845238   3.199   7.109   6.770  0.0945 -0.1971  0.3610
   91MOL    C5945239   3.200   7.022   6.896 -0.0017 -0.1984  0.0905
   91MOL    C6045240   3.319   7.073   6.982 -0.2101 -0.0247 -0.0871
   91MOL    H6145241   2.795   6.818   6.397 -0.7565  1.0678  1.6649
   91MOL    H6245242   2.776   6.975   6.441  0.3077 -1.3794  0.5098
   91MOL    H6345243   2.897   7.049   6.224  3.2418  0.4684  0.1849
   91MOL    H6445244   2.947   7.146   6.467  1.3167  1.0653  0.8740
   91MOL    H6545245   3.061   7.169   6.328 -4.1817 -0.7387 -1.6393
   91MOL    H6645246   3.148   7.230   6.533  0.2843  0.2303 -2.3588
   91MOL    H6745247   3.225   7.082   6.473 -0.7049  0.6967 -0.8666
   91MOL    H6845248   3.009   7.062   6.693  0.5258  1.2997  1.2437
   91MOL    H6945249   3.135   6.952   6.638 -0.4469  0.2992  0.9113
   91MOL    H7045250   3.303   7.116   6.735 -0.6233 -1.7734 -2.2128
   91MOL    H7145251   3.173   7.211   6.799  1.4630  0.4644 -0.6530
   91MOL    H7245252   3.106   7.035   6.949 -0.3247  2.0318 -0.9546
   91MOL    H7345253   3.219   6.920   6.863  2.5217  0.7035 -1.4211
   91MOL    H7445254   3.414   7.059   6.931  1.1193  0.7846  2.1038
   91MOL    H7545255   3.303   7.178   7.007 -0.4155 -0.3378  1.1361
   91MOL    H7645256   3.333   7.024   7.079 -1.6967  0.2747  0.2938
   91MOL    C7745257   2.964   6.849   6.168  0.5473 -0.0913  0.0038
   91MOL    C7845258   2.954   6.897   6.022 -0.0869  0.1606  0.0208
   91MOL    O7945259   2.818   6.886   5.975  0.0550 -0.0630  0.9336
   91MOL    C8045260   2.777   6.955   5.851 -0.7853 -0.7159  0.3852
   91MOL    C8145261   2.622   6.953   5.816 -0.3844  0.1244  0.4058
   91MOL    C8245262   2.599   7.024   5.686  0.0665 -0.5024 -0.7052
   91MOL    C8345263   2.633   6.951   5.561  0.4343  0.1497  0.6926
   91MOL    C8445264   2.594   7.032   5.433  0.6058 -0.1000 -0.1461
   91MOL    C8545265   2.611   6.961   5.296  0.4870 -0.5325 -0.5821
   91MOL    H8645266   2.919   6.750   6.182 -0.5720  0.5540  1.0417
   91MOL    H8745267   3.068   6.843   6.200 -0.0357  1.1550  2.2846
   91MOL    H8845268   3.001   6.995   6.015 -0.1954  0.2093 -0.0115
   91MOL    H8945269   2.837   6.921   5.766 -2.1294 -0.5201 -0.6436
   91MOL    H9045270   2.782   7.062   5.873 -1.1764 -1.0384  2.1131
   91MOL    H9145271   2.568   7.011   5.891  0.1112 -0.8629  1.5194
   91MOL    H9245272   2.581   6.853   5.813  1.4096 -0.6208 -0.0994
   91MOL    H9345273   2.492   7.042   5.674  0.1714 -0.0617 -0.9605
   91MOL    H9445274   2.650   7.119   5.675  2.0758 -1.2752  1.5576
   91MOL    H9545275   2.740   6.930   5.556  0.0680 -1.8528  0.9318
   91MOL    H9645276   2.584   6.854   5.552 -1.7502  1.4266 -2.1355
   91MOL    H9745277   2.492   7.072   5.439  0.7139  0.8497 -3.7906
   91MOL    H9845278   2.657   7.121   5.435  0.2174  0.1779  2.3960
   91MOL    H9945279   2.701   6.901   5.288  0.3919 -0.7801  0.1147
   91MOL   H10045280   2.528   6.895   5.269 -1.4099  1.8323 -0.6945
   91MOL   H10145281   2.602   7.038   5.220  0.5196 -0.5711 -0.6243
   91MOL   C10245282   3.044   6.810   5.936  0.4210  0.4587  0.6183
   91MOL   C10345283   3.200   6.815   5.948 -0.0549 -0.8061 -0.0011
   91MOL   O10445284   3.262   6.711   5.880 -0.0232 -0.3498  0.4766
   91MOL   C10545285   3.287   6.591   5.948 -0.1347  0.5730 -0.2405
   91MOL   C10645286   3.385   6.507   5.860  0.2992 -0.2765  0.0326
   91MOL   C10745287   3.404   6.366   5.918 -0.0006  0.2648  1.1207
   91MOL   C10845288   3.489   6.276   5.822  0.5672 -0.6799 -0.7293
   91MOL   C10945289   3.528   6.145   5.884  0.2919 -0.3779 -0.0827
   91MOL   C11045290   3.659   6.156   5.957 -0.2501 -0.4901  0.4093
   91MOL   H11145291   3.007   6.709   5.955  0.6329  0.3346  0.3771
   91MOL   H11245292   3.018   6.819   5.830  0.9026 -1.5145  0.3083
   91MOL   H11345293   3.223   6.807   6.054 -1.1270  0.6569  0.3448
   91MOL   H11445294   3.198   6.536   5.978  0.7160 -1.0804 -0.6970
   91MOL   H11545295   3.343   6.609   6.039 -0.1297  2.7988 -0.6497
   91MOL   H11645296   3.483   6.555   5.851  0.6475 -0.9984 -0.0733
   91MOL   H11745297   3.350   6.502   5.757 -2.7342  0.2426  1.0010
   91MOL   H11845298   3.455   6.358   6.014 -0.4207 -2.0935  1.1737
   91MOL   H11945299   3.315   6.308   5.942 -0.8667  1.2414  0.3441
   91MOL   H12045300   3.430   6.265   5.732  2.9643  1.8581 -2.7368
   91MOL   H12145301   3.580   6.322   5.783  0.2168 -0.8237 -1.7122
   91MOL   H12245302   3.459   6.095   5.952 -1.3967  1.4600 -0.3915
   91MOL   H12345303   3.546   6.074   5.803  0.2539 -1.0233  0.4634
   91MOL   H12445304   3.698   6.062   5.997 -1.3769 -2.3987 -2.8053
   91MOL   H12545305   3.734   6.206   5.895 -0.6013 -1.0236 -0.4507
   91MOL   H12645306   3.653   6.226   6.040  1.1041 -1.1438  1.0747
   91MOL   C12745307   3.252   6.947   5.896  0.3355 -0.9867  0.6212
   91MOL   C12845308   3.404   6.972   5.920  0.1711  0.2183 -0.2936
   91MOL   O12945309   3.425   6.986   6.061 -0.5524  0.1154  0.0960
   91MOL   C13045310   3.510   6.877   6.106  0.0966  0.2979 -0.1722
   91MOL   C13145311   3.517   6.877   6.263 -0.0695 -0.6784 -0.4838
   91MOL   C13245312   3.395   6.801   6.319  0.2315 -0.2837  0.7224
   91MOL   C13345313   3.403   6.794   6.466  0.9581 -0.4054  0.7358
   91MOL   C13445314   3.517   6.705   6.525 -0.2388 -0.5656 -0.2763
   91MOL   C13545315   3.536   6.693   6.675 -0.2548 -0.3597 -1.1011
   91MOL   H13645316   3.242   6.944   5.787  0.3855  0.5391  0.5629
   91MOL   H13745317   3.188   7.027   5.931  0.4416 -0.3306 -0.6687
   91MOL   H13845318   3.459   6.885   5.883  2.4714  1.9552 -1.0133
   91MOL   H13945319   3.607   6.901   6.064 -0.0162  0.7390 -0.1822
   91MOL   H14045320   3.461   6.782   6.083  2.1955 -0.8746  0.1125
   91MOL   H14145321   3.526   6.978   6.304 -0.7615 -1.3335  1.3303
   91MOL   H14245322   3.607   6.819   6.284 -0.1146 -0.7289 -0.4314
   91MOL   H14345323   3.305   6.857   6.295  0.7015 -0.8577 -2.6247
   91MOL   H14445324   3.389   6.701   6.275  2.2999 -0.4682  0.8191
   91MOL   H14545325   3.392   6.898   6.498  1.1397  0.1058 -0.8417
   91MOL   H14645326   3.308   6.751   6.499 -0.4992  1.6323 -0.6567
   91MOL   H14745327   3.492   6.607   6.483 -0.0243 -0.8603  0.2798
   91MOL   H14845328   3.614   6.710   6.475 -0.4787  0.2967 -0.6711
   91MOL   H14945329   3.620   6.626   6.696 -0.8597 -0.5368  0.8972
   91MOL   H15045330   3.575   6.786   6.716  0.4676 -0.9118 -0.5277
   91MOL   H15145331   3.448   6.661   6.732  1.4662 -0.3748  1.6203
   91MOL   C15245332   3.459   7.095   5.854  0.2834  0.5401 -0.7762
   91MOL   C15345333   3.612   7.113   5.842  0.2110 -0.2361  0.1006
   91MOL   O15445334   3.651   7.043   5.726  0.4543  0.2575 -0.4708
   91MOL   C15545335   3.745   6.942   5.751 -0.3950  0.9868 -0.1320
   91MOL   C15645336   3.748   6.838   5.633 -0.4202  0.1659 -0.5893
   91MOL   C15745337   3.617   6.752   5.639  0.2893 -0.0112  0.1749
   91MOL   C15845338   3.603   6.636   5.538 -0.5585  0.6802  0.5319
   91MOL   C15945339   3.680   6.510   5.568  0.3426 -0.3005  0.2303
   91MOL   C16045340   3.798   6.488   5.484 -0.3440 -0.0515 -0.2766
   91MOL   H16145341   3.411   7.103   5.756 -0.4591  0.3364 -0.4378
   91MOL   H16245342   3.407   7.176   5.905  2.7827  0.6377  1.6896
   91MOL   H16345343   3.661   7.091   5.937 -2.8325  0.1358  1.8326
   91MOL   H16445344   3.730   6.879   5.839 -2.1988 -0.3419 -1.3367
   91MOL   H16545345   3.843   6.987   5.763 -0.6069  1.7352 -1.1017
   91MOL   H16645346   3.834   6.772   5.642  1.7679  3.0020  0.0363
   91MOL   H16745347   3.759   6.889   5.536 -0.1168  0.2232 -0.5258
   91MOL   H16845348   3.608   6.712   5.740  2.4417  0.5037  0.5984
   91MOL   H16945349   3.540   6.828   5.627  1.4126  1.3529  1.4515
   91MOL   H17045350   3.497   6.611   5.542 -0.3949 -0.2011 -0.3814
   91MOL   H17145351   3.627   6.659   5.434 -0.7653 -2.1561 -0.1966
   91MOL   H17245352   3.715   6.520   5.671  3.0913  0.3963 -0.7229
   91MOL   H17345353   3.621   6.419   5.576  1.3021 -0.8671  1.0004
   91MOL   H17445354   3.864   6.413   5.530 -0.1212  1.6115  2.2254
   91MOL   H17545355   3.783   6.450   5.383  0.1709  0.2505 -0.4701
   91MOL   H17645356   3.860   6.576   5.469  1.5705 -1.4392 -0.6733
   91MOL   C17745357   3.641   7.268   5.825  0.4121  0.7098  0.6631
   91MOL   C17845358   3.785   7.302   5.790 -0.4933  0.3133 -0.3928
   91MOL   O17945359   3.792   7.421   5.709 -0.6929  0.4825  0.5087
   91MOL   C18045360   3.804   7.385   5.570  0.0367 -0.2679 -1.1003
   91MOL   C18145361   3.778   7.502   5.479  0.4440 -0.9234  0.4948
   91MOL   C18245362   3.752   7.461   5.331  0.1374  0.3747  0.0111
   91MOL   C18345363   3.765   7.580   5.239  0.3051 -0.0144  0.3757
   91MOL   C18445364   3.744   7.535   5.094 -0.4001 -0.4055  0.6206
   91MOL   C18545365   3.748   7.649   4.991  0.2969  0.6323 -0.1882
   91MOL   H18645366   3.575   7.287   5.740 -1.2513 -1.7096  1.3503
   91MOL   H18745367   3.609   7.326   5.912 -0.2279 -0.1934  1.0391
   91MOL   H18845368   3.837   7.214   5.752  0.4436  1.2522 -1.2901
   91MOL   H18945369   3.725   7.313   5.548 -0.2502 -0.6316  1.0258
   91MOL   H19045370   3.899   7.337   5.549  1.1724  0.4949  2.0619
   91MOL   H19145371   3.865   7.567   5.486 -0.3634  0.4213 -1.5983
   91MOL   H19245372   3.698   7.566   5.518  1.3253  0.5122 -0.0167
   91MOL   H19345373   3.821   7.383   5.303 -0.3260  0.1958 -0.6499
   91MOL   H19445374   3.657   7.408   5.341  0.2037  0.2272 -0.1575
   91MOL   H19545375   3.708   7.664   5.280 -0.4084  0.2742 -1.1889
   91MOL   H19645376   3.867   7.619   5.235 -0.5997  2.5978  1.3387
   91MOL   H19745377   3.828   7.473   5.065 -0.0240  1.1603 -1.7177
   91MOL   H19845378   3.648   7.484   5.084 -2.5915  3.1698  2.5702
   91MOL   H19945379   3.692   7.738   5.021  0.8163  0.0597  2.6323
   91MOL   H20045380   3.850   7.684   4.976 -0.0809  1.6816 -0.3297
   91MOL   H20145381   3.726   7.613   4.891 -0.5445 -0.7563  0.4738
   91MOL   C20245382   3.860   7.342   5.912 -0.5217 -0.0369  0.5213
   91MOL   C20345383   4.012   7.350   5.898  0.1005  0.1184  0.2017
   91MOL   O20445384   4.060   7.218   5.908 -0.4355  0.2992 -0.4202
   91MOL   C20545385   4.186   7.195   5.859 -0.6484 -0.1796  0.7229
   91MOL   C20645386   4.189   7.091   5.747  0.1996  0.1523 -0.4775
   91MOL   C20745387   4.113   7.134   5.624 -0.4909  1.3203 -0.1359
   91MOL   C20845388   4.141   7.039   5.502  0.1209  0.2337 -0.0063
   91MOL   C20945389   4.055   7.077   5.380  0.3463  0.1552 -0.1634
   91MOL   C21045390   4.055   6.969   5.268  0.3483  0.3391  0.0731
   91MOL   H21145391   3.826   7.430   5.966  0.6058  2.1727 -2.2320
   91MOL   H21245392   3.831   7.265   5.983 -1.5012  2.0989  2.5001
   91MOL   H21345393   4.039   7.398   5.804  0.9982  2.1281  1.4478
   91MOL   H21445394   4.239   7.153   5.944  1.8382  0.8782 -0.2576
   91MOL   H21545395   4.244   7.279   5.822  0.7920 -0.3941  2.4492
   91MOL   H21645396   4.146   6.997   5.781 -0.3700  0.4932 -0.2600
   91MOL   H21745397   4.294   7.069   5.724  0.1258 -0.5665 -0.1630
   91MOL   H21845398   4.006   7.119   5.638 -0.5241  0.4234 -1.2781
   91MOL   H21945399   4.135   7.240   5.609  1.2699  0.7678 -1.5427
   91MOL   H22045400   4.245   7.035   5.469 -0.3776  1.8712 -1.8613
   91MOL   H22145401   4.115   6.939   5.537  0.2510  0.9525  2.2526
   91MOL   H22245402   3.950   7.093   5.407  0.4165 -0.5851  0.5704
   91MOL   H22345403   4.070   7.172   5.329  0.6646  0.5739  0.6999
   91MOL   H22445404   4.025   7.009   5.171  2.4424 -0.5936 -1.0149
   91MOL   H22545405   4.160   6.940   5.255  0.6842  1.9237 -0.9866
   91MOL   H22645406   3.997   6.882   5.297 -0.4544  0.1923 -1.8835
   91MOL   C22745407   4.073   7.448   6.000  0.0218  0.1350 -0.4297
   91MOL   C22845408   4.087   7.599   5.964  0.5923 -1.0319 -0.1595
   91MOL   O22945409   4.060   7.656   6.086  0.2246 -0.0631  0.3136
   91MOL   C23045410   3.995   0.009   6.077  0.6661 -0.1541 -0.3599
   91MOL   C23145411   3.972   0.053   6.221  0.4127 -0.6575  0.5233
   91MOL   C23245412   3.854   7.749   6.287 -0.5497 -0.3400 -0.6214
   91MOL   C23345413   3.858   7.772   6.439  0.0127  0.0011 -0.0239
   91MOL   C23445414   3.753   7.690   6.525  0.1378 -0.7693  0.1350
   91MOL   C23545415   3.765   7.708   6.679  0.1004  0.0912  0.2323
   91MOL   H23645416   4.036   7.433   6.102  2.2406  1.7577  0.6698
   91MOL   H23745417   4.173   7.414   6.026 -0.9403 -2.3007  0.1947
   91MOL   H23845418   4.000   7.612   5.899  2.1501  0.8295 -1.9622
   91MOL   H23945419   3.903   0.003   6.019  0.2451  1.0293  0.1758
   91MOL   H24045420   4.056   0.092   6.043 -0.1068  1.3649  1.8389
   91MOL   H24145421   3.941   0.158   6.226 -0.4927 -1.0136  3.9354
   91MOL   H24245422   4.065   0.050   6.278  1.5868  0.0872 -1.2963
   91MOL   H24345423   3.758   7.776   6.243 -1.6987 -1.3290  1.2153
   91MOL   H24445424   3.872   7.643   6.269  1.2365  0.0740 -1.3634
   91MOL   H24545425   3.954   7.741   6.481 -1.3895 -2.2435  1.6335
   91MOL   H24645426   3.849   0.100   6.457 -0.1575 -0.5084  3.2278
   91MOL   H24745427   3.651   7.715   6.497 -0.0551 -1.4240  0.2381
   91MOL   H24845428   3.754   7.583   6.504 -0.3718 -1.0787  1.6300
   91MOL   H24945429   3.691   7.662   6.745 -0.4273  1.1629  0.3970
   91MOL   H25045430   3.865   7.671   6.703 -0.2780 -0.3778  1.0814
   91MOL   H25145431   3.758   0.035   6.704 -0.1273 -0.2403  1.5792
   91MOL   C25245432   4.229   7.638   5.910  1.0517 -0.0480 -0.0351
   91MOL   C25345433   4.262   7.579   5.767 -0.4559 -0.7091  0.0869
   91MOL   O25445434   4.388   7.619   5.719 -0.0337 -0.0282 -0.0596
   91MOL   C25545435   4.502   7.541   5.762 -0.3713 -0.4091  0.7274
   91MOL   C25645436   4.640   7.590   5.704 -0.3502  0.5351  0.3181
   91MOL   C25745437   4.764   7.507   5.749 -0.1284 -0.8144 -0.0571
   91MOL   C25845438   4.898   7.570   5.704 -0.2743 -0.5303 -0.0369
   91MOL   C25945439   5.017   7.476   5.728  0.3061 -0.8985  0.3099
   91MOL   C26045440   5.026   7.346   5.644  0.2652 -0.3589 -0.3604
   91MOL   H26145441   4.230   7.745   5.888 -2.3240 -0.1985 -1.2731
   91MOL   H26245442   4.304   7.609   5.985  2.1923  0.2636 -1.0433
   91MOL   H26345443   4.257   7.470   5.773 -0.6964 -0.6986  0.0840
   91MOL   H26445444   4.495   7.439   5.725  1.8260 -0.3768  0.1342
   91MOL   H26545445   4.513   7.539   5.870  2.0589 -1.9581  0.4748
   91MOL   H26645446   4.650   7.695   5.733 -0.8920  0.2569  1.5214
   91MOL   H26745447   4.639   7.596   5.595  1.7811  0.7091  0.2753
   91MOL   H26845448   4.758   7.493   5.857  2.5270  0.3399  0.2838
   91MOL   H26945449   4.747   7.412   5.699 -4.2383 -0.8567  1.2653
   91MOL   H27045450   4.897   7.605   5.601  0.1229 -1.2594 -0.2987
   91MOL   H27145451   4.911   7.663   5.759  2.4951 -1.3494  0.7591
   91MOL   H27245452   5.104   7.536   5.701 -0.0992  0.1790  1.3594
   91MOL   H27345453   5.019   7.462   5.836  0.2544  1.0985  0.5938
   91MOL   H27445454   5.105   7.277   5.674  0.4651  0.3300  0.6998
   91MOL   H27545455   4.935   7.289   5.625 -0.4029  0.7356 -0.4562
   91MOL   H27645456   5.056   7.377   5.544  1.1997 -1.3612 -0.3997
   91MOL   C27745457   4.147   7.616   5.666 -0.3199  0.2301 -0.3091
   91MOL   C27845458   4.137   7.763   5.619  0.0931  0.1477 -0.5344
   91MOL   O27945459   4.110   7.777   5.481 -0.2118  0.7328  0.0848
   91MOL   C28045460   4.223   0.043   5.408  0.3644 -0.7274  0.2490
   91MOL   C28145461   4.196   0.045   5.264  0.4077 -0.8125  1.2949
   91MOL   C28245462   4.094   0.157   5.216 -0.8308  0.5120 -0.5521
   91MOL   C28345463   4.083   0.171   5.071 -0.4858  0.1757 -0.2440
   91MOL   C28445464   3.977   0.274   5.043 -0.6787  0.0374  0.5092
   91MOL   C28545465   3.996   0.345   4.913  0.1034 -0.3410  0.6325
   91MOL   H28645466   4.165   7.556   5.577 -1.9229 -1.4807  0.4808
   91MOL   H28745467   4.047   7.589   5.700 -1.4842  3.2892 -1.1589
   91MOL   H28845468   4.228   0.041   5.639  0.8696 -1.5431  0.8534
   91MOL   H28945469   4.306   7.758   5.438 -0.2661 -1.0989  1.2339
   91MOL   H29045470   4.241   0.143   5.447  2.8391 -0.3338 -1.7821
   91MOL   H29145471   4.151   7.730   5.230  1.2643  0.1536 -2.7989
   91MOL   H29245472   4.293   0.059   5.218  0.6784  3.0185  2.8844
   91MOL   H29345473   3.994   0.129   5.250  0.3786 -2.1160  0.9985
   91MOL   H29445474   4.116   0.252   5.265  1.6331  1.3654 -3.2133
   91MOL   H29545475   4.184   0.196   5.038 -0.4191 -1.2137 -1.1049
   91MOL   H29645476   4.077   0.071   5.028  3.2543 -0.3180  0.2251
   91MOL   H29745477   3.878   0.232   5.061 -1.5792  1.8719  0.0673
   91MOL   H29845478   3.986   0.353   5.118  0.4867 -0.3137  0.7401
   91MOL   H29945479   3.954   0.446   4.920 -0.1913 -0.5146  1.4665
   91MOL   H30045480   4.100   0.356   4.883  0.2083 -0.7907  0.8296
   91MOL   H30145481   3.942   0.302   4.829 -0.7739  2.8423 -0.5241
   91MOL   C30245482   4.030   0.051   5.692  0.2639  0.1489 -0.1338
   91MOL   C30345483   4.034   0.203   5.674 -0.0870 -0.0748 -0.4706
   91MOL   O30445484   4.157   0.237   5.732  0.0443  0.9148 -0.9465
   91MOL   C30545485   4.200   0.370   5.738 -0.1926 -0.2161  0.5111
   91MOL   C30645486   4.346   0.386   5.703  0.1802 -0.7904 -0.5882
   91MOL   C30745487   4.401   0.532   5.722 -0.7983 -0.1979 -0.1644
   91MOL   C30845488   4.360   0.634   5.621  0.1337 -0.2910  0.2420
   91MOL   C30945489   4.452   0.761   5.620 -0.3589  1.1593  0.0273
   91MOL   C31045490   4.471   0.834   5.752 -0.4319  0.4683  0.3419
   91MOL   H31145491   3.933   0.007   5.667  0.1505  0.6183 -0.5301
   91MOL   H31245492   4.034   0.039   5.801  0.8533  0.4079 -0.1253
   91MOL   H31345493   4.021   0.223   5.567  0.9186  1.0013 -0.4038
   91MOL   H31445494   4.166   0.422   5.827  1.1620  0.0993  0.8524
   91MOL   H31545495   4.145   0.427   5.662  0.1354 -2.2196 -1.2889
   91MOL   H31645496   4.353   0.336   5.607 -0.5762 -0.7368 -0.6671
   91MOL   H31745497   4.404   0.326   5.774  0.2448  0.2262  0.2337
   91MOL   H31845498   4.367   0.574   5.817  0.5653 -2.8106  1.5385
   91MOL   H31945499   4.510   0.532   5.718 -0.8265  0.6923 -0.9621
   91MOL   H32045500   4.364   0.596   5.519  0.4564  1.6038 -0.4761
   91MOL   H32145501   4.256   0.660   5.641 -0.4350  0.2435 -3.1872
   91MOL   H32245502   4.548   0.729   5.580 -1.2206 -0.1227 -1.0301
   91MOL   H32345503   4.421   0.835   5.547  0.3791 -1.4974 -3.1203
   91MOL   H32445504   4.534   0.776   5.819  1.8599  1.5528 -0.8095
   91MOL   H32545505   4.522   0.931   5.750  0.0030  0.2362 -1.9712
   91MOL   H32645506   4.376   0.836   5.805  0.5039 -2.0462  2.2135
   91MOL   C32745507   3.919   0.274   5.750  0.2946  0.8636 -0.7756
   91MOL   C32845508   3.774   0.270   5.697  0.2488 -0.3208  0.1690
   91MOL   O32945509   3.680   0.302   5.810 -0.3355 -0.1555 -0.3557
   91MOL   C33045510   3.645   0.189   5.886  0.3512  0.2616 -0.0810
   91MOL   C33145511   3.533   0.221   5.989  0.1448 -0.0419 -0.5628
   91MOL   C33245512   3.596   0.309   6.104 -0.4822  0.0713 -0.1603
   91MOL   C33345513   3.494   0.369   6.196  0.8438 -0.0788  0.7590
   91MOL   C33445514   3.409   0.265   6.271  0.2028 -0.3121  0.3692
   91MOL   C33545515   3.314   0.325   6.377  0.5582 -0.1559 -0.1512
   91MOL   H33645516   3.947   0.379   5.756  1.2381  0.5428  0.7195
   91MOL   H33745517   3.914   0.237   5.853 -0.8954 -2.8834 -2.1032
   91MOL   H33845518   3.758   0.174   5.647 -0.1159  0.1361 -0.5975
   91MOL   H33945519   3.737   0.142   5.921 -0.3784 -3.0560 -2.3504
   91MOL   H34045520   3.609   0.112   5.816  2.2450  0.6818 -1.5657
   91MOL   H34145521   3.476   0.134   6.020  1.4124 -0.5189  0.5152
   91MOL   H34245522   3.462   0.282   5.934  0.7275 -0.4421 -1.7963
   91MOL   H34345523   3.666   0.256   6.168 -1.0477  1.2365  1.4521
   91MOL   H34445524   3.667   0.384   6.069  1.6066 -1.1175  1.4449
   91MOL   H34545525   3.540   0.416   6.283 -0.4204  1.2697  0.7181
   91MOL   H34645526   3.434   0.448   6.150  0.5583 -0.7972 -0.1087
   91MOL   H34745527   3.354   0.207   6.196 -0.5402  0.3258  0.4243
   91MOL   H34845528   3.474   0.192   6.320  0.6146  0.9901  1.7869
   91MOL   H34945529   3.269   0.241   6.430  0.1356 -0.4510 -0.9620
   91MOL   H35045530   3.364   0.385   6.453  2.0376  0.5756 -1.6699
   91MOL   H35145531   3.231   0.384   6.338  0.5934  0.0859  0.1443
   91MOL   C35245532   3.748   0.377   5.586 -0.0971  0.9174  0.3281
   91MOL   C35345533   3.612   0.355   5.517  0.2674 -0.2251 -0.6362
   91MOL   O35445534   3.623   0.258   5.423 -0.4480  0.6487  0.2653
   91MOL   C35545535   3.491   0.202   5.392 -0.5274  0.6294 -0.5524
   91MOL   C35645536   3.509   0.057   5.340 -0.0620 -0.4552 -0.1051
   91MOL   C35745537   3.382   7.768   5.296 -0.2964 -0.4311 -0.0781
   91MOL   C35845538   3.406   7.614   5.292  0.2535  0.3782  0.3841
   91MOL   C35945539   3.275   7.531   5.266  0.4514  1.6449  0.2861
   91MOL   C36045540   3.315   7.382   5.253 -0.3079  0.1292  0.3129
   91MOL   H36145541   3.752   0.475   5.634  0.8964  1.5517 -1.0363
   91MOL   H36245542   3.832   0.380   5.516  1.1385 -1.4814  1.6275
   91MOL   H36345543   3.543   0.333   5.599 -0.6443  0.8079 -1.1055
   91MOL   H36445544   3.452   0.258   5.308 -1.0365  0.2767 -0.5586
   91MOL   H36545545   3.422   0.203   5.477  0.3989  0.5215  0.2123
   91MOL   H36645546   3.564   0.009   5.420 -2.8188 -0.8492  1.6122
   91MOL   H36745547   3.577   0.068   5.255 -0.4047 -2.6965 -0.7090
   91MOL   H36845548   3.305   7.776   5.373  1.8997 -0.5470  2.2071
   91MOL   H36945549   3.353   0.011   5.193 -0.6478  1.5506  0.4051
   91MOL   H37045550   3.476   7.588   5.212 -1.4345  1.4552 -1.4911
   91MOL   H37145551   3.444   7.585   5.390 -2.2278 -0.5388  1.1330
   91MOL   H37245552   3.195   7.545   5.339 -0.7450  0.9816 -0.8847
   91MOL   H37345553   3.220   7.561   5.177  1.7911  1.7853 -0.5035
   91MOL   H37445554   3.227   7.318   5.246 -0.3994 -0.0256  2.4858
   91MOL   H37545555   3.380   7.353   5.171 -0.7893 -0.1499  0.0277
   91MOL   H37645556   3.360   7.351   5.347  0.7979 -0.1660 -0.3113
   91MOL   C37745557   3.565   0.481   5.443 -0.0812 -0.0730 -0.2391
   91MOL   C37845558   3.518   0.601   5.535  0.0821  0.9102 -0.1504
   91MOL   O37945559   3.393   0.556   5.588 -0.0798 -0.0687  0.2566
   91MOL   C38045560   3.400   0.546   5.726  0.1364 -0.7675 -0.0113
   91MOL   C38145561   3.268   0.500   5.789  0.1339 -0.1953  0.3327
   91MOL   C38245562   3.232   0.352   5.742  0.2003 -0.1344  0.2780
   91MOL   C38345563   3.113   0.297   5.817  0.5002  0.0174  0.0918
   91MOL   C38445564   3.133   0.283   5.966 -1.0136  0.9231 -0.0834
   91MOL   C38545565   3.049   0.181   6.039  0.1742 -0.0507 -0.0323
   91MOL   H38645566   3.648   0.511   5.380 -0.1654  0.1096 -0.2631
   91MOL   H38745567   3.479   0.457   5.380 -0.1858  0.6271 -0.3680
   91MOL   H38845568   3.597   0.614   5.609  1.6082  2.3039 -1.9843
   91MOL   H38945569   3.434   0.642   5.765  1.1158 -0.9492 -0.4080
   91MOL   H39045570   3.482   0.487   5.766  0.7444  0.9891  1.4058
   91MOL   H39145571   3.191   0.572   5.760  0.6944  0.2058 -0.1726
   91MOL   H39245572   3.281   0.509   5.897  1.9941 -1.1256  0.2099
   91MOL   H39345573   3.214   0.346   5.635  1.1260 -0.6779  0.1477
   91MOL   H39445574   3.309   0.275   5.745 -0.5737 -0.8630  1.6957
   91MOL   H39545575   3.021   0.355   5.809  1.0668  1.0053  0.6549
   91MOL   H39645576   3.090   0.202   5.768 -2.4468 -0.3216  2.0045
   91MOL   H39745577   3.235   0.246   5.981 -1.2391  0.0562 -0.6563
   91MOL   H39845578   3.128   0.377   6.021  0.0178  0.8584  0.1325
   91MOL   H39945579   2.950   0.204   6.000 -0.6403 -0.6467  1.6649
   91MOL   H40045580   3.062   0.077   6.008  0.0503  0.6593 -2.5749
   91MOL   H40145581   3.044   0.191   6.147 -1.8146  0.8028 -0.1862
   91MOL   C40245582   3.499   0.726   5.443  0.2113  0.1356 -0.7128
   91MOL   C40345583   3.629   0.808   5.421 -0.4435 -0.5124  0.0328
   91MOL   O40445584   3.664   0.853   5.554  0.1670 -0.8322 -0.1736
   91MOL   C40545585   3.790   0.925   5.570  0.3160  0.9434 -0.0550
   91MOL   C40645586   3.858   0.890   5.698 -0.3131 -0.0456 -0.9765
   91MOL   C40745587   3.915   0.747   5.684  0.6298 -1.1302  0.2219
   91MOL   C40845588   3.975   0.688   5.812  0.7119  0.4952  0.0970
   91MOL   C40945589   4.097   0.761   5.870 -0.5178  0.1285  0.0028
   91MOL   C41045590   4.139   0.698   6.003 -0.2160  0.1961 -1.0783
   91MOL   H41145591   3.422   0.791   5.483  1.2843  1.0233 -0.0351
   91MOL   H41245592   3.460   0.699   5.345 -1.5528  0.5622 -0.1316
   91MOL   H41345593   3.713   0.744   5.391  1.3704  1.6487  0.4006
   91MOL   H41445594   3.770   1.030   5.549  1.5605  1.0140 -0.9199
   91MOL   H41545595   3.862   0.893   5.494  0.2406 -2.1437  1.1103
   91MOL   H41645596   3.791   0.906   5.782 -0.6818  0.1103 -1.2999
   91MOL   H41745597   3.932   0.968   5.717  0.6646 -1.5520  1.6857
   91MOL   H41845598   3.832   0.682   5.656  0.4078 -1.1611  0.9552
   91MOL   H41945599   3.989   0.745   5.604  0.7797  2.1638  0.2121
   91MOL   H42045600   3.899   0.686   5.890  1.1587  0.9496  0.5475
   91MOL   H42145601   4.010   0.585   5.800  3.1750  1.1680  1.2834
   91MOL   H42245602   4.177   0.773   5.798 -0.3269 -2.3046 -0.2431
   91MOL   H42345603   4.065   0.864   5.885 -2.2602 -0.5844  1.3624
   91MOL   H42445604   4.130   0.590   6.017  0.0249  0.3836  0.6697
   91MOL   H42545605   4.247   0.712   6.014 -0.3550  0.3649  0.1019
   91MOL   H42645606   4.088   0.741   6.089  0.7121 -1.5816  0.4047
   91MOL   C42745607   3.621   0.909   5.307 -0.4725  0.1760  0.7060
   91MOL   C42845608   3.653   0.848   5.169  0.1168 -0.3535  0.6291
   91MOL   O42945609   3.553   0.760   5.127 -0.0266  0.5065  0.1280
   91MOL   C43045610   3.614   0.631   5.091 -0.2634  0.2607 -0.1184
   91MOL   C43145611   3.518   0.539   5.021  0.0751 -0.6667 -0.1035
   91MOL   C43245612   3.546   0.394   4.998 -0.1626  0.2199 -0.2270
   91MOL   C43345613   3.435   0.313   4.930 -0.2436  0.0116 -0.9242
   91MOL   C43445614   3.462   0.163   4.904 -0.3177 -0.3759  0.2918
   91MOL   C43545615   3.355   0.076   4.847  0.0960 -0.1051  0.0778
   91MOL   H43645616   3.521   0.953   5.306 -0.8974 -0.7746 -0.0841
   91MOL   H43745617   3.698   0.985   5.321  2.2780 -1.9233 -2.2996
   91MOL   H43845618   3.751   0.804   5.186  1.0262  0.3181 -2.4829
   91MOL   H43945619   3.664   0.582   5.175  2.0767  2.1926 -0.3116
   91MOL   H44045620   3.696   0.636   5.019 -1.9795  1.3113 -2.0329
   91MOL   H44145621   3.484   0.588   4.929 -0.2322 -0.8593 -0.0907
   91MOL   H44245622   3.425   0.534   5.077 -0.5864 -0.1460 -1.1321
   91MOL   H44345623   3.633   0.384   4.934  0.1009  1.2314 -0.0318
   91MOL   H44445624   3.563   0.339   5.091  0.3120  1.6814  0.5510
   91MOL   H44545625   3.353   0.311   5.002  1.6492 -1.0582  1.2606
   91MOL   H44645626   3.414   0.364   4.836  0.4280  2.8596  0.4146
   91MOL   H44745627   3.546   0.154   4.835 -1.5549  0.2130 -1.3090
   91MOL   H44845628   3.493   0.131   5.004 -0.9330 -1.4745  0.1372
   91MOL   H44945629   3.406   7.761   4.823  1.4205  0.7025 -0.3032
   91MOL   H45045630   3.273   0.051   4.914  0.9546 -0.9348  0.8379
   91MOL   H45145631   3.323   0.109   4.748 -0.2465 -0.4891  0.0605
   91MOL   C45245632   3.677   0.961   5.058 -0.3059 -0.4234 -0.1628
   91MOL   C45345633   3.805   0.925   4.977  1.2388 -0.3440 -0.6650
   91MOL   O45445634   3.909   0.973   5.062  0.4826 -0.6091  0.5805
   91MOL   C45545635   4.043   0.941   5.035  0.2657  0.6891 -0.1877
   91MOL   C45645636   4.122   0.948   5.163 -0.2566 -0.6306 -0.5680
   91MOL   C45745637   4.273   0.931   5.141 -0.0533  0.3430 -0.0336
   91MOL   C45845638   4.368   0.952   5.265 -0.2629  0.0591  0.5393
   91MOL   C45945639   4.504   0.892   5.219  0.3781  0.0809  0.1381
   91MOL   C46045640   4.623   0.924   5.309 -0.1282  0.2292 -0.2277
   91MOL   H46145641   3.589   0.966   4.995 -0.4111  1.0860  0.0903
   91MOL   H46245642   3.683   1.063   5.098  0.3601 -0.8989  0.9793
   91MOL   H46345643   3.825   0.818   4.981 -0.2063 -0.6782 -1.7329
   91MOL   H46445644   4.077   1.006   4.954  1.8841 -0.4396 -0.4243
   91MOL   H46545645   4.054   0.839   4.998  0.2174 -0.0039  1.6758
   91MOL   H46645646   4.075   0.875   5.230  1.8446 -0.3197  1.3100
   91MOL   H46745647   4.102   1.042   5.215 -1.0218 -0.2396 -1.5627
   91MOL   H46845648   4.287   0.831   5.101  2.4892  0.7818 -0.2743
   91MOL   H46945649   4.306   1.005   5.068  0.0025 -0.5913 -0.9642
   91MOL   H47045650   4.391   1.056   5.290 -0.2626 -0.6786  3.8061
   91MOL   H47145651   4.330   0.899   5.352  0.3864 -3.0263 -0.9759
   91MOL   H47245652   4.487   0.785   5.205  2.4443 -0.0903 -1.3185
   91MOL   H47345653   4.533   0.933   5.122  0.9002  0.9954  0.6811
   91MOL   H47445654   4.670   1.020   5.289 -1.7301  1.0228 -0.2710
   91MOL   H47545655   4.606   0.922   5.416  0.4651  1.5337 -0.0981
   91MOL   H47645656   4.706   0.855   5.293  0.8887  0.5996  3.1097
   91MOL   C47745657   3.817   0.974   4.831 -0.1694 -0.1358  0.1946
   91MOL   C47845658   3.813   1.127   4.817 -0.2044  0.8792 -0.1188
   91MOL   O47945659   3.780   1.145   4.683  0.2302 -0.4510  0.0734
   91MOL   C48045660   3.796   1.279   4.634 -0.0599 -0.1211 -0.2445
   91MOL   C48145661   3.672   1.362   4.652 -0.2747 -0.7650  0.9152
   91MOL   C48245662   3.559   1.288   4.578  0.2991  0.0423  0.7827
   91MOL   C48345663   3.456   1.395   4.545 -0.3141  0.2623  0.0402
   91MOL   C48445664   3.363   1.349   4.439 -0.0122 -0.7300  0.9797
   91MOL   C48545665   3.245   1.451   4.414 -0.6200 -0.4490 -0.5122
   91MOL   H48645666   3.912   0.942   4.788  0.4521  0.3585  1.1609
   91MOL   H48745667   3.733   0.937   4.773 -1.1425  0.3430  1.2782
   91MOL   H48845668   3.724   1.155   4.873  0.3754  3.1627 -0.2855
   91MOL   H48945669   3.837   1.270   4.534  0.4077 -0.2475 -0.0415
   91MOL   H49045670   3.867   1.332   4.698  0.4155  0.7574 -1.4737
   91MOL   H49145671   3.700   1.448   4.590 -1.4161 -0.2917  1.0571
   91MOL   H49245672   3.663   1.378   4.759 -1.4991  3.3245  0.2814
   91MOL   H49345673   3.600   1.243   4.487  0.2545  0.4723  0.5518
   91MOL   H49445674   3.514   1.211   4.641  2.0457 -1.8906 -0.2614
   91MOL   H49545675   3.386   1.400   4.628 -0.5982 -0.5200 -0.1446
   91MOL   H49645676   3.504   1.489   4.518 -1.6006  0.7886 -0.4126
   91MOL   H49745677   3.407   1.336   4.340  2.1470 -0.2686  1.8555
   91MOL   H49845678   3.332   1.248   4.467 -0.0842 -0.6244  1.2848
   91MOL   H49945679   3.288   1.549   4.395 -3.7946  0.6111 -2.7038
   91MOL   H50045680   3.184   1.418   4.329 -0.2798 -0.7805 -0.6274
   91MOL   H50145681   3.173   1.458   4.496  0.2731  0.2290  0.2213
   91MOL   H50245682   3.905   1.174   4.852  0.7208 -1.3244  0.5018
   92MOL     C145683   1.007   6.379   4.856  0.1609 -0.7338  0.5919
   92MOL     C245684   1.124   6.473   4.804 -0.4900  0.0707  0.0358
   92MOL     O345685   1.144   6.442   4.666  0.3902 -0.7535  0.2577
   92MOL     C445686   1.179   6.560   4.587 -0.5629 -0.0787 -0.3027
   92MOL     C545687   1.195   6.505   4.448  0.9311 -0.6058 -0.0041
   92MOL     C645688   1.296   6.384   4.439  0.2521 -0.2248 -0.3445
   92MOL     C745689   1.329   6.336   4.295 -0.5096 -0.0291  0.0940
   92MOL     C845690   1.238   6.228   4.249  0.4304 -0.4956 -0.1021
   92MOL     C945691   1.293   6.151   4.128 -0.0706  0.0680 -0.1224
   92MOL    H1045692   1.000   6.382   4.965 -1.1854 -0.9122  0.5149
   92MOL    H1145693   0.909   6.412   4.825 -0.3312 -0.5656  2.2763
   92MOL    H1245694   1.084   6.574   4.813 -0.3192  0.2910 -1.4742
   92MOL    H1345695   1.260   6.625   4.616 -1.2430 -0.1961  1.9208
   92MOL    H1445696   1.097   6.631   4.589  0.2235  0.9738 -3.2350
   92MOL    H1545697   1.208   6.578   4.368 -2.5505  1.2036  0.9368
   92MOL    H1645698   1.096   6.474   4.415  0.9917  0.7327 -1.5207
   92MOL    H1745699   1.381   6.428   4.491  0.6621 -0.8953 -0.4436
   92MOL    H1845700   1.270   6.303   4.506 -1.1862 -0.0706 -0.7015
   92MOL    H1945701   1.319   6.413   4.219  2.5206 -1.8952 -2.2716
   92MOL    H2045702   1.428   6.292   4.308 -1.9668 -3.3072  0.5977
   92MOL    H2145703   1.136   6.259   4.229  1.3144  2.2124 -0.6036
   92MOL    H2245704   1.257   6.158   4.331  0.6539  0.6192  0.8051
   92MOL    H2345705   1.310   6.213   4.040  1.8670 -0.6415 -0.2685
   92MOL    H2445706   1.384   6.102   4.163 -0.8185 -0.9483  0.4238
   92MOL    H2545707   1.219   6.073   4.110  0.2713 -0.3623  0.3339
   92MOL    H2645708   1.015   6.284   4.803  2.2487 -0.3112  0.0860
   92MOL    C2745709   1.249   6.446   4.884 -0.8912 -0.2504  0.2096
   92MOL    C2845710   1.331   6.317   4.850  0.6732  0.4014  0.4390
   92MOL    O2945711   1.473   6.350   4.858  0.0266  0.3205 -0.0227
   92MOL    C3045712   1.533   6.351   4.729  0.3544  0.4664 -0.3736
   92MOL    C3145713   1.684   6.375   4.759  0.2783 -0.2769  0.7094
   92MOL    C3245714   1.760   6.360   4.626 -0.1941  0.2144 -0.2368
   92MOL    C3345715   1.908   6.388   4.627  0.8689  0.2148  0.0844
   92MOL    C3445716   1.986   6.289   4.715  0.1104 -0.4121  0.5724
   92MOL    C3545717   2.132   6.327   4.711  0.1397 -0.3051 -0.1960
   92MOL    H3645718   1.311   6.535   4.880  0.3186 -1.1196 -0.8602
   92MOL    H3745719   1.218   6.424   4.987  1.5455  0.3314  1.1113
   92MOL    H3845720   1.306   6.298   4.745 -2.1558  0.4457  1.0772
   92MOL    H3945721   1.497   6.432   4.665 -0.9193  0.4409  0.2965
   92MOL    H4045722   1.515   6.253   4.686 -0.1559  0.3839  0.0278
   92MOL    H4145723   1.714   6.303   4.834  4.2280  1.1644  0.6107
   92MOL    H4245724   1.687   6.473   4.808 -1.9571  0.0867  0.1751
   92MOL    H4345725   1.753   6.263   4.576  3.0722 -0.2098  0.0430
   92MOL    H4445726   1.724   6.425   4.546  1.9955  1.1043 -0.5220
   92MOL    H4545727   1.940   6.395   4.523  2.0225  0.9140  0.4633
   92MOL    H4645728   1.921   6.489   4.667 -1.6559  0.2941  0.7271
   92MOL    H4745729   1.943   6.288   4.815  1.0392 -3.4970  0.9927
   92MOL    H4845730   1.973   6.188   4.677  0.2309 -0.6405  1.1377
   92MOL    H4945731   2.188   6.246   4.758  0.7577  0.2758  0.0804
   92MOL    H5045732   2.160   6.337   4.607  1.3639  0.5550  0.2036
   92MOL    H5145733   2.156   6.416   4.770  0.5541 -2.5156  3.1112
   92MOL    C5245734   1.295   6.191   4.925 -0.2450 -0.1023  0.0548
   92MOL    C5345735   1.332   6.057   4.856  0.5158  0.5108  1.2570
   92MOL    O5445736   1.345   5.958   4.959 -0.2308  0.0375 -0.3777
   92MOL    C5545737   1.466   5.879   4.977 -1.3325 -0.8193 -0.6352
   92MOL    C5645738   1.443   5.773   5.076  0.5635 -0.5430 -0.5273
   92MOL    C5745739   1.321   5.688   5.041  0.1999  0.2366 -0.1483
   92MOL    C5845740   1.254   5.619   5.167 -0.0012 -0.3521  0.7293
   92MOL    C5945741   1.132   5.528   5.145 -0.3595 -0.3332  0.3540
   92MOL    C6045742   1.150   5.392   5.064  0.0625 -0.9080 -0.1888
   92MOL    H6145743   1.188   6.187   4.942 -0.3282 -0.4957 -0.5508
   92MOL    H6245744   1.346   6.188   5.022 -1.4327  0.4902  0.7075
   92MOL    H6345745   1.431   6.076   4.814  0.3565  1.4427  1.2927
   92MOL    H6445746   1.549   5.933   5.023 -2.6000 -0.3796  1.1811
   92MOL    H6545747   1.499   5.838   4.881 -0.1421 -2.2034  0.3591
   92MOL    H6645748   1.420   5.830   5.166  1.9046  0.4525 -0.8033
   92MOL    H6745749   1.537   5.722   5.094  0.6323 -0.1721  0.1686
   92MOL    H6845750   1.240   5.741   4.992 -0.2096 -0.7632 -0.5769
   92MOL    H6945751   1.350   5.607   4.974 -0.9079 -0.7951  0.5838
   92MOL    H7045752   1.322   5.569   5.236  2.1979  1.1492 -0.3230
   92MOL    H7145753   1.229   5.702   5.233 -1.7008 -0.9178  0.8397
   92MOL    H7245754   1.089   5.504   5.243 -0.3094 -2.1570 -0.0395
   92MOL    H7345755   1.055   5.581   5.090 -1.4924 -0.6045  1.6391
   92MOL    H7445756   1.060   5.339   5.033  1.0641 -1.4821 -2.2234
   92MOL    H7545757   1.222   5.398   4.982  1.3270 -2.1943  0.7800
   92MOL    H7645758   1.200   5.326   5.136 -0.0736  1.3823  2.0669
   92MOL    C7745759   1.220   6.017   4.753  0.2119  0.0549 -0.7510
   92MOL    C7845760   1.270   5.924   4.643  0.2356 -0.0291 -0.7831
   92MOL    O7945761   1.349   6.004   4.558 -0.5042  0.4007 -0.0764
   92MOL    C8045762   1.430   5.931   4.467  1.2255 -0.0429 -0.3200
   92MOL    C8145763   1.568   5.998   4.466 -0.1899 -0.2034 -0.7357
   92MOL    C8245764   1.661   5.940   4.354  0.6284  0.3566  0.3201
   92MOL    C8345765   1.787   6.030   4.317 -0.4972  0.5630 -0.1468
   92MOL    C8445766   1.896   5.998   4.423  0.8841 -0.1642  0.1148
   92MOL    C8545767   2.028   6.073   4.403 -0.6553  0.0085  0.5428
   92MOL    H8645768   1.173   6.102   4.703  2.0166  1.9106  0.5974
   92MOL    H8745769   1.135   5.972   4.805 -1.1868  2.6143 -0.7472
   92MOL    H8845770   1.335   5.849   4.688  0.2705  0.4571 -0.0205
   92MOL    H8945771   1.388   5.913   4.369 -1.2459  0.2211  0.6525
   92MOL    H9045772   1.453   5.834   4.511  1.1788  1.1181  2.3625
   92MOL    H9145773   1.619   5.999   4.562 -0.9657 -1.9436 -0.2713
   92MOL    H9245774   1.554   6.105   4.451  1.0977  0.0825  0.0385
   92MOL    H9345775   1.694   5.842   4.389  1.1712  0.4008 -0.0688
   92MOL    H9445776   1.595   5.929   4.268  0.6027 -1.4674  0.5496
   92MOL    H9545777   1.813   5.986   4.220  2.6081  2.1776 -0.0800
   92MOL    H9645778   1.761   6.134   4.299 -1.4869 -0.0923 -2.7523
   92MOL    H9745779   1.844   6.044   4.507  0.2293  0.2422 -0.5072
   92MOL    H9845780   1.914   5.890   4.431  0.9945 -0.0514  1.5154
   92MOL    H9945781   2.100   6.061   4.483  1.6027  2.6939 -1.0078
   92MOL   H10045782   2.081   6.042   4.314  1.0536 -0.4794  1.7174
   92MOL   H10145783   2.019   6.182   4.409 -1.1611 -0.0386  0.7108
   92MOL   C10245784   1.147   5.869   4.569 -0.3031  0.0072  0.0804
   92MOL   C10345785   1.080   5.741   4.623  0.1020 -0.3371 -0.2151
   92MOL   O10445786   0.935   5.761   4.607  0.3507 -0.2711  0.5371
   92MOL   C10545787   0.864   5.791   4.725 -0.6708  0.0298  0.2085
   92MOL   C10645788   0.714   5.828   4.682  0.7368  0.4865  0.1431
   92MOL   C10745789   0.622   5.705   4.680  0.2289 -0.0482  0.2450
   92MOL   C10845790   0.478   5.737   4.638 -0.2744  0.2819 -0.0056
   92MOL   C10945791   0.406   5.608   4.579 -0.7629 -0.2590  0.0536
   92MOL   C11045792   0.403   5.492   4.677 -0.7917  0.4541  0.6152
   92MOL   H11145793   1.069   5.944   4.565 -0.3697  0.1230  2.6201
   92MOL   H11245794   1.176   5.854   4.465  0.1495 -0.9352  0.3303
   92MOL   H11345795   1.101   5.727   4.729  2.4522 -0.5762 -0.6803
   92MOL   H11445796   0.911   5.875   4.777 -0.2579 -0.2521  0.2952
   92MOL   H11545797   0.878   5.708   4.794 -2.2007 -2.2014 -2.0536
   92MOL   H11645798   0.723   5.864   4.579 -1.2368  1.7146  0.3848
   92MOL   H11745799   0.671   5.912   4.735  0.2713 -0.2144  0.8817
   92MOL   H11845800   0.665   5.632   4.611 -2.3638  0.5371 -2.1072
   92MOL   H11945801   0.620   5.651   4.775  1.4228 -0.1224  0.2252
   92MOL   H12045802   0.416   5.776   4.718 -0.3788  0.6521 -0.2685
   92MOL   H12145803   0.488   5.810   4.558  0.4411 -0.9249 -1.0587
   92MOL   H12245804   0.300   5.629   4.566 -0.6388  1.0805  1.1212
   92MOL   H12345805   0.450   5.580   4.484 -1.1485 -0.3956 -0.0826
   92MOL   H12445806   0.504   5.464   4.705  0.0101  0.3076 -2.2856
   92MOL   H12545807   0.357   5.524   4.771  0.0871  0.9035  0.8989
   92MOL   H12645808   0.354   5.400   4.646 -0.5860  0.8208 -0.8138
   92MOL   C12745809   1.116   5.619   4.539 -0.3164 -0.6696 -0.4112
   92MOL   C12845810   1.259   5.563   4.554 -0.0258  0.7858  0.2174
   92MOL   O12945811   1.280   5.490   4.434  0.4182  0.2163 -0.0735
   92MOL   C13045812   1.349   5.561   4.331 -0.7559  0.1727  0.6100
   92MOL   C13145813   1.351   5.480   4.201  0.1539 -0.4814 -0.3215
   92MOL   C13245814   1.381   5.575   4.084  0.0696  0.1528 -0.3139
   92MOL   C13345815   1.400   5.501   3.944  0.2129  0.3103 -0.3440
   92MOL   C13445816   1.395   5.595   3.820  0.5123  0.5269  0.4195
   92MOL   C13545817   1.513   5.697   3.816  0.5212  0.0465  0.2105
   92MOL   H13645818   1.044   5.541   4.564  1.0267 -1.6870  0.3749
   92MOL   H13745819   1.098   5.644   4.435 -0.3763  1.2131  0.0296
   92MOL   H13845820   1.320   5.654   4.563  0.6722  0.2674  0.7977
   92MOL   H13945821   1.449   5.586   4.366 -0.5734  1.1109 -0.5602
   92MOL   H14045822   1.297   5.656   4.321  0.0215  0.6431  1.0223
   92MOL   H14145823   1.248   5.446   4.197 -1.7845  4.8666  0.7764
   92MOL   H14245824   1.416   5.393   4.191  0.5340 -0.0757 -1.4644
   92MOL   H14345825   1.305   5.652   4.078  0.0120  0.0632 -0.7332
   92MOL   H14445826   1.473   5.624   4.117 -0.1765  0.4079  0.0034
   92MOL   H14545827   1.498   5.454   3.942  0.8473  1.5905  0.1161
   92MOL   H14645828   1.332   5.417   3.929 -1.1518  1.5419 -1.1396
   92MOL   H14745829   1.412   5.532   3.733  1.0984 -0.2288  1.0775
   92MOL   H14845830   1.296   5.642   3.818 -0.0455 -0.5570  1.7227
   92MOL   H14945831   1.504   5.768   3.898  2.2928 -0.8955  1.2355
   92MOL   H15045832   1.609   5.646   3.814  0.6149  0.2233  0.1363
   92MOL   H15145833   1.478   5.745   3.724 -3.0872 -1.1484  0.8913
   92MOL   C15245834   1.289   5.483   4.685  0.0843  0.9754 -0.7045
   92MOL   C15345835   1.437   5.451   4.700  0.3166  0.4134  0.7195
   92MOL   O15445836   1.504   5.576   4.714 -0.5360 -0.1952  0.2700
   92MOL   C15545837   1.621   5.573   4.627  0.6261  0.5817 -0.0005
   92MOL   C15645838   1.694   5.702   4.662  0.5020  0.4082  0.1738
   92MOL   C15745839   1.767   5.708   4.794  0.2164  0.0987  0.1634
   92MOL   C15845840   1.837   5.840   4.803 -0.2337  0.4244  0.0854
   92MOL   C15945841   1.924   5.853   4.931 -0.3063 -0.2488  0.1347
   92MOL   C16045842   1.941   5.993   4.962  0.2943  1.0396 -0.0411
   92MOL   H16145843   1.261   5.537   4.775 -2.9310  0.4299 -1.2596
   92MOL   H16245844   1.225   5.394   4.690 -2.8883  3.0025 -1.0867
   92MOL   H16345845   1.465   5.390   4.615 -1.4997 -1.5563  1.4684
   92MOL   H16445846   1.598   5.567   4.520 -2.8242  0.3054  0.6835
   92MOL   H16545847   1.686   5.489   4.650  1.6340  1.4647  0.3936
   92MOL   H16645848   1.612   5.772   4.681 -0.0053 -0.5394  1.5910
   92MOL   H16745849   1.751   5.753   4.585  1.1112 -0.0659  0.3114
   92MOL   H16845850   1.701   5.684   4.877  0.1178  0.8242  0.2961
   92MOL   H16945851   1.844   5.631   4.801  0.3677  0.2420  0.0840
   92MOL   H17045852   1.899   5.866   4.718  0.0793 -1.5420 -0.3226
   92MOL   H17145853   1.755   5.912   4.814 -1.5925 -0.8163 -1.6677
   92MOL   H17245854   1.864   5.796   5.002 -2.1287 -1.2870 -2.2079
   92MOL   H17345855   2.018   5.798   4.925  0.7204  1.4613  0.0884
   92MOL   H17445856   2.008   5.991   5.049  0.4693 -0.7557 -0.2086
   92MOL   H17545857   2.002   6.039   4.885  2.9111  0.2298  1.4701
   92MOL   H17645858   1.853   6.054   4.982 -0.2018  0.3967 -0.2924
   92MOL   C17745859   1.465   5.366   4.823 -0.6496  0.2111  0.3887
   92MOL   C17845860   1.408   5.219   4.839 -0.1024 -0.0172  0.0341
   92MOL   O17945861   1.453   5.138   4.731 -0.1688  1.1215  0.3862
   92MOL   C18045862   1.370   5.119   4.614  0.0554 -0.3459 -0.2662
   92MOL   C18145863   1.418   4.998   4.530 -0.0333  0.4334 -0.2369
   92MOL   C18245864   1.342   4.969   4.400 -0.8449 -0.5494 -0.4294
   92MOL   C18345865   1.393   4.836   4.339  0.3386 -0.8203 -0.1843
   92MOL   C18445866   1.346   4.816   4.193  0.0701  0.4233  0.1712
   92MOL   C18545867   1.367   4.675   4.136 -0.2876  0.6160 -0.0198
   92MOL   H18645868   1.570   5.339   4.824 -1.1217 -1.6982  0.0348
   92MOL   H18745869   1.438   5.416   4.916  0.6790 -1.3204  1.6183
   92MOL   H18845870   1.300   5.228   4.840 -0.1370 -0.3739  2.1689
   92MOL   H18945871   1.382   5.211   4.558  2.0241  0.3535  1.2556
   92MOL   H19045872   1.263   5.100   4.629 -0.1194 -1.2137 -2.4407
   92MOL   H19145873   1.412   4.910   4.594 -1.8064 -0.6422 -1.8473
   92MOL   H19245874   1.525   4.994   4.512 -0.1772  1.9582 -1.5013
   92MOL   H19345875   1.234   4.962   4.412 -0.8088 -2.6826 -1.2224
   92MOL   H19445876   1.369   5.047   4.329  0.9516 -0.2403  0.5653
   92MOL   H19545877   1.501   4.844   4.336  0.3131  0.2229  1.0568
   92MOL   H19645878   1.378   4.753   4.408 -0.2621 -1.1595 -0.7208
   92MOL   H19745879   1.241   4.839   4.174 -0.0056 -0.0330  0.0396
   92MOL   H19845880   1.406   4.881   4.131 -2.9239  0.0128 -3.3626
   92MOL   H19945881   1.345   4.666   4.030  2.1151  1.0072 -0.5897
   92MOL   H20045882   1.470   4.642   4.150 -0.6012 -0.7698 -0.9249
   92MOL   H20145883   1.299   4.619   4.201  0.2200  0.5656  0.4713
   92MOL   C20245884   1.459   5.147   4.964  0.4605  0.0697  0.0136
   92MOL   C20345885   1.436   5.000   4.988 -0.6438 -0.0688 -0.3921
   92MOL   O20445886   1.309   4.980   5.041 -0.2681 -0.2488 -0.0263
   92MOL   C20545887   1.205   4.938   4.953 -0.0088 -0.2351  0.2638
   92MOL   C20645888   1.079   4.894   5.025  0.1050  0.2680 -0.3553
   92MOL   C20745889   1.000   5.026   5.069 -0.1444  0.2940  0.1082
   92MOL   C20845890   0.883   4.990   5.169 -0.5165 -0.9677 -0.1597
   92MOL   C20945891   0.780   4.897   5.105  0.3252  0.5999 -0.2314
   92MOL   C21045892   0.640   4.898   5.160 -0.2215  0.0221  0.4429
   92MOL   H21145893   1.567   5.161   4.962  0.4921 -0.0188  0.8358
   92MOL   H21245894   1.432   5.204   5.053 -1.4072 -1.4458  0.4327
   92MOL   H21345895   1.441   4.942   4.896 -1.1513 -0.8310  0.0704
   92MOL   H21445896   1.233   4.856   4.887  0.2845 -0.8436  1.1229
   92MOL   H21545897   1.180   5.017   4.883 -1.5682  1.8520  3.0753
   92MOL   H21645898   1.100   4.849   5.123  0.0582  0.1657 -0.3936
   92MOL   H21745899   1.019   4.827   4.964  0.1386 -0.7001  0.6484
   92MOL   H21845900   1.062   5.098   5.123  1.0553  0.7307 -1.7944
   92MOL   H21945901   0.959   5.081   4.984 -0.4661 -0.9565 -0.5670
   92MOL   H22045902   0.906   4.940   5.263  0.1018 -0.8277 -0.2362
   92MOL   H22145903   0.850   5.087   5.206 -0.4584 -0.8206 -0.4875
   92MOL   H22245904   0.773   4.931   5.002 -0.2300 -0.3712 -0.5205
   92MOL   H22345905   0.811   4.793   5.109 -1.7620  0.0015  1.0030
   92MOL   H22445906   0.637   4.857   5.261  0.6321 -1.2628 -0.0310
   92MOL   H22545907   0.596   4.997   5.148 -0.1662 -0.1159 -1.0235
   92MOL   H22645908   0.570   4.829   5.111 -0.2213 -0.0382  0.5269
   92MOL   C22745909   1.525   4.949   5.100  0.4475 -0.1890 -0.0429
   92MOL   C22845910   1.504   4.796   5.117  1.0909  0.0956  0.1155
   92MOL   O22945911   1.542   4.741   4.994 -0.4926 -0.5531 -0.8897
   92MOL   C23045912   1.471   4.641   4.944 -0.1549  0.3478  0.0891
   92MOL   C23145913   1.552   4.594   4.816  0.0908  0.6260  0.0589
   92MOL   C23245914   1.484   4.487   4.720  0.2491 -0.3634 -0.3558
   92MOL   C23345915   1.570   4.451   4.603  0.6085 -0.5639 -0.5278
   92MOL   C23445916   1.497   4.364   4.497 -0.5416 -0.2409 -0.4894
   92MOL   C23545917   1.574   4.336   4.370 -0.1995  0.2083  0.3056
   92MOL   H23645918   1.631   4.954   5.079  0.4549 -3.6287 -1.2212
   92MOL   H23745919   1.498   5.003   5.190  2.3050 -0.1383  0.4943
   92MOL   H23845920   1.401   4.776   5.146  0.8042  0.2578 -0.7886
   92MOL   H23945921   1.376   4.684   4.915  0.5383  0.4850 -2.0782
   92MOL   H24045922   1.445   4.567   5.020 -0.5389 -0.2559 -0.6162
   92MOL   H24145923   1.643   4.544   4.850  0.4381  0.2691 -1.3478
   92MOL   H24245924   1.589   4.681   4.763  1.2933 -0.5560 -1.0966
   92MOL   H24345925   1.451   4.399   4.775  0.5272 -0.1981  0.0786
   92MOL   H24445926   1.392   4.531   4.681  0.8917  0.6868 -0.7196
   92MOL   H24545927   1.611   4.541   4.558  0.1936 -0.6274 -1.0478
   92MOL   H24645928   1.654   4.401   4.650  0.3895  0.1046  0.5867
   92MOL   H24745929   1.457   4.268   4.531 -1.7650  0.4319 -0.0033
   92MOL   H24845930   1.408   4.420   4.466  0.0456  0.3333 -1.1386
   92MOL   H24945931   1.506   4.279   4.306 -1.3419  1.1389  0.6718
   92MOL   H25045932   1.594   4.422   4.306  0.1542 -0.6012 -0.6811
   92MOL   H25145933   1.670   4.286   4.366 -1.0254 -1.4507  0.7785
   92MOL   C25245934   1.600   4.743   5.227  0.3308  0.4998  0.0968
   92MOL   C25345935   1.581   4.787   5.372  0.4604  0.5302  0.8152
   92MOL   O25445936   1.702   4.770   5.443  0.1434  0.0352 -0.0271
   92MOL   C25545937   1.780   4.893   5.461 -0.4634  0.2257 -0.4147
   92MOL   C25645938   1.916   4.855   5.517  0.2189 -0.0870  0.5389
   92MOL   C25745939   1.916   4.751   5.629 -0.6956 -0.3135 -0.2202
   92MOL   C25845940   2.055   4.699   5.672 -0.5269  0.3378 -0.0906
   92MOL   C25945941   2.136   4.800   5.761  0.2779  0.5905  0.9326
   92MOL   C26045942   2.285   4.755   5.763  0.2819  0.7659  0.7496
   92MOL   H26145943   1.600   4.635   5.217 -0.5181  0.3961  1.1494
   92MOL   H26245944   1.697   4.776   5.189 -0.1946  0.9918 -0.8283
   92MOL   H26345945   1.566   4.895   5.372  1.2659  0.6764 -1.6160
   92MOL   H26445946   1.725   4.953   5.534 -2.3147 -1.0539 -0.7506
   92MOL   H26545947   1.801   4.948   5.369  2.6798  3.1059  1.8817
   92MOL   H26645948   1.964   4.951   5.534 -2.2077  1.1031  0.8957
   92MOL   H26745949   1.972   4.815   5.433  0.2918 -0.1516  0.6173
   92MOL   H26845950   1.845   4.790   5.701 -0.5623  0.2490 -0.3941
   92MOL   H26945951   1.861   4.668   5.584 -1.5453  0.5174 -0.7312
   92MOL   H27045952   2.033   4.611   5.732 -0.7037  0.0658 -0.5465
   92MOL   H27145953   2.117   4.662   5.589  0.4231 -1.3652  1.3331
   92MOL   H27245954   2.145   4.900   5.720 -0.9983  0.8251  1.1906
   92MOL   H27345955   2.101   4.805   5.864  3.1360  3.4393  1.8386
   92MOL   H27445956   2.303   4.658   5.810  1.2067  0.5637  0.0142
   92MOL   H27545957   2.319   4.745   5.660 -2.5535  0.3537 -0.1869
   92MOL   H27645958   2.343   4.825   5.823  1.7842  0.0045  0.2131
   92MOL   C27745959   1.477   4.707   5.443 -0.6564  0.1433 -0.1573
   92MOL   C27845960   1.331   4.746   5.416 -0.1181  0.5267  0.1950
   92MOL   O27945961   1.255   4.621   5.396  0.0937  0.6515  0.8574
   92MOL   C28045962   1.265   4.546   5.276 -0.1191 -0.5401 -0.3842
   92MOL   C28145963   1.225   4.404   5.305 -0.9089 -0.0012 -0.5042
   92MOL   C28245964   1.228   4.320   5.171 -0.3835  0.4757 -0.1748
   92MOL   C28345965   1.182   4.177   5.219 -0.1864 -0.7405  0.4363
   92MOL   C28445966   1.174   4.091   5.103  0.0353 -0.3411  0.0895
   92MOL   C28545967   1.095   3.967   5.132  0.1551  0.3312 -0.7705
   92MOL   H28645968   1.486   4.601   5.417  2.2733  0.6235 -1.2242
   92MOL   H28745969   1.498   4.711   5.550 -3.2375 -0.2046  0.3949
   92MOL   H28845970   1.328   4.807   5.326  0.5684 -0.5870 -0.5921
   92MOL   H28945971   1.371   4.541   5.250  0.1612 -0.0169  0.6295
   92MOL   H29045972   1.201   4.603   5.208  0.2303 -0.3467 -0.5543
   92MOL   H29145973   1.120   4.412   5.335 -0.2667 -0.6120  2.0963
   92MOL   H29245974   1.289   4.361   5.383 -1.0330  0.0801 -0.3582
   92MOL   H29345975   1.160   4.354   5.093  2.4195 -0.6768 -3.2318
   92MOL   H29445976   1.328   4.301   5.131 -0.4050  0.8175 -0.3914
   92MOL   H29545977   1.249   4.125   5.288  0.8933 -2.1405 -1.6204
   92MOL   H29645978   1.079   4.178   5.254 -0.1926 -1.6029  0.4487
   92MOL   H29745979   1.107   4.140   5.031  1.3394 -0.8459 -1.4944
   92MOL   H29845980   1.273   4.076   5.060 -0.1504  0.4914 -0.6524
   92MOL   H29945981   1.142   3.912   5.214  1.9886 -0.0237 -2.0403
   92MOL   H30045982   1.002   3.998   5.179 -0.5497 -0.9159 -1.3181
   92MOL   H30145983   1.078   3.898   5.049  1.9311 -0.1790 -0.7290
   92MOL   C30245984   1.263   4.813   5.535  0.0323 -0.0644 -0.1619
   92MOL   C30345985   1.312   4.953   5.568 -0.9657 -0.4528 -0.2543
   92MOL   O30445986   1.308   4.976   5.706  0.0055  0.5412 -0.3462
   92MOL   C30545987   1.380   4.893   5.801  0.1942  0.2695  0.6122
   92MOL   C30645988   1.477   4.976   5.887 -0.5942 -0.5650 -0.1104
   92MOL   C30745989   1.597   5.023   5.801  0.3023  0.1358  0.3119
   92MOL   C30845990   1.706   5.089   5.882 -0.1164  0.0605 -0.4126
   92MOL   C30945991   1.830   5.136   5.797 -0.4322  0.2495  0.7532
   92MOL   C31045992   1.929   5.225   5.873  0.1013 -0.0285 -0.0243
   92MOL   H31145993   1.156   4.812   5.513 -0.2633 -0.2766  1.2162
   92MOL   H31245994   1.270   4.739   5.615  0.0079  1.6642  1.4787
   92MOL   H31345995   1.419   4.960   5.546 -0.7419  0.2832  1.0268
   92MOL   H31445996   1.433   4.812   5.750 -1.3245 -0.5546  0.3206
   92MOL   H31545997   1.304   4.856   5.870 -1.9813  0.4269 -1.6150
   92MOL   H31645998   1.517   4.907   5.960  0.9049 -1.0157 -1.3278
   92MOL   H31745999   1.433   5.062   5.939 -0.0810  0.6109 -1.5705
   92MOL   H31846000   1.631   4.953   5.725  1.1401  1.1626 -0.2704
   92MOL   H31946001   1.555   5.098   5.734  0.3039 -0.4048 -0.2941
   92MOL   H32046002   1.670   5.181   5.926  0.4238  0.7967 -1.4775
   92MOL   H32146003   1.736   5.028   5.967 -0.2629  1.5067  0.6893
   92MOL   H32246004   1.890   5.049   5.771 -0.9279  0.9148 -2.8353
   92MOL   H32346005   1.800   5.171   5.699  2.8615  1.5923  0.1904
   92MOL   H32446006   1.883   5.312   5.920  1.2284  1.6137 -1.8594
   92MOL   H32546007   1.991   5.179   5.949  1.4947  0.1098 -1.0467
   92MOL   H32646008   1.992   5.266   5.793 -0.3217  0.7941  0.0596
   92MOL   C32746009   1.233   5.059   5.494  0.0359  0.1318 -0.5820
   92MOL   C32846010   1.276   5.211   5.524  0.1098  0.3070 -0.3811
   92MOL   O32946011   1.399   5.228   5.453  0.4495  0.2466 -0.2858
   92MOL   C33046012   1.507   5.298   5.516  0.1666  0.6651 -0.0730
   92MOL   C33146013   1.637   5.287   5.428 -0.4653 -0.1499  1.0346
   92MOL   C33246014   1.631   5.374   5.301 -0.3196 -0.0683  0.0053
   92MOL   C33346015   1.755   5.358   5.216  0.5128  0.7535 -0.2052
   92MOL   C33446016   1.755   5.437   5.084  0.1167 -0.1816  0.0908
   92MOL   C33546017   1.878   5.413   4.993  0.1873 -0.1156  0.3475
   92MOL   H33646018   1.126   5.052   5.513 -0.0571  1.1627 -0.6857
   92MOL   H33746019   1.236   5.037   5.387 -0.4189 -1.7241 -0.2321
   92MOL   H33846020   1.297   5.212   5.630  0.7322  3.0015 -0.4872
   92MOL   H33946021   1.534   5.251   5.611 -0.3551  0.6262  0.0606
   92MOL   H34046022   1.475   5.398   5.547 -2.7089 -0.3615  0.4451
   92MOL   H34146023   1.647   5.183   5.399 -1.7429  0.1260 -0.4536
   92MOL   H34246024   1.722   5.314   5.491  0.0703  1.9685 -0.5052
   92MOL   H34346025   1.538   5.348   5.250 -1.7386  2.5225  1.1121
   92MOL   H34446026   1.618   5.478   5.331 -0.8231 -0.3650  0.8396
   92MOL   H34546027   1.842   5.388   5.275  0.6312  0.0541 -0.0197
   92MOL   H34646028   1.757   5.249   5.203  1.7150  0.3492  3.0159
   92MOL   H34746029   1.656   5.417   5.043  0.0448 -1.3533  0.8085
   92MOL   H34846030   1.746   5.543   5.107 -0.9400 -0.4912  1.1729
   92MOL   H34946031   1.879   5.463   4.897  1.3607 -1.2919 -0.2708
   92MOL   H35046032   1.968   5.442   5.048  0.2390  1.9760 -0.7975
   92MOL   H35146033   1.887   5.305   4.980  2.4865  0.3521 -2.3767
   92MOL   C35246034   1.178   5.318   5.472 -0.8802  0.0978 -0.0795
   92MOL   C35346035   1.040   5.339   5.537 -0.7894  0.3324 -0.6546
   92MOL   O35446036   0.971   5.449   5.475 -0.5352 -0.0812 -0.3312
   92MOL   C35546037   0.859   5.422   5.395 -0.0025  0.0747  0.8735
   92MOL   C35646038   0.789   5.554   5.367 -0.1916  0.0132 -0.1288
   92MOL   C35746039   0.741   5.626   5.494 -0.1755 -0.7513 -0.4766
   92MOL   C35846040   0.644   5.734   5.457  0.1085  0.5214  0.3331
   92MOL   C35946041   0.601   5.809   5.578 -0.0771  0.5221  0.1012
   92MOL   C36046042   0.563   5.719   5.696 -0.0240  0.0970 -0.7477
   92MOL   H36146043   1.231   5.411   5.496 -1.7195 -0.3323  3.7536
   92MOL   H36246044   1.161   5.314   5.365  0.4458  1.1095 -0.3451
   92MOL   H36346045   0.999   5.241   5.512  0.8022 -0.0314 -2.0006
   92MOL   H36446046   0.793   5.364   5.459  0.6129 -1.9124 -0.2580
   92MOL   H36546047   0.880   5.372   5.301 -0.1580  0.7961  0.4513
   92MOL   H36646048   0.702   5.534   5.304  0.7703  0.0619 -1.5173
   92MOL   H36746049   0.846   5.619   5.300  0.9516 -0.7386  0.1040
   92MOL   H36846050   0.708   5.558   5.572  1.6546  0.9654  1.8602
   92MOL   H36946051   0.825   5.678   5.538 -0.8817 -1.6901  2.0622
   92MOL   H37046052   0.676   5.822   5.402 -0.6517 -0.1294 -1.1560
   92MOL   H37146053   0.560   5.690   5.404  0.4825  0.0660  0.1147
   92MOL   H37246054   0.686   5.874   5.603 -0.0325  1.1555 -1.6742
   92MOL   H37346055   0.513   5.873   5.576 -1.6453 -1.6264 -0.3875
   92MOL   H37446056   0.495   5.781   5.755 -0.5013  1.8838 -3.1038
   92MOL   H37546057   0.503   5.633   5.666 -0.1547 -0.2835  0.5685
   92MOL   H37646058   0.651   5.681   5.749 -0.9102 -1.0998 -0.1124
   92MOL   C37746059   1.050   5.359   5.685  0.2637  0.5254  0.1572
   92MOL   C37846060   0.913   5.363   5.765 -0.3654 -0.1970  0.1369
   92MOL   O37946061   0.942   5.411   5.900 -0.5283  0.0704 -0.1356
   92MOL   C38046062   0.955   5.549   5.918 -0.6443  0.1232  0.3017
   92MOL   C38146063   1.036   5.568   6.039 -0.2403  0.3172 -0.1721
   92MOL   C38246064   1.024   5.708   6.087  0.2567 -0.4852 -0.6287
   92MOL   C38346065   1.116   5.737   6.206  0.3735  0.5118  0.3135
   92MOL   C38446066   1.135   5.880   6.254 -0.4165 -0.2308 -0.3917
   92MOL   C38546067   1.242   5.892   6.371 -0.6606 -0.5338 -0.1115
   92MOL   H38646068   1.102   5.273   5.727  0.7580 -0.0265 -1.5419
   92MOL   H38746069   1.111   5.447   5.701  0.9517  0.2902 -1.1591
   92MOL   H38846070   0.863   5.448   5.717  0.9705  0.7605  0.3884
   92MOL   H38946071   0.854   5.586   5.932 -0.4709  0.5296  0.4797
   92MOL   H39046072   0.982   5.608   5.830 -4.6006  2.7561  0.7389
   92MOL   H39146073   1.144   5.558   6.025  0.3388  1.6834  2.8424
   92MOL   H39246074   1.007   5.500   6.119  0.3359  0.2041 -0.0597
   92MOL   H39346075   1.052   5.780   6.010 -2.6449  0.8810 -0.4932
   92MOL   H39446076   0.920   5.731   6.113 -0.0285 -1.7601 -0.6102
   92MOL   H39546077   1.087   5.675   6.291 -3.6992  0.9227 -0.6639
   92MOL   H39646078   1.215   5.705   6.175 -0.0058 -2.1828  1.7058
   92MOL   H39746079   1.173   5.929   6.165  1.9042 -0.4589  0.4177
   92MOL   H39846080   1.042   5.923   6.291  0.0483 -0.0873  0.6286
   92MOL   H39946081   1.236   5.995   6.406 -1.6562 -0.3098 -0.8937
   92MOL   H40046082   1.235   5.835   6.464  0.3834 -2.8311 -1.3905
   92MOL   H40146083   1.344   5.891   6.332 -0.4654 -2.7729  0.3854
   92MOL   C40246084   0.833   5.231   5.771  0.1454 -0.1264  0.4115
   92MOL   C40346085   0.682   5.232   5.799  0.5233 -0.3257 -0.4087
   92MOL   O40446086   0.614   5.306   5.694 -0.1911  0.1488  0.4135
   92MOL   C40546087   0.497   5.234   5.655  0.1467 -0.3092  0.1047
   92MOL   C40646088   0.403   5.324   5.554 -0.0069 -0.7732 -0.0729
   92MOL   C40746089   0.469   5.337   5.414  0.2934  0.5067  0.1834
   92MOL   C40846090   0.398   5.428   5.305 -0.1882 -0.3193 -0.0677
   92MOL   C40946091   0.449   5.418   5.160 -0.6639  0.2437 -0.2575
   92MOL   C41046092   0.400   5.530   5.063  0.0085  0.3591 -0.2768
   92MOL   H41146093   0.894   5.178   5.845 -0.5309 -0.4061  0.7709
   92MOL   H41246094   0.841   5.178   5.675  1.4046  0.0719  0.3894
   92MOL   H41346095   0.650   5.128   5.800  0.7106 -0.3870  1.1322
   92MOL   H41446096   0.435   5.218   5.743 -1.2519  3.0286 -0.1977
   92MOL   H41546097   0.523   5.134   5.620  0.2802 -0.2340 -0.0110
   92MOL   H41646098   0.378   5.426   5.585 -3.4822 -1.3453 -0.7290
   92MOL   H41746099   0.302   5.286   5.538 -0.0798 -0.3588 -0.5941
   92MOL   H41846100   0.564   5.381   5.442  0.6319  0.4804 -0.8800
   92MOL   H41946101   0.494   5.244   5.364  0.2087  0.9631 -0.7354
   92MOL   H42046102   0.290   5.423   5.315 -0.0673 -2.8244  0.2870
   92MOL   H42146103   0.427   5.527   5.342  1.7737 -0.1684 -1.9062
   92MOL   H42246104   0.557   5.431   5.158 -0.6693  0.5818  1.1876
   92MOL   H42346105   0.424   5.326   5.107  0.7210  0.7675 -1.8622
   92MOL   H42446106   0.440   5.514   4.963 -0.1398  1.7929 -0.5767
   92MOL   H42546107   0.291   5.530   5.064  0.0098  1.4887 -0.1471
   92MOL   H42646108   0.434   5.622   5.109  0.8230  0.6713 -1.4829
   92MOL   C42746109   0.659   5.285   5.938  0.3502 -0.5461  0.3349
   92MOL   C42846110   0.510   5.295   5.994 -0.2507  0.0138 -0.0935
   92MOL   O42946111   0.528   5.274   6.132  0.5279  0.0698 -0.0573
   92MOL   C43046112   0.448   5.177   6.188  0.5380 -0.1793  0.8145
   92MOL   C43146113   0.497   5.036   6.161 -0.0139  0.6139 -0.3306
   92MOL   C43246114   0.393   4.923   6.191  0.5420 -0.0475  0.1208
   92MOL   C43346115   0.423   4.787   6.122 -0.5444  0.0971  0.1780
   92MOL   C43446116   0.364   4.784   5.981 -0.0857  0.9682 -0.1769
   92MOL   C43546117   0.212   4.792   5.973  1.4412  0.0637  0.1526
   92MOL   H43646118   0.711   5.217   6.006  1.2990  0.5556  0.7234
   92MOL   H43746119   0.711   5.379   5.951  1.2745 -0.8148 -1.2289
   92MOL   H43846120   0.444   5.216   5.958 -2.7409  0.0233  4.1221
   92MOL   H43946121   0.341   5.183   6.169  0.3247 -2.1640  1.2912
   92MOL   H44046122   0.463   5.191   6.296  0.7634  0.7226  0.6707
   92MOL   H44146123   0.587   5.015   6.220 -0.3254 -0.3787 -0.1924
   92MOL   H44246124   0.535   5.013   6.061 -0.4642 -1.2234 -0.1055
   92MOL   H44346125   0.383   4.911   6.299  0.6791 -2.1044 -0.0744
   92MOL   H44446126   0.297   4.962   6.158  0.1136  0.8751  2.3747
   92MOL   H44546127   0.532   4.783   6.117 -0.5238  0.0918  0.6413
   92MOL   H44646128   0.394   4.703   6.184  2.1800 -0.6830  0.4399
   92MOL   H44746129   0.416   4.863   5.927  1.5954  0.3459  0.4873
   92MOL   H44846130   0.385   4.689   5.932  0.4810  0.3062  1.3098
   92MOL   H44946131   0.170   4.891   5.984 -1.5444 -0.8171 -2.5048
   92MOL   H45046132   0.171   4.756   5.878 -1.3213 -1.9438  2.0309
   92MOL   H45146133   0.157   4.731   6.045 -2.7857  2.8756 -0.5699
   92MOL   C45246134   0.431   5.431   5.971 -0.8067  0.2355 -0.3991
   92MOL   C45346135   0.283   5.414   5.990 -0.3930 -0.1285 -0.0926
   92MOL   O45446136   0.236   5.341   5.876  0.2971  0.3517  0.1695
   92MOL   C45546137   0.157   5.224   5.910  0.1871  0.4703  0.1180
   92MOL   C45646138   0.132   5.156   5.775  0.3925  0.4169 -0.0734
   92MOL   C45746139   0.038   5.221   5.674  0.1426 -0.2450 -0.2872
   92MOL   C45846140   7.664   5.220   5.719  0.0312 -0.0456  0.5246
   92MOL   C45946141   7.563   5.284   5.617 -0.2225 -0.4156 -0.7107
   92MOL   C46046142   7.418   5.308   5.689  0.4847  0.6051  0.4149
   92MOL   H46146143   0.474   5.521   6.014  0.2185 -0.2806 -0.3284
   92MOL   H46246144   0.459   5.457   5.869  2.3450 -0.4895  0.2243
   92MOL   H46346145   0.268   5.365   6.087  1.9708  0.2812  0.5102
   92MOL   H46446146   0.068   5.260   5.963  1.5597  1.0799  2.0339
   92MOL   H46546147   0.208   5.158   5.980  0.4045  1.1329  0.5909
   92MOL   H46646148   0.093   5.057   5.797 -2.9628  1.6595 -0.0992
   92MOL   H46746149   0.227   5.143   5.723 -0.2101  1.3674 -1.4607
   92MOL   H46846150   0.063   5.324   5.650 -0.8293  0.1375  0.2858
   92MOL   H46946151   0.039   5.152   5.589  0.2896 -1.3223  0.5696
   92MOL   H47046152   7.634   5.117   5.738  0.4501 -0.0643  1.1070
   92MOL   H47146153   7.659   5.271   5.815 -0.1159 -0.7029  0.8698
   92MOL   H47246154   7.605   5.379   5.584 -3.4705  1.9252  1.5953
   92MOL   H47346155   7.554   5.216   5.532  0.6367 -0.1139 -1.0468
   92MOL   H47446156   7.429   5.370   5.778  0.2829  0.9908  0.1760
   92MOL   H47546157   7.352   5.361   5.620  1.4938  0.6051 -0.5576
   92MOL   H47646158   7.364   5.216   5.710  1.4005  0.5877  2.8353
   92MOL   C47746159   0.217   5.555   5.988 -0.0946  0.1272 -0.3089
   92MOL   C47846160   0.082   5.561   6.056  0.0388  0.1242  0.1295
   92MOL   O47946161   0.031   5.693   6.063  0.3119  0.0630 -0.5422
   92MOL   C48046162   7.707   5.713   6.154 -0.7460 -0.3025  0.4079
   92MOL   C48146163   7.646   5.854   6.153  0.1233 -0.0068 -0.1010
   92MOL   C48246164   7.512   5.864   6.214 -0.1049 -0.0769 -0.1881
   92MOL   C48346165   7.466   6.008   6.225  0.2690 -0.0629  0.1252
   92MOL   C48446166   7.337   6.024   6.312 -0.7382  0.5658  0.0905
   92MOL   C48546167   7.325   6.171   6.346  0.0276  0.8851 -0.2980
   92MOL   H48646168   0.269   5.629   6.050  1.4653 -0.9425 -0.3169
   92MOL   H48746169   0.210   5.600   5.889 -2.4276 -1.5246 -0.9355
   92MOL   H48846170   0.014   5.495   6.002  0.3827  1.1397 -1.5544
   92MOL   H48946171   7.731   5.683   6.256  1.1889  0.5240  0.2036
   92MOL   H49046172   7.628   5.643   6.123 -2.2600  1.7872 -0.5906
   92MOL   H49146173   7.637   5.891   6.051  0.4373 -1.8211 -0.8052
   92MOL   H49246174   7.707   5.924   6.211  1.6105 -0.8052 -0.6678
   92MOL   H49346175   7.434   5.812   6.158  0.3785 -1.8192  0.7163
   92MOL   H49446176   7.512   5.815   6.311 -0.1922  0.7326  0.2177
   92MOL   H49546177   7.551   6.055   6.275 -0.0750 -0.2037  0.8371
   92MOL   H49646178   7.448   6.050   6.126  1.3342 -0.9462 -0.4646
   92MOL   H49746179   7.256   5.996   6.246 -1.2496  1.9390  0.1223
   92MOL   H49846180   7.337   5.962   6.402 -2.4339 -0.0374 -0.3086
   92MOL   H49946181   7.418   6.209   6.388  0.4278 -0.1587 -0.2339
   92MOL   H50046182   7.317   6.244   6.266  2.6130  0.1196 -1.2951
   92MOL   H50146183   7.250   6.190   6.424  0.7138 -0.6495  0.7630
   92MOL   H50246184   0.098   5.515   6.154 -1.0035  0.1930  0.3376
   93MOL     C146185   1.812   5.378   2.314  0.9553 -0.0298  0.3250
   93MOL     C246186   1.705   5.303   2.389  0.5627 -0.0916  0.8535
   93MOL     O346187   1.763   5.167   2.402  0.3860  0.3596 -0.2369
   93MOL     C446188   1.779   5.127   2.536  0.3009 -0.0636 -0.1495
   93MOL     C546189   1.814   4.974   2.546  0.5412  0.3354 -0.1871
   93MOL     C646190   1.965   4.954   2.519  0.0911  0.1427  0.3251
   93MOL     C746191   2.020   4.813   2.524  0.3502  0.2638 -0.0855
   93MOL     C846192   2.174   4.809   2.536 -0.2250 -0.7985  0.4666
   93MOL     C946193   2.230   4.668   2.554 -0.1505  0.5586  0.1187
   93MOL    H1046194   1.843   5.321   2.226 -0.0079 -0.9904  0.6033
   93MOL    H1146195   1.801   5.484   2.294 -1.6188  0.3513  3.3498
   93MOL    H1246196   1.702   5.350   2.488  1.3304  1.6982  0.0535
   93MOL    H1346197   1.691   5.142   2.599  1.1443 -1.2285  1.3205
   93MOL    H1446198   1.853   5.184   2.591  0.8516 -0.2655 -0.6729
   93MOL    H1546199   1.746   4.915   2.485  0.2315  0.8346 -0.3361
   93MOL    H1646200   1.794   4.949   2.650  1.8376 -0.2075 -0.0634
   93MOL    H1746201   1.987   4.991   2.419 -1.8530  1.1046  0.2306
   93MOL    H1846202   2.019   5.018   2.589 -0.4093 -0.8147  1.5964
   93MOL    H1946203   1.979   4.764   2.612  3.0926 -3.4185 -0.7428
   93MOL    H2046204   1.983   4.756   2.440  0.4651  1.1743 -0.7622
   93MOL    H2146205   2.204   4.871   2.620 -0.3258 -3.2477  2.3801
   93MOL    H2246206   2.205   4.866   2.448  0.9117 -1.1705  0.6227
   93MOL    H2346207   2.179   4.604   2.626 -2.1640 -1.5001 -3.0144
   93MOL    H2446208   2.248   4.617   2.459  2.6773  0.7980  0.4769
   93MOL    H2546209   2.333   4.686   2.588 -0.3268  2.6709 -0.4011
   93MOL    H2646210   1.908   5.374   2.365  0.3378  0.6298  1.5525
   93MOL    C2746211   1.571   5.291   2.316  0.3711 -0.4278  0.1107
   93MOL    C2846212   1.483   5.411   2.360 -0.7785  0.5249  0.1763
   93MOL    O2946213   1.535   5.524   2.292  0.0473  0.0466 -0.7254
   93MOL    C3046214   1.545   5.638   2.371  0.3750  0.5248  0.7015
   93MOL    C3146215   1.550   5.763   2.281  0.2482 -0.5426  0.9544
   93MOL    C3246216   1.428   5.753   2.184 -0.3698  0.1860 -0.0342
   93MOL    C3346217   1.404   5.886   2.111  0.4253 -0.0724  0.3351
   93MOL    C3446218   1.276   5.880   2.023 -0.0706  0.0704 -0.5247
   93MOL    C3546219   1.239   6.021   1.973 -0.4429  0.4130 -0.4704
   93MOL    H3646220   1.599   5.286   2.211  0.1144 -1.7794  0.0958
   93MOL    H3746221   1.520   5.198   2.341 -1.9344  0.8730  0.4457
   93MOL    H3846222   1.492   5.426   2.468 -1.5304 -2.0874  0.6196
   93MOL    H3946223   1.634   5.628   2.433 -1.1946 -2.7759  2.5337
   93MOL    H4046224   1.458   5.643   2.436  1.2355 -0.5614  1.9670
   93MOL    H4146225   1.634   5.774   2.213 -0.1059 -2.2170  0.2238
   93MOL    H4246226   1.552   5.856   2.339  1.6083  0.8410 -1.2515
   93MOL    H4346227   1.431   5.662   2.124  1.8452 -1.3262  2.2763
   93MOL    H4446228   1.337   5.740   2.243  0.0085 -1.5201  0.2078
   93MOL    H4546229   1.390   5.965   2.185  2.1759 -0.7749  1.4550
   93MOL    H4646230   1.490   5.908   2.048 -0.9956  1.0833 -1.2218
   93MOL    H4746231   1.285   5.813   1.937 -2.6782 -2.3177  0.9885
   93MOL    H4846232   1.201   5.837   2.088  1.8761  2.1699  3.2492
   93MOL    H4946233   1.242   6.036   1.865  1.3472  2.9655 -0.1105
   93MOL    H5046234   1.141   6.059   2.000 -0.9616 -0.7726 -0.6473
   93MOL    H5146235   1.323   6.087   1.994 -0.3803  0.5621 -1.1920
   93MOL    C5246236   1.336   5.400   2.318  0.0770 -0.3663 -0.3226
   93MOL    C5346237   1.237   5.428   2.428  0.4082 -0.1823  0.7128
   93MOL    O5446238   1.121   5.465   2.358  0.5789  0.2901  0.2365
   93MOL    C5546239   1.040   5.573   2.398 -0.1402 -0.0353  0.5192
   93MOL    C5646240   0.898   5.567   2.354 -0.4101  1.6632  0.5025
   93MOL    C5746241   0.880   5.598   2.209 -0.3217 -0.2391 -0.7464
   93MOL    C5846242   0.748   5.533   2.160 -0.2109  0.5408  0.1580
   93MOL    C5946243   0.732   5.523   2.004 -0.1747 -0.1644  0.3559
   93MOL    C6046244   0.690   5.652   1.935 -0.3189  0.3336  0.2661
   93MOL    H6146245   1.309   5.302   2.279 -1.8925  0.8880 -2.2661
   93MOL    H6246246   1.319   5.466   2.232 -0.3870  1.0334  0.8174
   93MOL    H6346247   1.276   5.512   2.485  2.1028  0.2367 -1.0256
   93MOL    H6446248   1.086   5.662   2.355 -0.3724 -0.4960 -0.6868
   93MOL    H6546249   1.042   5.576   2.507  0.8811  0.3083  0.4945
   93MOL    H6646250   0.834   5.636   2.410  0.9556  0.7779  3.2783
   93MOL    H6746251   0.858   5.469   2.380  3.2992 -0.2179 -0.4531
   93MOL    H6846252   0.872   5.706   2.200 -0.4467 -0.2595 -0.8830
   93MOL    H6946253   0.963   5.562   2.148 -1.1852  1.2700 -2.8713
   93MOL    H7046254   0.743   5.432   2.200 -1.5640  0.6355  0.2570
   93MOL    H7146255   0.659   5.570   2.210 -1.5868 -1.0425 -1.0946
   93MOL    H7246256   0.825   5.487   1.959 -0.2768 -0.9690  0.7742
   93MOL    H7346257   0.657   5.447   1.982  0.7898 -0.6385 -1.3724
   93MOL    H7446258   0.771   5.724   1.927 -1.1823  1.1774 -1.0523
   93MOL    H7546259   0.653   5.632   1.834 -0.7197 -1.7418  0.8030
   93MOL    H7646260   0.606   5.686   1.996 -0.6569 -0.1079  0.0547
   93MOL    C7746261   1.210   5.294   2.505 -0.8066  0.1402 -1.3680
   93MOL    C7846262   1.120   5.307   2.622 -0.0712 -0.0259 -0.0731
   93MOL    O7946263   1.176   5.415   2.693  0.4382 -0.5050  0.2949
   93MOL    C8046264   1.102   5.458   2.804  0.5148  0.4036  0.3441
   93MOL    C8146265   1.090   5.614   2.806  0.1180 -0.0158 -0.5355
   93MOL    C8246266   1.231   5.685   2.811 -0.0694 -0.4139  0.3361
   93MOL    C8346267   1.239   5.830   2.776  0.6117  0.5423  0.5823
   93MOL    C8446268   1.266   5.848   2.627 -0.3004 -0.3897 -0.5905
   93MOL    C8546269   1.264   5.992   2.582 -0.9342  0.3407  0.0708
   93MOL    H8646270   1.306   5.246   2.524  0.2607  1.9955 -1.9667
   93MOL    H8746271   1.171   5.223   2.432 -1.2576 -0.5025 -0.5124
   93MOL    H8846272   1.024   5.344   2.586  0.0263 -0.3139 -0.6304
   93MOL    H8946273   1.154   5.417   2.890  1.6023  0.2198 -0.3805
   93MOL    H9046274   1.003   5.412   2.803  0.6933  0.0108  0.7095
   93MOL    H9146275   1.037   5.630   2.899  1.3696  1.1447 -0.0101
   93MOL    H9246276   1.029   5.641   2.720 -1.3614 -2.7530 -0.4137
   93MOL    H9346277   1.284   5.674   2.906  1.0443 -1.0392 -0.3514
   93MOL    H9446278   1.305   5.632   2.751 -1.0886 -2.7461  1.0853
   93MOL    H9546279   1.147   5.886   2.795  0.6229  1.2865 -1.4613
   93MOL    H9646280   1.308   5.884   2.841  0.7615  0.9443  0.0902
   93MOL    H9746281   1.357   5.794   2.603  0.0293  1.3227 -3.4602
   93MOL    H9846282   1.184   5.792   2.580  1.2927 -1.9761 -1.5275
   93MOL    H9946283   1.358   6.037   2.614 -1.8626  0.1990  3.1961
   93MOL   H10046284   1.267   5.988   2.473 -0.6392 -0.7212  0.1091
   93MOL   H10146285   1.179   6.049   2.619  0.2746  2.6192 -0.5513
   93MOL   C10246286   1.118   5.180   2.709  0.1564 -0.4570 -0.1244
   93MOL   C10346287   1.055   5.049   2.646 -0.6063  0.5440  0.1632
   93MOL   O10446288   1.044   4.958   2.754  0.4649 -0.1731  0.0563
   93MOL   C10546289   1.154   4.870   2.763  0.1294  0.2481 -0.2942
   93MOL   C10646290   1.276   4.929   2.839  0.0978  0.6136  0.6578
   93MOL   C10746291   1.357   4.814   2.902  0.1230 -0.1978  0.2567
   93MOL   C10846292   1.468   4.863   2.984  0.6545  0.2573  0.4354
   93MOL   C10946293   1.552   4.747   3.037  0.1182  0.2343  1.5666
   93MOL   C11046294   1.638   4.796   3.157  0.0204 -0.6082 -0.1724
   93MOL   H11146295   1.220   5.160   2.741 -1.4980 -2.2964  4.3250
   93MOL   H11246296   1.046   5.199   2.789 -1.0557 -0.5478 -1.1712
   93MOL   H11346297   1.121   5.009   2.569  0.8898 -0.9431  2.1594
   93MOL   H11446298   1.174   4.826   2.665 -3.1574 -0.0442 -0.8918
   93MOL   H11546299   1.107   4.787   2.816  1.0880  0.8028  1.4563
   93MOL   H11646300   1.232   4.998   2.910 -0.6534  0.6449  0.1697
   93MOL   H11746301   1.347   4.963   2.764  0.3241 -1.0619  0.0929
   93MOL   H11846302   1.301   4.758   2.977 -0.8588 -0.9661 -1.0134
   93MOL   H11946303   1.399   4.749   2.825  2.1053  0.3076  0.8868
   93MOL   H12046304   1.517   4.940   2.924 -1.5304 -0.4728 -2.4403
   93MOL   H12146305   1.418   4.924   3.059 -0.1636 -0.4160  0.4497
   93MOL   H12246306   1.479   4.673   3.069  1.6246 -1.4048  1.2605
   93MOL   H12346307   1.604   4.699   2.954 -1.0730  2.1617 -0.3370
   93MOL   H12446308   1.701   4.717   3.199  0.0981 -0.7701 -0.6008
   93MOL   H12546309   1.698   4.881   3.128 -0.5434 -0.5428 -1.1602
   93MOL   H12646310   1.563   4.827   3.231  1.7243  0.4103  1.1476
   93MOL   C12746311   0.913   5.059   2.589  0.3427  0.6736  0.1718
   93MOL   C12846312   0.879   4.945   2.497 -0.5546 -0.3806 -0.1647
   93MOL   O12946313   0.834   4.996   2.364  0.2665  0.8110 -0.7143
   93MOL   C13046314   0.939   5.014   2.273 -0.9259 -0.0248 -0.4200
   93MOL   C13146315   0.904   5.104   2.150  0.1579  0.2175  0.3975
   93MOL   C13246316   0.790   5.053   2.060 -0.3258  0.3725 -0.2857
   93MOL   C13346317   0.739   5.147   1.948  0.1884 -0.6857 -0.1571
   93MOL   C13446318   0.635   5.094   1.848  0.3117  0.2844 -0.0712
   93MOL   C13546319   0.575   5.200   1.758  0.3391 -0.4694 -0.2509
   93MOL   H13646320   0.845   5.069   2.674 -1.7738 -1.6854 -1.1827
   93MOL   H13746321   0.919   5.155   2.539  0.0272  0.4661 -0.2714
   93MOL   H13846322   0.961   4.876   2.480  1.1367  1.3205  0.9277
   93MOL   H13946323   0.970   4.914   2.244 -0.1757  0.3152 -0.7902
   93MOL   H14046324   1.022   5.062   2.326 -0.6035 -2.9891  1.9171
   93MOL   H14146325   1.001   5.115   2.101  0.4113 -1.1355  0.5814
   93MOL   H14246326   0.871   5.206   2.171  3.1346  1.2810  0.2242
   93MOL   H14346327   0.826   4.970   2.000  1.2344  2.4743 -2.3538
   93MOL   H14446328   0.711   5.018   2.127  2.8177 -0.8157  2.9632
   93MOL   H14546329   0.678   5.224   1.995  0.2349  0.0786 -1.3029
   93MOL   H14646330   0.829   5.198   1.913 -0.4518  1.4485  1.2030
   93MOL   H14746331   0.675   5.013   1.786 -2.9522  0.1430 -2.1260
   93MOL   H14846332   0.556   5.046   1.905  1.5325 -2.1925 -0.3963
   93MOL   H14946333   0.637   5.221   1.671 -0.7148 -1.9430 -1.3689
   93MOL   H15046334   0.477   5.171   1.720 -1.0991  1.8799  1.4929
   93MOL   H15146335   0.557   5.291   1.816 -2.8277 -1.6793  0.7638
   93MOL   C15246336   0.773   4.850   2.554 -0.2798  0.1163 -0.3231
   93MOL   C15346337   0.771   4.716   2.469  0.4893  0.4064  0.2316
   93MOL   O15446338   0.895   4.655   2.496 -0.2183  0.6882 -0.5974
   93MOL   C15546339   0.961   4.594   2.384  0.6784 -0.2731 -0.1788
   93MOL   C15646340   1.103   4.551   2.428  0.2568 -0.2652 -0.1839
   93MOL   C15746341   1.111   4.467   2.559 -0.8864 -0.0688 -0.2885
   93MOL   C15846342   1.255   4.422   2.591  0.0092  0.1190  1.0077
   93MOL   C15946343   1.339   4.531   2.658  0.4078  0.6025 -0.5661
   93MOL   C16046344   1.481   4.488   2.678 -0.4469 -0.5924 -0.2449
   93MOL   H16146345   0.794   4.821   2.657  1.0348 -0.2278 -0.6761
   93MOL   H16246346   0.673   4.894   2.551  0.0680  0.8993 -0.4850
   93MOL   H16346347   0.759   4.734   2.363 -0.5454  0.5210  0.3677
   93MOL   H16446348   0.980   4.664   2.302 -1.5626  1.3436  0.6188
   93MOL   H16546349   0.907   4.508   2.346  0.6576 -0.0091 -0.7552
   93MOL   H16646350   1.164   4.636   2.459  1.4937 -1.2856  0.2265
   93MOL   H16746351   1.156   4.495   2.350  1.2780  0.0824  0.2522
   93MOL   H16846352   1.059   4.515   2.643 -0.9857  0.6021 -0.7300
   93MOL   H16946353   1.050   4.378   2.546 -2.0500  0.4711  1.2141
   93MOL   H17046354   1.256   4.340   2.663 -1.0869  1.3693  2.5110
   93MOL   H17146355   1.305   4.376   2.507 -1.8609 -1.6323  0.8084
   93MOL   H17246356   1.334   4.622   2.599 -0.4778  0.6391 -0.4315
   93MOL   H17346357   1.298   4.551   2.756  1.1228  0.1671 -0.1743
   93MOL   H17446358   1.519   4.432   2.593  1.4966 -1.2159  0.9731
   93MOL   H17546359   1.543   4.577   2.691 -0.0351 -0.2835 -3.8736
   93MOL   H17646360   1.479   4.434   2.773  0.3907  1.4244  0.9696
   93MOL   C17746361   0.653   4.627   2.521  0.1228 -0.2203 -0.4136
   93MOL   C17846362   0.517   4.644   2.446 -0.5283 -0.5303  0.0356
   93MOL   O17946363   0.536   4.581   2.325  0.2079  0.7510  0.0547
   93MOL   C18046364   0.484   4.645   2.219 -0.4921 -0.6248  0.2872
   93MOL   C18146365   0.478   4.549   2.102  0.3867  0.0402 -0.3607
   93MOL   C18246366   0.615   4.490   2.056 -0.0986  0.6424  0.1989
   93MOL   C18346367   0.713   4.604   2.007  0.2542 -0.2607  0.0084
   93MOL   C18446368   0.835   4.543   1.951 -0.1799 -0.6302 -0.1291
   93MOL   C18546369   0.944   4.650   1.921 -0.2573 -0.8232  0.9634
   93MOL   H18646370   0.677   4.521   2.512  0.2859 -0.2305  0.1229
   93MOL   H18746371   0.641   4.639   2.628 -1.5553  0.5369 -0.6636
   93MOL   H18846372   0.493   4.750   2.446 -2.3615 -0.9091  1.7039
   93MOL   H18946373   0.537   4.739   2.199 -1.8268  0.3648  1.2874
   93MOL   H19046374   0.384   4.685   2.232 -0.2075  0.4251 -0.6299
   93MOL   H19146375   0.426   4.599   2.020  1.3753  0.5666 -0.6809
   93MOL   H19246376   0.432   4.459   2.142  1.4972 -0.2459  0.2811
   93MOL   H19346377   0.667   4.435   2.134  0.8779  0.6253 -0.4654
   93MOL   H19446378   0.603   4.425   1.970  2.2196  0.0517  0.2904
   93MOL   H19546379   0.666   4.664   1.929  0.2848 -0.1212  0.0987
   93MOL   H19646380   0.734   4.660   2.097  0.0721 -2.5753  1.5354
   93MOL   H19746381   0.878   4.476   2.026 -1.6729 -1.7270 -0.2187
   93MOL   H19846382   0.821   4.485   1.860 -2.4255  2.0528 -1.5435
   93MOL   H19946383   0.982   4.685   2.017 -1.5626 -0.9938  1.5503
   93MOL   H20046384   1.017   4.596   1.861  2.1056  2.1894  0.9760
   93MOL   H20146385   0.908   4.737   1.866 -0.3574 -0.6897  1.2366
   93MOL   C20246386   0.404   4.557   2.507  0.2569  1.0823  0.1824
   93MOL   C20346387   0.338   4.619   2.637  0.2129 -0.1641 -0.7000
   93MOL   O20446388   0.284   4.522   2.721  0.1204 -0.0871 -0.4283
   93MOL   C20546389   0.383   4.452   2.791  0.7076 -0.2485  0.2098
   93MOL   C20646390   0.322   4.321   2.840 -0.2681  0.0001  0.8463
   93MOL   C20746391   0.194   4.340   2.917  0.6731 -0.3068  0.2812
   93MOL   C20846392   0.153   4.220   3.007 -0.1341 -0.1109  0.3777
   93MOL   C20946393   0.100   4.105   2.931  0.4469 -0.2099 -0.7897
   93MOL   C21046394   0.040   4.000   3.024 -0.3363  0.4271  0.0185
   93MOL   H21146395   0.327   4.539   2.432 -0.1792  0.3266  0.7950
   93MOL   H21246396   0.452   4.462   2.534 -0.5437 -0.4627 -3.5402
   93MOL   H21346397   0.415   4.677   2.689 -0.0350  0.2935 -0.8363
   93MOL   H21446398   0.414   4.509   2.879 -0.2610 -2.6178  2.1251
   93MOL   H21546399   0.469   4.425   2.730 -1.0425 -0.9920 -1.9894
   93MOL   H21646400   0.401   4.272   2.898  1.5182  0.6769 -0.9786
   93MOL   H21746401   0.299   4.254   2.757  0.1368  0.7250  0.1493
   93MOL   H21846402   0.209   4.434   2.971  0.6190  0.0679 -0.3578
   93MOL   H21946403   0.116   4.355   2.842  0.6369  1.6132  0.6622
   93MOL   H22046404   0.247   4.189   3.053  0.7805  0.2714 -1.1787
   93MOL   H22146405   0.080   4.247   3.083 -2.5882 -2.7656 -0.9730
   93MOL   H22246406   0.028   4.137   2.855  0.7063  1.3446 -0.3947
   93MOL   H22346407   0.175   4.062   2.865  1.4572 -1.3982  1.0709
   93MOL   H22446408   0.108   3.974   3.104 -2.0526  0.5595  1.5601
   93MOL   H22546409   7.725   4.032   3.069 -0.7295  1.0110 -1.1804
   93MOL   H22646410   0.017   3.908   2.969  0.4682  0.4652 -0.3940
   93MOL   C22746411   0.236   4.736   2.626  0.4841 -0.2105  0.4330
   93MOL   C22846412   0.186   4.798   2.764  0.2195 -0.0381 -0.0028
   93MOL   O22946413   0.282   4.882   2.826  0.3323  0.0255 -0.4066
   93MOL   C23046414   0.363   4.818   2.928  0.3235  0.2818  0.1624
   93MOL   C23146415   0.302   4.840   3.073 -0.2892  0.0224  0.3794
   93MOL   C23246416   0.290   4.987   3.110  0.0916  0.2211  0.3141
   93MOL   C23346417   0.425   5.060   3.108  0.4510  0.1401 -0.1125
   93MOL   C23446418   0.427   5.198   3.172  0.0272  0.1265  0.2027
   93MOL   C23546419   0.423   5.181   3.325  0.3042  0.3459  0.5151
   93MOL   H23646420   0.278   4.810   2.558  2.4084 -1.0847  0.6532
   93MOL   H23746421   0.146   4.689   2.586  0.7271  0.5993 -1.1284
   93MOL   H23846422   0.137   4.717   2.818 -0.1805 -1.5616 -2.5671
   93MOL   H23946423   0.460   4.866   2.914  0.9668 -1.0948 -0.1428
   93MOL   H24046424   0.368   4.713   2.901 -0.3598 -0.4588  2.8377
   93MOL   H24146425   0.370   4.793   3.144  0.0522 -3.7752 -2.2659
   93MOL   H24246426   0.205   4.792   3.075  0.1600 -1.0651 -1.7163
   93MOL   H24346427   0.214   5.032   3.046  2.1231  1.8769 -1.0137
   93MOL   H24446428   0.252   4.985   3.212 -0.9294  0.5634 -0.0571
   93MOL   H24546429   0.500   4.994   3.152 -0.8610  0.0484  2.0777
   93MOL   H24646430   0.459   5.075   3.005 -4.5737  1.3057 -1.7505
   93MOL   H24746431   0.510   5.261   3.140 -1.0203  1.1464 -0.5300
   93MOL   H24846432   0.333   5.247   3.149 -1.1112 -2.9099 -1.9334
   93MOL   H24946433   0.339   5.120   3.358  1.7084 -1.2620  1.1713
   93MOL   H25046434   0.505   5.119   3.362 -0.1960  0.5387  1.9684
   93MOL   H25146435   0.432   5.270   3.388 -0.2197 -0.1977  1.3608
   93MOL   C25246436   0.065   4.891   2.731  0.2152  0.0961 -0.3314
   93MOL   C25346437   7.768   4.935   2.865 -0.3212  0.9568  0.0334
   93MOL   O25446438   7.689   4.831   2.918  0.6725 -0.6773  0.1306
   93MOL   C25546439   7.655   4.852   3.056  0.3661  0.0820  0.1154
   93MOL   C25646440   7.561   4.744   3.102 -0.6123 -0.0476  0.6223
   93MOL   C25746441   7.635   4.608   3.108  0.2349  0.1937  0.2399
   93MOL   C25846442   7.542   4.479   3.130 -0.1382  0.0247  0.1141
   93MOL   C25946443   7.618   4.346   3.160  0.5813 -0.4330 -0.1168
   93MOL   C26046444   7.526   4.226   3.205 -0.5284  0.3091 -0.0522
   93MOL   H26146445   0.098   4.974   2.667 -0.3861  0.9529  0.4522
   93MOL   H26246446   7.770   4.847   2.665 -3.0184  1.2283  2.3880
   93MOL   H26346447   0.067   4.966   2.936 -0.4278  0.0376  0.5644
   93MOL   H26446448   7.602   4.946   3.072 -1.3781 -0.7370 -0.7228
   93MOL   H26546449   7.751   4.844   3.108  0.0230 -1.0848  0.5761
   93MOL   H26646450   7.481   4.744   3.027 -0.1654 -1.4299  0.1301
   93MOL   H26746451   7.520   4.763   3.202 -1.3299 -1.0833  0.5401
   93MOL   H26846452   7.701   4.595   3.023 -0.8801  1.3079 -0.8205
   93MOL   H26946453   7.708   4.613   3.189  0.1274 -1.2944  0.4332
   93MOL   H27046454   7.484   4.496   3.220  1.9059 -2.0054  1.8966
   93MOL   H27146455   7.474   4.472   3.045  3.0384  2.5175 -2.7881
   93MOL   H27246456   7.669   4.327   3.066 -1.3690  0.1608 -1.3253
   93MOL   H27346457   7.702   4.371   3.225  0.5057  1.4438 -0.7064
   93MOL   H27446458   7.483   4.260   3.299  0.5565  0.2416  0.4737
   93MOL   H27546459   7.450   4.200   3.131 -1.0627 -1.8676  1.2178
   93MOL   H27646460   7.573   4.129   3.219 -1.1110  0.2650  1.6991
   93MOL   C27746461   7.684   5.062   2.830 -0.0561 -0.2436 -0.3991
   93MOL   C27846462   7.757   5.194   2.787  0.8932 -0.6578  0.9190
   93MOL   O27946463   7.673   5.279   2.707  0.4274  0.1846  0.1849
   93MOL   C28046464   7.642   5.215   2.577  0.0977 -0.2209 -0.4260
   93MOL   C28146465   7.579   5.321   2.487 -0.2626 -0.4570 -0.3339
   93MOL   C28246466   7.666   5.451   2.473  0.3101  0.0987  0.4200
   93MOL   C28346467   7.579   5.566   2.412 -0.0406 -0.0111  0.0179
   93MOL   C28446468   7.671   5.676   2.370 -0.1450  0.0003  0.4360
   93MOL   C28546469   7.587   5.803   2.331 -0.0639  0.0556 -0.2029
   93MOL   H28646470   7.607   5.024   2.764 -1.4843  0.2524  0.9690
   93MOL   H28746471   7.631   5.084   2.923  2.5443 -3.3669  1.9480
   93MOL   H28846472   0.062   5.167   2.724  1.7195 -0.0222  1.7296
   93MOL   H28946473   7.590   5.120   2.585 -0.4205  0.0858 -0.0824
   93MOL   H29046474   7.735   5.174   2.538  0.3948  0.6712 -0.6592
   93MOL   H29146475   7.481   5.353   2.521 -0.3799 -2.2050  1.0199
   93MOL   H29246476   7.569   5.284   2.385 -0.4636  1.8161 -1.1760
   93MOL   H29346477   7.688   5.490   2.572 -0.6386  1.4270  0.1298
   93MOL   H29446478   7.754   5.439   2.410 -2.0215 -0.4540 -2.8802
   93MOL   H29546479   7.518   5.541   2.325  1.1935  4.5846 -2.3105
   93MOL   H29646480   7.519   5.595   2.499 -0.6174  3.1884 -1.4025
   93MOL   H29746481   7.739   5.689   2.454  0.6816 -1.7157  0.0454
   93MOL   H29846482   7.735   5.644   2.288 -0.4378  0.2062  0.1240
   93MOL   H29946483   7.500   5.810   2.396  0.2432  1.3550  0.0749
   93MOL   H30046484   7.633   5.901   2.345 -0.0869 -0.1230  1.1630
   93MOL   H30146485   7.554   5.801   2.227 -0.8154  0.7839  0.0168
   93MOL   C30246486   0.044   5.269   2.902 -0.1980  0.2331 -0.6355
   93MOL   C30346487   0.127   5.389   2.849 -0.1733 -0.2532 -1.0041
   93MOL   O30446488   0.238   5.349   2.768 -0.1130  0.3625 -0.0114
   93MOL   C30546489   0.227   5.390   2.634 -0.3337 -0.0031  0.3144
   93MOL   C30646490   0.347   5.335   2.562  0.2013  0.5338 -0.2277
   93MOL   C30746491   0.346   5.187   2.546  0.3659  1.0722  0.1139
   93MOL   C30846492   0.478   5.135   2.486  0.2269  0.5030  0.1035
   93MOL   C30946493   0.521   5.179   2.345  0.0915 -0.3039  0.0613
   93MOL   C31046494   0.427   5.115   2.245  0.0723  0.0427  0.1830
   93MOL   H31146495   7.749   5.302   2.976  1.1789  0.6051  0.5817
   93MOL   H31246496   0.108   5.210   2.967 -1.5259  0.3611  0.8231
   93MOL   H31346497   0.056   5.453   2.796 -0.5881 -0.8542 -1.1695
   93MOL   H31446498   0.225   5.499   2.629 -1.6793 -0.0221  0.2356
   93MOL   H31546499   0.136   5.345   2.595  0.1344 -1.4555  0.8426
   93MOL   H31646500   0.438   5.357   2.619  0.5082  2.2764 -1.3503
   93MOL   H31746501   0.370   5.387   2.470  1.2280 -0.1120 -0.3442
   93MOL   H31846502   0.342   5.146   2.647  1.4776  0.9707  0.1303
   93MOL   H31946503   0.267   5.149   2.481  0.9059 -3.2137  1.8093
   93MOL   H32046504   0.558   5.171   2.551  3.0103  0.7843 -3.3054
   93MOL   H32146505   0.487   5.026   2.494 -0.9726  0.4847  1.3199
   93MOL   H32246506   0.514   5.286   2.324  2.4792  0.4577  2.8732
   93MOL   H32346507   0.625   5.153   2.331  1.7315  4.1883  2.9101
   93MOL   H32446508   0.424   5.142   2.139  0.0448 -1.9871 -0.3576
   93MOL   H32546509   0.436   5.008   2.266  1.0677  0.5892  2.6831
   93MOL   H32646510   0.326   5.133   2.281 -0.8508 -0.0935 -2.2350
   93MOL   C32746511   0.166   5.490   2.965 -0.2639  0.6174 -0.0149
   93MOL   C32846512   0.211   5.634   2.922 -0.0040  0.1293  0.5582
   93MOL   O32946513   0.092   5.707   2.883  0.4332  0.2030 -0.5151
   93MOL   C33046514   0.115   5.788   2.766 -0.4634 -0.4325  0.1206
   93MOL   C33146515   7.778   5.887   2.739 -0.2560  0.4774  0.0238
   93MOL   C33246516   7.642   5.812   2.729 -0.2225 -0.4057 -0.7203
   93MOL   C33346517   7.517   5.902   2.701  0.1919 -0.0929  0.5353
   93MOL   C33446518   7.386   5.825   2.673  0.6112 -0.5781 -0.4659
   93MOL   C33546519   7.258   5.913   2.695  0.5210  0.2376  0.5754
   93MOL   H33646520   0.245   5.435   3.016 -1.5864 -2.0710 -0.7606
   93MOL   H33746521   0.083   5.505   3.034 -1.1601  0.9006 -1.1432
   93MOL   H33846522   0.290   5.633   2.848  0.0684 -2.4113  0.6244
   93MOL   H33946523   0.126   5.734   2.672  0.7049  0.3756 -0.2054
   93MOL   H34046524   0.205   5.848   2.781 -0.1301 -0.4621 -1.6368
   93MOL   H34146525   0.021   5.927   2.640  0.6566  1.0594  0.4498
   93MOL   H34246526   0.021   5.968   2.808  0.5897 -0.6636  1.1152
   93MOL   H34346527   7.647   5.733   2.654 -0.8135  1.2927 -2.5896
   93MOL   H34446528   7.624   5.762   2.824  0.8839  0.7738  0.1317
   93MOL   H34546529   7.505   5.974   2.782 -3.3663 -1.5803  1.4083
   93MOL   H34646530   7.540   5.967   2.615  0.0225 -3.5147 -2.2004
   93MOL   H34746531   7.393   5.782   2.573 -0.1350  0.4904 -0.9962
   93MOL   H34846532   7.372   5.744   2.745 -1.6343 -0.1665 -0.3799
   93MOL   H34946533   7.184   5.849   2.647  2.3729 -2.5284  1.2122
   93MOL   H35046534   7.244   5.935   2.801  0.4095 -1.4678  0.9429
   93MOL   H35146535   7.274   6.000   2.632 -1.5442 -0.2814 -0.7160
   93MOL   C35246536   0.274   5.701   3.049  0.1586 -0.1025 -0.1971
   93MOL   C35346537   0.423   5.682   3.072 -0.0478 -0.1944  0.0249
   93MOL   O35446538   0.462   5.709   3.208 -0.1416 -0.5891 -0.2635
   93MOL   C35546539   0.466   5.591   3.290  1.1124 -0.6525  1.0547
   93MOL   C35646540   0.525   5.629   3.432 -0.6340  0.1810  0.8369
   93MOL   C35746541   0.531   5.515   3.527  0.1248  0.4133 -0.0569
   93MOL   C35846542   0.599   5.545   3.664  0.3501  0.7714 -0.6080
   93MOL   C35946543   0.588   5.438   3.779  0.0420  0.0870 -0.7908
   93MOL   C36046544   0.669   5.315   3.735  0.4100 -0.2879  0.1093
   93MOL   H36146545   0.249   5.807   3.035 -2.1766 -0.7095 -0.8709
   93MOL   H36246546   0.210   5.679   3.135 -1.8957  0.5141 -1.5128
   93MOL   H36346547   0.459   5.585   3.039 -0.7386  0.1403 -1.7801
   93MOL   H36446548   0.528   5.522   3.234 -1.5795 -0.1464 -2.6979
   93MOL   H36546549   0.365   5.553   3.297 -0.5010  2.9696 -0.9594
   93MOL   H36646550   0.465   5.711   3.471 -0.0113  1.8793 -1.6115
   93MOL   H36746551   0.621   5.675   3.408 -1.9714  2.4849 -0.2533
   93MOL   H36846552   0.435   5.470   3.551 -1.0950  3.2280  0.5812
   93MOL   H36946553   0.594   5.440   3.478  0.5696  0.1460  0.9248
   93MOL   H37046554   0.701   5.575   3.636  1.0653  0.5295  1.6053
   93MOL   H37146555   0.548   5.634   3.701 -1.2488 -0.4451  0.1614
   93MOL   H37246556   0.630   5.473   3.874  0.1040  0.3954 -0.9309
   93MOL   H37346557   0.486   5.407   3.800  1.1556 -1.6626  2.4499
   93MOL   H37446558   0.774   5.342   3.729  0.3807 -0.1944  0.0310
   93MOL   H37546559   0.667   5.234   3.809  0.4672 -0.5221 -0.1437
   93MOL   H37646560   0.645   5.255   3.648 -1.9169 -0.3745  0.7791
   93MOL   C37746561   0.505   5.797   2.998  0.0242 -0.3688  0.7450
   93MOL   C37846562   0.651   5.779   3.018 -0.7601  0.2829  0.0888
   93MOL   O37946563   0.725   5.880   2.957 -0.1527  0.0749  0.0457
   93MOL   C38046564   0.855   5.919   3.021  0.2282 -0.6317  0.3738
   93MOL   C38146565   0.913   6.049   2.969  0.0811  0.5696  0.6871
   93MOL   C38246566   1.015   6.124   3.059  0.4488 -1.0431 -0.3966
   93MOL   C38346567   1.134   6.039   3.112  0.0111 -0.5826  0.5130
   93MOL   C38446568   1.213   6.133   3.202 -0.5842  0.9033  0.6991
   93MOL   C38546569   1.311   6.053   3.285  0.5161  0.1332 -0.0613
   93MOL   H38646570   0.472   5.788   2.894  0.6169  1.3127  0.3998
   93MOL   H38746571   0.487   5.901   3.022 -1.4656 -0.4730  0.1561
   93MOL   H38846572   0.673   5.785   3.124 -0.5145  1.9016 -0.0399
   93MOL   H38946573   0.928   5.840   3.003 -0.0393 -0.6777 -0.5341
   93MOL   H39046574   0.835   5.928   3.128 -0.2012 -2.5722  0.4868
   93MOL   H39146575   0.833   6.122   2.954 -0.1248 -0.2651 -2.7274
   93MOL   H39246576   0.946   6.041   2.865 -1.6505 -2.0091  0.3029
   93MOL   H39346577   1.061   6.209   3.008  0.2379 -0.7354 -0.0731
   93MOL   H39446578   0.965   6.158   3.149  0.7555  0.4501 -0.7663
   93MOL   H39546579   1.101   5.953   3.169 -1.7856 -1.9784 -2.4889
   93MOL   H39646580   1.197   6.009   3.028  0.3684 -0.9029  0.8970
   93MOL   H39746581   1.265   6.202   3.135 -0.1604  0.9573  1.0813
   93MOL   H39846582   1.145   6.183   3.271  0.4774  1.9093  1.0253
   93MOL   H39946583   1.378   5.998   3.220  2.6959 -0.6728  2.7473
   93MOL   H40046584   1.369   6.111   3.357 -0.4988  0.5099  0.4653
   93MOL   H40146585   1.259   5.983   3.351  1.7829 -0.2026  0.5940
   93MOL   C40246586   0.709   5.648   2.970 -0.6763  0.4596  0.1699
   93MOL   C40346587   0.665   5.591   2.827  0.1891  0.0222 -0.3002
   93MOL   O40446588   0.715   5.460   2.832 -0.0450  0.2089 -0.4726
   93MOL   C40546589   0.627   5.368   2.898  0.7387 -0.5211  0.6307
   93MOL   C40646590   0.706   5.240   2.930 -0.8925 -0.2524 -0.0533
   93MOL   C40746591   0.797   5.264   3.057  0.1495 -0.4976  0.0512
   93MOL   C40846592   0.846   5.127   3.123 -0.3667  0.3582  0.6990
   93MOL   C40946593   0.961   5.151   3.223 -0.3398 -0.4213  0.1898
   93MOL   C41046594   0.905   5.221   3.348  0.2243 -0.3258  0.1658
   93MOL   H41146595   0.693   5.584   3.057  1.3450 -2.4661 -1.4842
   93MOL   H41246596   0.818   5.656   2.973 -0.5940 -0.9461  1.8439
   93MOL   H41346597   0.557   5.604   2.829  0.1167 -0.6703  1.0850
   93MOL   H41446598   0.540   5.357   2.834  0.7103  0.3588  0.5125
   93MOL   H41546599   0.575   5.411   2.983 -0.4256  3.6056 -2.0028
   93MOL   H41646600   0.766   5.208   2.845  0.8844  1.5010  0.4882
   93MOL   H41746601   0.630   5.168   2.960 -0.1155 -1.6388 -1.3524
   93MOL   H41846602   0.882   5.315   3.013 -0.2390  1.2971  1.3147
   93MOL   H41946603   0.756   5.325   3.138 -1.1765 -1.4542  0.1271
   93MOL   H42046604   0.755   5.093   3.173 -1.2849  0.0064 -1.1703
   93MOL   H42146605   0.877   5.058   3.045 -1.2194 -0.9188  1.4696
   93MOL   H42246606   1.024   5.065   3.248  0.0809  0.1239  1.0289
   93MOL   H42346607   1.027   5.213   3.163 -0.2699  0.1341  0.8376
   93MOL   H42446608   0.886   5.325   3.320 -1.6228 -0.8635 -0.6359
   93MOL   H42546609   0.815   5.181   3.395  0.4912 -1.1036  0.0085
   93MOL   H42646610   0.986   5.211   3.421  1.5790 -0.6367 -1.3485
   93MOL   C42746611   0.719   5.655   2.699 -0.4282 -0.4913  0.5504
   93MOL   C42846612   0.628   5.754   2.620 -0.4571 -0.0140  0.4840
   93MOL   O42946613   0.704   5.799   2.504  0.0202  0.3668  0.3716
   93MOL   C43046614   0.773   5.918   2.525 -0.1361 -0.1474 -0.7548
   93MOL   C43146615   0.816   5.983   2.390 -0.2475  0.2444 -0.2900
   93MOL   C43246616   0.908   6.109   2.409  0.2346  0.3271  0.1543
   93MOL   C43346617   0.944   6.166   2.268 -0.0250 -0.6596 -0.4626
   93MOL   C43446618   1.026   6.302   2.281  0.3620  0.8054  0.4344
   93MOL   C43546619   1.048   6.376   2.153  0.7184 -0.4952  0.0455
   93MOL   H43646620   0.808   5.707   2.734 -0.7554 -0.0785  0.7737
   93MOL   H43746621   0.748   5.569   2.639 -3.0422  0.2882 -1.8990
   93MOL   H43846622   0.608   5.839   2.686 -0.1847  0.0903  0.4331
   93MOL   H43946623   0.859   5.872   2.573 -0.0025 -1.4631 -2.2258
   93MOL   H44046624   0.730   5.987   2.598  1.3986  1.9438 -1.7498
   93MOL   H44146625   0.729   5.999   2.327 -0.6830  1.5848  0.6301
   93MOL   H44246626   0.869   5.909   2.330  3.0109  1.1680  1.3318
   93MOL   H44346627   0.847   6.181   2.462 -0.1868  0.3635 -0.3804
   93MOL   H44446628   0.998   6.091   2.468 -0.3269 -0.7523  0.7059
   93MOL   H44546629   1.007   6.091   2.221 -1.0424 -1.2865 -0.8395
   93MOL   H44646630   0.851   6.184   2.215 -1.2829  0.6295  2.0654
   93MOL   H44746631   0.966   6.369   2.342  1.3606  2.9883 -0.9288
   93MOL   H44846632   1.118   6.277   2.333 -0.8702 -0.6210  2.0045
   93MOL   H44946633   0.958   6.391   2.094  0.3923  0.2663  0.7190
   93MOL   H45046634   1.085   6.477   2.168  1.4019 -0.2227 -3.1673
   93MOL   H45146635   1.119   6.319   2.093 -1.1785 -3.1429  0.2282
   93MOL   C45246636   0.492   5.692   2.561  0.3857  0.1847 -0.0906
   93MOL   C45346637   0.416   5.784   2.465 -0.0770 -0.1278 -0.1963
   93MOL   O45446638   0.336   5.876   2.543  0.2388 -0.1326 -0.7776
   93MOL   C45546639   0.326   6.006   2.491  0.2502  0.3231  0.4829
   93MOL   C45646640   0.442   6.099   2.528 -0.0412 -0.6977  0.3610
   93MOL   C45746641   0.441   6.111   2.675  0.9644 -0.4570 -0.7219
   93MOL   C45846642   0.554   6.190   2.747 -0.0651  0.0373  0.7439
   93MOL   C45946643   0.520   6.228   2.893 -0.1432 -0.0985  0.5502
   93MOL   C46046644   0.610   6.341   2.952 -1.2004 -0.2220  0.5878
   93MOL   H46146645   0.534   5.610   2.502  1.1513 -0.1745  0.9353
   93MOL   H46246646   0.426   5.646   2.634  0.7452  2.1316  1.5018
   93MOL   H46346647   0.490   5.836   2.405  0.8831 -0.5232  0.6433
   93MOL   H46446648   0.234   6.046   2.533 -1.2226 -1.3539 -1.0742
   93MOL   H46546649   0.302   6.003   2.384 -2.8574  0.8877  1.1228
   93MOL   H46646650   0.429   6.193   2.474 -1.7777 -2.5434 -2.5617
   93MOL   H46746651   0.540   6.055   2.507  1.0762  1.7796  0.1666
   93MOL   H46846652   0.346   6.153   2.707  1.6474  0.0111  0.7404
   93MOL   H46946653   0.443   6.008   2.710 -0.5464  0.1048  1.0731
   93MOL   H47046654   0.641   6.125   2.748  0.8413  1.1681 -1.1859
   93MOL   H47146655   0.573   6.279   2.687  0.0704  0.0282  0.7709
   93MOL   H47246656   0.413   6.252   2.899 -0.4014 -0.8550 -0.7846
   93MOL   H47346657   0.529   6.131   2.941 -2.6435 -1.2845 -1.2662
   93MOL   H47446658   0.578   6.438   2.913  0.5583  0.2357  0.2357
   93MOL   H47546659   0.614   6.346   3.061 -4.1825  0.9084  0.6983
   93MOL   H47646660   0.715   6.332   2.925 -0.7991  0.4326  1.9072
   93MOL   C47746661   0.315   5.714   2.374 -0.4748 -0.0255 -0.3288
   93MOL   C47846662   0.373   5.622   2.268  0.2089 -0.1720 -0.0130
   93MOL   O47946663   0.269   5.580   2.184 -0.3564 -0.1977 -0.0463
   93MOL   C48046664   0.312   5.486   2.083  0.5616 -0.2244  0.5652
   93MOL   C48146665   0.198   5.471   1.978  0.7570 -0.2934 -0.3344
   93MOL   C48246666   0.242   5.393   1.846 -0.6670  0.2419  0.1098
   93MOL   C48346667   0.133   5.373   1.750 -0.4061  0.0661 -0.0180
   93MOL   C48446668   0.179   5.300   1.623 -0.3039  0.4689 -0.9297
   93MOL   C48546669   0.074   5.216   1.546  0.3832 -0.1677  0.1629
   93MOL   H48646670   0.253   5.656   2.442 -0.7951 -1.2557 -1.6414
   93MOL   H48746671   0.245   5.779   2.323  0.1666  1.1256  0.2271
   93MOL   H48846672   0.441   5.682   2.207 -0.0563 -0.5226 -0.6568
   93MOL   H48946673   0.340   5.390   2.126 -0.2149 -0.4132  0.6558
   93MOL   H49046674   0.399   5.516   2.024 -0.7717  1.1309 -0.7711
   93MOL   H49146675   0.160   5.570   1.954  1.2619 -0.1375 -0.4860
   93MOL   H49246676   0.115   5.417   2.025  0.2988 -0.2569 -1.0942
   93MOL   H49346677   0.324   5.444   1.795 -0.2496 -1.0276 -0.5144
   93MOL   H49446678   0.281   5.293   1.865 -1.5622 -0.5238 -1.8881
   93MOL   H49546679   0.049   5.317   1.790  0.7729 -2.5055 -1.0693
   93MOL   H49646680   0.069   5.458   1.724 -1.7301 -1.2969 -1.3760
   93MOL   H49746681   0.228   5.366   1.552  2.3236  1.2687  1.5481
   93MOL   H49846682   0.257   5.231   1.656 -1.0085  1.1700  2.3758
   93MOL   H49946683   0.109   5.177   1.451 -1.5154  0.9628 -1.0401
   93MOL   H50046684   0.037   5.135   1.609 -0.0822  0.5154  0.7836
   93MOL   H50146685   7.766   5.274   1.515  0.8190  0.1635 -0.4278
   93MOL   H50246686   0.423   5.540   2.320 -1.5079 -0.9713  0.4089
   94MOL     C146687   6.825   4.725   3.223 -0.6292  0.0539 -0.1027
   94MOL     C246688   6.936   4.818   3.188 -0.4790  0.1048 -0.5223
   94MOL     O346689   7.041   4.807   3.282  0.2244 -0.0259 -0.3521
   94MOL     C446690   7.149   4.722   3.239 -0.0828 -0.1250 -0.6204
   94MOL     C546691   7.217   4.671   3.367 -0.0811 -0.1702 -0.1726
   94MOL     C646692   7.163   4.529   3.395  0.4555  0.0112  1.0612
   94MOL     C746693   7.221   4.460   3.520 -0.4061  0.2936 -0.0642
   94MOL     C846694   7.148   4.330   3.565 -0.0953 -0.4190  0.3045
   94MOL     C946695   7.209   4.236   3.667 -0.9455 -0.0893 -0.3901
   94MOL    H1046696   6.851   4.622   3.199  1.1669  0.2739  0.7620
   94MOL    H1146697   6.795   4.736   3.327 -0.1641 -0.8209  0.1282
   94MOL    H1246698   6.979   4.784   3.093  1.0267  1.7586 -0.4553
   94MOL    H1346699   7.211   4.787   3.179 -3.3387  3.0806 -0.7073
   94MOL    H1446700   7.108   4.644   3.174  0.9120 -0.6806 -0.5857
   94MOL    H1546701   7.189   4.735   3.451 -1.5668 -0.5888 -0.3288
   94MOL    H1646702   7.325   4.658   3.363 -0.0220  0.5083 -1.0062
   94MOL    H1746703   7.054   4.528   3.399  0.3609 -1.6480 -1.1760
   94MOL    H1846704   7.183   4.456   3.317  1.7585  1.9841 -0.5234
   94MOL    H1946705   7.326   4.437   3.499 -0.4070 -2.0280  2.2482
   94MOL    H2046706   7.227   4.538   3.596 -0.8065 -1.1672  1.5104
   94MOL    H2146707   7.147   4.281   3.467  0.0792  2.6113 -1.2641
   94MOL    H2246708   7.044   4.345   3.594  0.5566  2.0963  1.4622
   94MOL    H2346709   7.254   4.295   3.747 -2.6397  1.9118 -0.8665
   94MOL    H2446710   7.140   4.172   3.722 -0.4650 -0.2727  0.0130
   94MOL    H2546711   7.282   4.174   3.616 -1.0774  0.2522 -0.9908
   94MOL    H2646712   6.733   4.760   3.177 -0.4211  0.7798  0.0201
   94MOL    C2746713   6.887   4.960   3.179 -0.4494 -0.4194 -0.2666
   94MOL    C2846714   6.991   5.054   3.102  1.1298  0.1282 -0.6365
   94MOL    O2946715   6.994   5.028   2.963 -0.2312 -0.3564 -0.0270
   94MOL    C3046716   7.120   5.004   2.900  0.3945 -0.0640 -0.3009
   94MOL    C3146717   7.217   5.121   2.875 -0.3395  0.5498  0.5820
   94MOL    C3246718   7.330   5.146   2.984 -0.3695  0.2244  0.4354
   94MOL    C3346719   7.406   5.278   2.961 -0.3272  0.5542  0.7443
   94MOL    C3446720   7.335   5.392   3.036  0.3161  0.8201  1.2391
   94MOL    C3546721   7.410   5.519   3.022 -0.2324 -1.0593 -0.4223
   94MOL    H3646722   6.802   4.966   3.112 -0.6503  1.5598  0.1469
   94MOL    H3746723   6.854   4.987   3.280 -1.3218  2.9822 -1.4149
   94MOL    H3846724   7.091   5.040   3.142  1.4526  0.2468 -1.4011
   94MOL    H3946725   7.082   4.983   2.800  0.7837  2.0352 -0.9203
   94MOL    H4046726   7.176   4.916   2.934  1.6131  0.7265 -0.2183
   94MOL    H4146727   7.153   5.200   2.835 -2.2178 -0.5525  1.3555
   94MOL    H4246728   7.267   5.085   2.785 -1.2011 -0.7870  0.6281
   94MOL    H4346729   7.293   5.163   3.085  1.9864 -1.5130  1.6137
   94MOL    H4446730   7.401   5.064   2.992 -1.0226 -0.3174  0.7592
   94MOL    H4546731   7.504   5.274   3.009 -0.6311 -2.3753  1.2294
   94MOL    H4646732   7.425   5.280   2.854 -0.9079 -2.0559  0.5613
   94MOL    H4746733   7.235   5.401   2.994 -0.0706 -0.6525  1.7978
   94MOL    H4846734   7.320   5.382   3.143  1.0118 -0.0566  1.2607
   94MOL    H4946735   7.515   5.513   3.049 -0.9449  0.2364  2.9277
   94MOL    H5046736   7.399   5.560   2.922  2.3627 -1.9441 -1.0943
   94MOL    H5146737   7.371   5.590   3.095  0.4990 -0.9639 -0.1212
   94MOL    C5246738   6.953   5.204   3.113  0.4798 -0.0367  0.3468
   94MOL    C5346739   6.987   5.275   3.249 -0.7253  0.8006 -0.4022
   94MOL    O5446740   7.127   5.252   3.276  0.2990  0.3303  0.0223
   94MOL    C5546741   7.153   5.164   3.388  0.2067  0.2399  0.8641
   94MOL    C5646742   7.304   5.148   3.402  0.1261 -0.1478  0.7620
   94MOL    C5746743   7.349   5.059   3.524  0.2535 -0.5397 -0.0967
   94MOL    C5846744   7.495   5.079   3.547 -0.8295  0.3366  0.1607
   94MOL    C5946745   7.549   5.021   3.681  0.2860 -0.2821  0.2362
   94MOL    C6046746   7.705   5.008   3.688 -0.4663  0.2804  0.6574
   94MOL    H6146747   6.845   5.210   3.097  0.8457 -0.6596 -2.4427
   94MOL    H6246748   7.002   5.266   3.038  0.5295  1.5414  1.6346
   94MOL    H6346749   6.923   5.231   3.325 -2.9630  0.3800 -2.4835
   94MOL    H6446750   7.110   5.064   3.383  0.5829 -0.0986  3.3177
   94MOL    H6546751   7.127   5.211   3.483  0.7248 -1.4982  1.9109
   94MOL    H6646752   7.342   5.249   3.416 -1.2274  0.2426  1.8364
   94MOL    H6746753   7.348   5.101   3.315  1.4438 -0.6917  1.7067
   94MOL    H6846754   7.303   5.117   3.604  0.9511  0.8939 -0.7096
   94MOL    H6946755   7.318   4.955   3.510 -0.8901 -0.5214  2.0989
   94MOL    H7046756   7.549   5.022   3.471 -2.8401 -1.5158  0.0897
   94MOL    H7146757   7.524   5.183   3.534 -0.0629 -0.1027 -1.9388
   94MOL    H7246758   7.518   5.075   3.771  1.6546  2.1221 -0.6790
   94MOL    H7346759   7.501   4.926   3.704 -0.7455  0.2809  0.4557
   94MOL    H7446760   7.744   5.109   3.691 -0.2188  0.1659  1.3703
   94MOL    H7546761   7.760   4.943   3.756 -0.6983 -0.4586  0.1469
   94MOL    H7646762   7.736   4.966   3.593  1.2252  0.1241  1.2646
   94MOL    C7746763   6.955   5.424   3.241  0.3594  0.7720  0.2646
   94MOL    C7846764   7.012   5.512   3.357 -0.5262 -0.0062 -0.6778
   94MOL    O7946765   6.931   5.627   3.379 -0.1962 -0.3946 -0.4067
   94MOL    C8046766   6.820   5.601   3.468  0.7169  0.2609  0.8026
   94MOL    C8146767   6.751   5.735   3.506 -0.2811  0.1688 -0.3740
   94MOL    C8246768   6.650   5.704   3.619 -0.0492  0.1570 -0.3657
   94MOL    C8346769   6.594   5.834   3.675 -0.7125  0.5319 -0.0231
   94MOL    C8446770   6.489   5.894   3.581  0.5002 -0.1043 -1.0058
   94MOL    C8546771   6.430   6.008   3.653 -0.2763  0.3727 -0.3787
   94MOL    H8646772   6.849   5.449   3.249 -0.2325 -0.7945 -2.3706
   94MOL    H8746773   6.975   5.462   3.141 -1.3962 -0.5957 -0.6399
   94MOL    H8846774   7.020   5.440   3.439  1.1094  0.5518 -0.3109
   94MOL    H8946775   6.855   5.546   3.554  0.0577  0.1443  0.9984
   94MOL    H9046776   6.744   5.535   3.426  0.2543  2.3437 -1.8073
   94MOL    H9146777   6.725   5.788   3.414 -0.7415  0.6108  0.0074
   94MOL    H9246778   6.833   5.791   3.549  0.1346 -0.7706  0.0626
   94MOL    H9346779   6.565   5.653   3.573 -1.5321  2.0935  0.1743
   94MOL    H9446780   6.704   5.647   3.694 -1.0229  0.4698  0.5836
   94MOL    H9546781   6.554   5.822   3.776 -2.0736 -0.8571 -0.7028
   94MOL    H9646782   6.676   5.905   3.687  0.9894 -1.3467 -0.2400
   94MOL    H9746783   6.543   5.939   3.498 -0.3285 -0.8579 -1.9586
   94MOL    H9846784   6.412   5.825   3.547 -0.7594 -0.5842  2.5572
   94MOL    H9946785   6.360   5.981   3.732 -1.9532  0.1902 -1.8891
   94MOL   H10046786   6.503   6.078   3.693  2.1995 -0.5339 -3.0880
   94MOL   H10146787   6.379   6.065   3.576  1.9638  0.4866 -1.8187
   94MOL   C10246788   7.151   5.572   3.322  0.1331 -0.6293 -1.2443
   94MOL   C10346789   7.218   5.648   3.436 -0.2822 -0.2009 -1.2116
   94MOL   O10446790   7.266   5.548   3.535 -0.3275 -0.6343  0.3844
   94MOL   C10546791   7.284   5.597   3.669 -0.9144  0.2007 -1.1794
   94MOL   C10646792   7.297   5.480   3.769 -0.3568  0.4095  0.0365
   94MOL   C10746793   7.183   5.375   3.794 -0.1926 -0.5341 -0.1199
   94MOL   C10846794   7.209   5.261   3.894  0.1773 -0.6205  0.1943
   94MOL   C10946795   7.082   5.168   3.912  0.4316 -0.2048  0.2600
   94MOL   C11046796   7.094   5.069   4.024 -0.1643 -0.8614  0.1976
   94MOL   H11146797   7.219   5.487   3.310  2.5394  0.5829  2.7298
   94MOL   H11246798   7.152   5.624   3.226  0.4467 -1.2182 -1.5574
   94MOL   H11346799   7.144   5.706   3.491  1.5146  0.5979  0.4282
   94MOL   H11446800   7.193   5.651   3.695 -0.6221  0.5309 -0.8462
   94MOL   H11546801   7.367   5.667   3.682  1.1532 -2.4725  0.5426
   94MOL   H11646802   7.343   5.509   3.863  1.5163  0.9850 -1.0366
   94MOL   H11746803   7.376   5.423   3.719 -1.5304 -1.0164 -0.2570
   94MOL   H11846804   7.098   5.428   3.838 -0.9571 -0.6297 -1.4507
   94MOL   H11946805   7.152   5.336   3.697  0.1734 -2.1825  0.4145
   94MOL   H12046806   7.289   5.196   3.857 -0.2446  0.2964 -2.4682
   94MOL   H12146807   7.233   5.292   3.995 -0.0962 -1.2053  0.4444
   94MOL   H12246808   7.000   5.238   3.926 -0.3355 -0.6730 -1.6746
   94MOL   H12346809   7.061   5.108   3.824 -0.8863  0.9617 -0.2339
   94MOL   H12446810   7.200   5.050   4.039  0.2627  0.9409 -0.3829
   94MOL   H12546811   7.059   5.125   4.110 -0.3182  1.3139 -1.2393
   94MOL   H12646812   7.044   4.973   4.015 -1.4367 -0.4810  2.6699
   94MOL   C12746813   7.331   5.739   3.380  0.3667  0.2324 -0.0259
   94MOL   C12846814   7.284   5.856   3.288 -0.3600  0.3491 -0.0825
   94MOL   O12946815   7.383   5.936   3.235 -0.5524 -0.3027 -0.1102
   94MOL   C13046816   7.472   5.880   3.140  0.1914 -0.0965 -0.1826
   94MOL   C13146817   7.569   5.997   3.110 -0.3272 -0.0658 -0.3130
   94MOL   C13246818   7.639   6.063   3.236 -1.2128 -0.5826 -0.0654
   94MOL   C13346819   7.764   6.143   3.200 -0.2644 -0.1365  0.1971
   94MOL   C13446820   0.100   6.070   3.129 -0.0235  0.8347  0.0301
   94MOL   C13546821   0.204   6.171   3.075  0.1431  0.3832  0.0816
   94MOL   H13646822   7.385   5.775   3.468 -0.6364  0.2773  0.5835
   94MOL   H13746823   7.398   5.676   3.321 -1.3427 -1.7797  0.1107
   94MOL   H13846824   7.235   5.818   3.198 -0.8773 -0.9948  0.7501
   94MOL   H13946825   7.422   5.857   3.045 -0.3598  0.7880 -0.1131
   94MOL   H14046826   7.523   5.792   3.180 -1.2608 -0.2169  1.4550
   94MOL   H14146827   7.514   6.071   3.051 -1.1760  1.3001  2.1473
   94MOL   H14246828   7.647   5.976   3.037  0.3746 -0.2318  0.4883
   94MOL   H14346829   7.568   6.127   3.289 -0.1959  0.8540 -0.4119
   94MOL   H14446830   7.664   5.985   3.307  0.3463 -1.9920 -2.1440
   94MOL   H14546831   7.735   6.225   3.134 -1.2587  1.5079  2.6020
   94MOL   H14646832   0.043   6.188   3.281 -0.7203  2.6414 -0.9767
   94MOL   H14746833   0.147   5.991   3.188  2.3442  1.0928 -1.4493
   94MOL   H14846834   0.055   6.035   3.036  0.0571  3.8950 -1.1987
   94MOL   H14946835   0.272   6.217   3.146  1.6798 -0.1213 -1.0194
   94MOL   H15046836   0.265   6.110   3.007 -0.9627 -0.9140  0.2338
   94MOL   H15146837   0.167   6.248   3.007 -1.9728  0.4262  1.2513
   94MOL   C15246838   7.183   5.952   3.355 -0.3009 -0.5280 -0.3028
   94MOL   C15346839   7.134   6.058   3.248  0.0402 -0.0590 -0.2732
   94MOL   O15446840   7.026   5.971   3.193  0.2972  0.3382  0.1666
   94MOL   C15546841   7.016   6.002   3.053  0.6924 -0.0393 -0.0174
   94MOL   C15646842   6.919   5.896   2.984  0.4613  0.3749  0.4440
   94MOL   C15746843   6.974   5.754   3.004  0.0753  0.0267 -0.0226
   94MOL   C15846844   6.899   5.647   2.926  0.0528  0.1114 -0.3458
   94MOL   C15946845   6.759   5.622   2.978 -0.1065 -0.1401 -0.1937
   94MOL   C16046846   6.685   5.495   2.925 -0.0238  0.1929 -0.4121
   94MOL   H16146847   7.102   5.900   3.407  0.9777 -1.0779  1.1696
   94MOL   H16246848   7.239   5.995   3.439 -0.7429 -0.0238 -0.2610
   94MOL   H16346849   7.211   6.094   3.180 -2.5290  1.7691 -2.3144
   94MOL   H16446850   7.115   6.003   3.006  0.3644  0.1944 -0.7009
   94MOL   H16546851   6.972   6.101   3.041  0.3971 -0.2636 -0.8035
   94MOL   H16646852   6.914   5.912   2.877 -0.2081  0.5020  0.4933
   94MOL   H16746853   6.819   5.899   3.027 -0.0316 -1.5105 -0.5113
   94MOL   H16846854   7.077   5.753   2.966  0.2963  0.5391  0.5633
   94MOL   H16946855   6.981   5.728   3.110 -1.7306  1.0416  0.3484
   94MOL   H17046856   6.886   5.680   2.823 -2.5787 -0.8802 -0.3623
   94MOL   H17146857   6.966   5.560   2.924 -0.2326 -0.1110 -0.2908
   94MOL   H17246858   6.765   5.629   3.086  0.2090  2.1655 -0.3364
   94MOL   H17346859   6.701   5.707   2.942  0.5235  0.6191  0.5815
   94MOL   H17446860   6.592   5.485   2.982  1.7238  0.7195  2.6346
   94MOL   H17546861   6.652   5.499   2.821  0.2509  0.6402 -0.4831
   94MOL   H17646862   6.743   5.409   2.959  0.4739  1.3883  1.8725
   94MOL   C17746863   7.070   6.180   3.314  0.3525  0.4573  0.2212
   94MOL   C17846864   7.166   6.285   3.384 -0.2133 -0.3512 -0.1983
   94MOL   O17946865   7.225   6.221   3.491  0.7481 -0.2675 -0.2925
   94MOL   C18046866   7.266   6.317   3.597  0.2056  0.3697  0.1073
   94MOL   C18146867   7.320   6.252   3.718 -0.0067 -0.7037  0.0967
   94MOL   C18246868   7.453   6.180   3.687 -0.4186  0.2343 -0.3596
   94MOL   C18346869   7.514   6.082   3.791 -0.1738  0.8205  0.6550
   94MOL   C18446870   7.655   6.033   3.752  0.6299 -1.3350  0.1463
   94MOL   C18546871   7.708   5.933   3.856  0.2492  0.4245 -0.2279
   94MOL   H18646872   6.999   6.228   3.246  0.9681 -0.8537 -1.3805
   94MOL   H18746873   7.005   6.138   3.390  2.3956 -2.2578  0.5592
   94MOL   H18846874   7.099   6.364   3.417 -0.1269 -0.4550  0.2254
   94MOL   H18946875   7.181   6.376   3.631  0.0968  0.0297  0.4346
   94MOL   H19046876   7.348   6.373   3.554  2.1444 -0.2455  2.8523
   94MOL   H19146877   7.243   6.184   3.756 -0.3742  0.4633  1.4949
   94MOL   H19246878   7.333   6.324   3.799  2.7077  0.7902 -1.6034
   94MOL   H19346879   7.447   6.119   3.597  1.5883 -1.5601  0.6946
   94MOL   H19446880   7.530   6.257   3.686  1.0859 -1.2395 -0.1418
   94MOL   H19546881   7.513   6.131   3.888  1.3349  0.4789  0.8550
   94MOL   H19646882   7.451   5.994   3.797  0.5417  0.2501 -0.0744
   94MOL   H19746883   7.651   5.992   3.652 -1.6674 -0.7366 -0.0274
   94MOL   H19846884   7.727   6.115   3.745  0.4986 -1.1752  0.6722
   94MOL   H19946885   7.630   5.860   3.875 -0.3494  0.9164 -0.7588
   94MOL   H20046886   0.024   5.891   3.820  1.0782  1.6186  0.5232
   94MOL   H20146887   7.739   5.993   3.941  0.5223 -1.0589  0.7417
   94MOL   C20246888   7.269   6.349   3.288  0.2858 -0.3421 -0.1733
   94MOL   C20346889   7.214   6.436   3.174  0.0128  0.7900  0.0327
   94MOL   O20446890   7.309   6.431   3.067 -0.5961 -1.0908  0.3643
   94MOL   C20546891   7.284   6.331   2.963 -0.0879  1.1142  0.1945
   94MOL   C20646892   7.370   6.346   2.838 -0.2211 -0.4210 -0.2569
   94MOL   C20746893   7.515   6.293   2.859  0.6097 -0.3852  0.2679
   94MOL   C20846894   7.601   6.302   2.735  0.2293 -0.4191 -0.0138
   94MOL   C20946895   7.743   6.259   2.764 -0.1107  0.1076  0.0165
   94MOL   C21046896   0.042   6.228   2.645 -0.2337  0.0620  0.1131
   94MOL   H21146897   7.340   6.413   3.341  0.7844 -0.9342 -0.1209
   94MOL   H21246898   7.327   6.270   3.241 -1.1714 -1.6022  0.1030
   94MOL   H21346899   7.129   6.381   3.132  1.8484 -4.3706  2.7479
   94MOL   H21446900   7.181   6.349   2.930 -0.9558 -1.3215  1.4651
   94MOL   H21546901   7.293   6.230   3.001  0.0874  1.1651  0.2865
   94MOL   H21646902   7.378   6.453   2.815  1.4478 -0.5176 -0.1947
   94MOL   H21746903   7.307   6.300   2.762  0.3537 -0.1901 -0.8834
   94MOL   H21846904   7.552   6.365   2.932 -0.8239  1.5278 -0.8562
   94MOL   H21946905   7.511   6.189   2.891 -0.6874  0.1167  1.8087
   94MOL   H22046906   7.546   6.240   2.665 -0.3391 -1.0630  0.9756
   94MOL   H22146907   7.598   6.401   2.690  0.0436 -1.2526 -1.8530
   94MOL   H22246908   0.024   6.327   2.826  1.3766 -0.8119 -0.3790
   94MOL   H22346909   7.728   6.172   2.828  2.5208  2.0145  3.4062
   94MOL   H22446910   0.001   6.142   2.592  1.6898 -2.3762  2.3933
   94MOL   H22546911   0.036   6.317   2.583  1.9763 -1.4324 -2.3737
   94MOL   H22646912   0.140   6.196   2.680 -0.7845 -1.5673  0.2152
   94MOL   C22746913   7.184   6.585   3.203  0.2638 -0.1302 -0.0699
   94MOL   C22846914   7.132   6.674   3.088  0.6501  0.7524  0.6160
   94MOL   O22946915   7.051   6.784   3.142 -0.5541 -0.3424 -0.0393
   94MOL   C23046916   6.918   6.784   3.105 -0.4170 -0.0574  0.5885
   94MOL   C23146917   6.836   6.894   3.181  0.2793  0.4526 -0.1499
   94MOL   C23246918   6.692   6.909   3.136  0.2623  0.4381 -0.0765
   94MOL   C23346919   6.623   7.017   3.216  0.3475  0.1177  0.6643
   94MOL   C23446920   6.481   7.043   3.175 -0.1190  0.1620  0.5379
   94MOL   C23546921   6.412   7.111   3.292 -0.4103  0.3715  0.2500
   94MOL   H23646922   7.108   6.576   3.281  1.0151 -1.8713  0.4951
   94MOL   H23746923   7.273   6.629   3.246 -0.9541  0.9665  1.3804
   94MOL   H23846924   7.082   6.608   3.018  1.4973 -1.3031  1.8794
   94MOL   H23946925   6.867   6.691   3.134  0.5992 -0.3763  1.3983
   94MOL   H24046926   6.903   6.800   2.998  1.0530 -0.9835  0.2356
   94MOL   H24146927   6.880   6.985   3.139 -0.8915  1.3380  0.4971
   94MOL   H24246928   6.848   6.878   3.288 -2.6375  2.0057  0.4537
   94MOL   H24346929   6.700   6.928   3.029 -0.7060  0.3209 -0.1782
   94MOL   H24446930   6.635   6.817   3.145  0.3321  0.5814  2.3313
   94MOL   H24546931   6.627   6.985   3.320  0.6448 -2.7950 -0.1963
   94MOL   H24646932   6.679   7.110   3.207  2.4552 -1.1798 -0.0475
   94MOL   H24746933   6.491   7.107   3.088  1.3918 -1.6493 -0.6651
   94MOL   H24846934   6.428   6.957   3.135 -1.6569  1.7877 -1.0156
   94MOL   H24946935   6.306   7.129   3.273  0.4730  5.3586 -0.5549
   94MOL   H25046936   6.413   7.057   3.387 -0.8146 -0.9888 -0.4993
   94MOL   H25146937   6.444   7.213   3.311 -2.8191  1.3652 -0.7438
   94MOL   C25246938   7.245   6.737   3.004  0.5293 -0.2338  0.1962
   94MOL   C25346939   7.193   6.769   2.861 -0.4572 -0.1848 -0.2163
   94MOL   O25446940   7.211   6.658   2.773  0.4447  0.1424 -0.6015
   94MOL   C25546941   7.114   6.647   2.676 -0.7089  0.1104 -0.0223
   94MOL   C25646942   7.174   6.546   2.577  0.0789  0.3178 -0.2394
   94MOL   C25746943   7.287   6.610   2.484 -0.1337  0.3163 -0.2786
   94MOL   C25846944   7.353   6.519   2.384 -0.6041  0.3393  0.7119
   94MOL   C25946945   7.449   6.410   2.445 -0.3453 -0.0822 -0.4260
   94MOL   C26046946   7.515   6.316   2.350  0.3961 -0.2380 -0.3364
   94MOL   H26146947   7.269   6.828   3.059  2.6667 -0.7977  0.2258
   94MOL   H26246948   7.339   6.683   2.993  0.4292 -0.8142  2.0314
   94MOL   H26346949   7.088   6.799   2.866 -0.0481  1.3003 -0.3869
   94MOL   H26446950   7.080   6.743   2.636 -0.4747 -0.8203 -2.5038
   94MOL   H26546951   7.021   6.612   2.722  0.2478 -0.9596  1.1350
   94MOL   H26646952   7.095   6.516   2.508 -0.1673  2.0616 -0.7417
   94MOL   H26746953   7.217   6.453   2.614  1.3925  0.4048 -1.4823
   94MOL   H26846954   7.244   6.695   2.432 -0.7928  0.1703  0.0165
   94MOL   H26946955   7.370   6.634   2.549  0.1740 -2.0359  0.2357
   94MOL   H27046956   7.274   6.465   2.333 -0.0327 -1.1881  1.4306
   94MOL   H27146957   7.404   6.580   2.309  2.6986 -1.6132  1.2765
   94MOL   H27246958   7.523   6.462   2.506  0.3102 -0.2327 -1.0916
   94MOL   H27346959   7.384   6.348   2.506 -0.3832  2.8921  2.7256
   94MOL   H27446960   7.572   6.247   2.412  1.9030  0.9102 -0.4168
   94MOL   H27546961   7.443   6.268   2.284  0.2287 -0.1236 -0.2370
   94MOL   H27646962   7.580   6.376   2.287  0.0092  0.7909  0.2230
   94MOL   C27746963   7.280   6.884   2.805  0.7805  0.6663 -0.2574
   94MOL   C27846964   7.246   7.023   2.853 -0.0861  0.1842  0.1296
   94MOL   O27946965   7.352   7.104   2.800 -0.3306 -0.7039 -0.4115
   94MOL   C28046966   7.466   7.104   2.883  1.0500 -0.2635  0.4795
   94MOL   C28146967   7.560   7.217   2.852  0.5484  0.1729 -0.6032
   94MOL   C28246968   7.488   7.352   2.821 -0.1098  0.2586 -0.8658
   94MOL   C28346969   7.567   7.471   2.775 -0.9401 -0.4220  0.2021
   94MOL   C28446970   7.485   7.595   2.760  0.0387 -0.4769 -0.6348
   94MOL   C28546971   7.566   7.721   2.727  0.0834 -0.0377  0.2779
   94MOL   H28646972   7.384   6.862   2.829  0.2331  0.4091  2.0084
   94MOL   H28746973   7.262   6.890   2.698 -1.0537 -2.0293 -0.1449
   94MOL   H28846974   7.234   7.022   2.961  0.8902 -0.9137  0.2314
   94MOL   H28946975   7.523   7.012   2.879  1.7586  0.1960 -0.1213
   94MOL   H29046976   7.430   7.113   2.985 -2.3222 -0.6240 -0.6123
   94MOL   H29146977   7.635   7.191   2.777  0.7690  1.1890 -0.7512
   94MOL   H29246978   7.619   7.237   2.941  0.5805  0.7473 -0.7494
   94MOL   H29346979   7.401   7.339   2.756 -0.3023  0.6552 -0.6879
   94MOL   H29446980   7.443   7.379   2.916 -2.1011 -1.2165 -1.3613
   94MOL   H29546981   7.649   7.487   2.845  0.2391  0.5137 -1.3849
   94MOL   H29646982   7.613   7.442   2.681  1.8952 -0.3178  1.5036
   94MOL   H29746983   7.420   7.576   2.674 -0.5622  0.9041 -0.4970
   94MOL   H29846984   7.429   7.608   2.852 -0.3295 -2.1846 -0.5969
   94MOL   H29946985   7.528   7.769   2.637  0.8849  0.3564  0.1478
   94MOL   H30046986   7.575   0.013   2.810  1.7586 -0.1412  0.1924
   94MOL   H30146987   7.670   7.696   2.711  0.3010  0.1731  1.3248
   94MOL   C30246988   7.119   7.082   2.793 -0.3447  0.2799 -0.1574
   94MOL   C30346989   7.058   7.181   2.901 -0.3248 -0.4024  0.2487
   94MOL   O30446990   6.929   7.225   2.856  0.4159  0.5248  0.2097
   94MOL   C30546991   6.827   7.131   2.871  0.4179  0.3427  0.2137
   94MOL   C30646992   6.691   7.194   2.820 -0.1483 -0.0844 -0.2181
   94MOL   C30746993   6.656   7.334   2.874  0.6501  0.0504 -0.2172
   94MOL   C30846994   6.545   7.407   2.801  0.5611  0.3026  0.0097
   94MOL   C30946995   6.403   7.350   2.821 -0.0463  0.8878 -0.6340
   94MOL   C31046996   6.344   7.366   2.962 -0.0179 -0.3943  0.2060
   94MOL   H31146997   7.139   7.133   2.699 -0.5949 -0.9310 -0.8701
   94MOL   H31246998   7.056   6.996   2.773  0.0865 -0.2872  0.8661
   94MOL   H31346999   7.044   7.125   2.993 -0.8159 -0.3332  0.2186
   94MOL   H31447000   6.814   7.112   2.977  2.0133 -0.9183  0.1943
   94MOL   H31547001   6.849   7.036   2.821  0.8318  0.2183  0.6389
   94MOL   H31647002   6.614   7.124   2.854  1.7944 -0.4580  3.6527
   94MOL   H31747003   6.687   7.208   2.712 -0.0999  1.6609 -0.0068
   94MOL   H31847004   6.635   7.320   2.980 -0.2759 -2.4220 -0.6960
   94MOL   H31947005   6.747   7.394   2.867 -0.6259  1.9111 -1.3867
   94MOL   H32047006   6.544   7.515   2.814  2.2488  0.4275 -0.6817
   94MOL   H32147007   6.569   7.407   2.694  0.7562  2.6863  0.0163
   94MOL   H32247008   6.328   7.391   2.753  0.3031 -0.3283 -1.7936
   94MOL   H32347009   6.404   7.243   2.798 -0.7764  0.3975  1.4560
   94MOL   H32447010   6.313   7.470   2.975 -2.9644 -1.3256  1.0682
   94MOL   H32547011   6.264   7.292   2.972  1.2141 -1.7062  0.3934
   94MOL   H32647012   6.406   7.338   3.047  2.0709  0.3007 -1.0605
   94MOL   C32747013   7.152   7.305   2.926 -0.2481 -0.3414 -0.1820
   94MOL   C32847014   7.097   7.425   3.007  0.3858 -0.1149  0.2749
   94MOL   O32947015   7.088   7.386   3.146 -0.7552 -0.1675  0.3729
   94MOL   C33047016   6.959   7.383   3.199  1.0195 -0.3912 -0.1652
   94MOL   C33147017   6.960   7.344   3.348 -0.2373  0.1557  0.1057
   94MOL   C33247018   7.040   7.446   3.433  0.1556 -0.5829 -0.2218
   94MOL   C33347019   7.004   7.427   3.585  0.1800  0.3314 -0.6023
   94MOL   C33447020   7.030   7.289   3.643  0.0280  0.1432 -0.0664
   94MOL   C33547021   6.971   7.274   3.784 -1.0308  0.4560 -0.3096
   94MOL   H33647022   7.157   7.331   2.820 -2.2508 -0.8019 -0.4073
   94MOL   H33747023   7.256   7.284   2.951  0.8595  1.8653 -2.6398
   94MOL   H33847024   6.993   7.441   2.978  0.6066  1.3448  0.2462
   94MOL   H33947025   6.916   7.306   3.135 -0.0212 -0.0758  0.1346
   94MOL   H34047026   6.905   7.477   3.186  1.3689 -0.2262 -0.4225
   94MOL   H34147027   7.015   7.250   3.340  0.7108  0.7293 -0.2439
   94MOL   H34247028   6.857   7.326   3.379 -0.2721 -1.0925 -0.7011
   94MOL   H34347029   7.147   7.446   3.412  0.0080 -3.8710 -1.2320
   94MOL   H34447030   7.005   7.548   3.420  0.6093 -0.1966  1.5709
   94MOL   H34547031   7.045   7.510   3.643  0.9701  1.5542 -2.8422
   94MOL   H34647032   6.897   7.440   3.599  0.6052  2.5356  0.9349
   94MOL   H34747033   6.993   7.212   3.576 -2.9689  0.8479  0.7188
   94MOL   H34847034   7.137   7.268   3.647 -0.1545 -0.5189  2.2202
   94MOL   H34947035   6.872   7.227   3.783 -0.7005 -0.2369 -1.0393
   94MOL   H35047036   7.031   7.204   3.842 -0.3207  0.4391 -1.0666
   94MOL   H35147037   6.963   7.366   3.841  1.8867  0.8792 -0.5473
   94MOL   C35247038   7.177   7.555   2.989 -0.5664 -0.0082 -0.2377
   94MOL   C35347039   7.099   7.685   3.024  0.3257 -0.5713  0.0583
   94MOL   O35447040   6.996   7.687   2.931 -0.1256  0.6195 -0.3816
   94MOL   C35547041   6.870   7.713   2.986 -0.2797 -0.5670  0.0992
   94MOL   C35647042   6.773   7.743   2.873  0.6538  1.0660 -0.3192
   94MOL   C35747043   6.812   0.083   2.785  0.7727  0.3830  0.2503
   94MOL   C35847044   6.689   0.161   2.727 -0.3669 -0.5776 -0.1659
   94MOL   C35947045   6.740   0.286   2.646  0.8170  0.0570  0.3521
   94MOL   C36047046   6.625   0.385   2.612  0.4965 -0.6153 -0.3578
   94MOL   H36147047   7.275   7.547   3.037 -0.2355 -3.8985 -1.4497
   94MOL   H36247048   7.189   7.554   2.881  1.4230  2.0851 -0.0878
   94MOL   H36347049   7.065   7.685   3.127  0.5772  0.9786  0.1504
   94MOL   H36447050   6.862   0.022   3.051 -1.7054 -0.4010 -0.2729
   94MOL   H36547051   6.829   7.636   3.051  0.3476 -1.3187 -0.3779
   94MOL   H36647052   6.676   7.761   2.918  1.7717  0.6322  2.3612
   94MOL   H36747053   6.742   7.661   2.808 -0.9458  0.5885  1.0233
   94MOL   H36847054   6.870   0.154   2.844  0.2694  1.2774 -0.3100
   94MOL   H36947055   6.882   0.063   2.704  0.8829 -0.4626  0.5580
   94MOL   H37047056   6.620   0.096   2.674 -2.1160 -0.0295  1.3974
   94MOL   H37147057   6.621   0.193   2.806 -1.1163 -2.2220 -0.1446
   94MOL   H37247058   6.806   0.344   2.710 -0.3018  1.7242  0.0460
   94MOL   H37347059   6.781   0.258   2.549  2.0523 -0.5217  1.0363
   94MOL   H37447060   6.660   0.472   2.557 -0.1392 -1.0107 -1.4174
   94MOL   H37547061   6.556   0.338   2.542  0.7147 -2.6912  0.7824
   94MOL   H37647062   6.578   0.415   2.705  0.9161  1.2371 -0.7164
   94MOL   C37747063   7.178   0.039   3.004  0.0598  0.5562 -0.2278
   94MOL   C37847064   7.277   0.060   3.128 -0.5229 -0.0340 -0.1341
   94MOL   O37947065   7.194   0.115   3.225  0.2963  0.2913  0.0784
   94MOL   C38047066   7.260   0.138   3.347  0.1395 -0.1241 -0.0767
   94MOL   C38147067   7.153   0.161   3.459  0.3064 -0.3614 -0.0607
   94MOL   C38247068   7.210   0.246   3.571 -0.3622 -0.6047 -0.5281
   94MOL   C38347069   7.110   0.288   3.685 -0.5296  0.4700  0.1393
   94MOL   C38447070   7.179   0.403   3.765  0.6332  0.7529  0.9761
   94MOL   C38547071   7.130   0.412   3.911  0.1032 -0.1830 -0.2509
   94MOL   H38647072   7.236   0.031   2.912 -3.0359 -0.8129 -2.1628
   94MOL   H38747073   7.101   0.115   2.990 -2.6830 -2.3514 -1.5327
   94MOL   H38847074   7.305   7.740   3.164 -1.7281 -0.5572 -0.6093
   94MOL   H38947075   7.318   0.230   3.345 -0.5859  0.4154  2.6432
   94MOL   H39047076   7.319   0.055   3.386 -1.1255 -1.6326 -1.2793
   94MOL   H39147077   7.108   0.076   3.510  0.2221 -1.8200 -2.4464
   94MOL   H39247078   7.067   0.210   3.412  0.9177  0.5602 -0.2197
   94MOL   H39347079   7.295   0.193   3.614 -0.5889 -1.4615 -1.1124
   94MOL   H39447080   7.250   0.337   3.526 -0.2869 -0.1933  0.3563
   94MOL   H39547081   7.013   0.325   3.652 -0.7046  0.1367  0.2910
   94MOL   H39647082   7.092   0.199   3.744  0.2827  0.7605  0.8474
   94MOL   H39747083   7.287   0.393   3.759  0.6025  0.9332 -0.0463
   94MOL   H39847084   7.145   0.490   3.709 -2.0657 -0.9123 -0.0928
   94MOL   H39947085   7.022   0.426   3.915 -0.1036 -1.8490  0.1263
   94MOL   H40047086   7.145   0.313   3.953  1.3154  0.1133  0.0355
   94MOL   H40147087   7.168   0.500   3.963  0.4815  1.2227 -2.8211
   94MOL   C40247088   7.394   0.151   3.085  0.6325 -0.0455 -0.3020
   94MOL   C40347089   7.531   0.108   3.148 -0.7092 -0.2574  0.7601
   94MOL   O40447090   7.627   0.206   3.112  0.0326  0.1751  0.0104
   94MOL   C40547091   7.628   0.327   3.189 -0.0211 -0.0150  0.6236
   94MOL   C40647092   7.752   0.403   3.136  0.0427 -0.3140 -0.8754
   94MOL   C40747093   0.112   0.330   3.143 -0.8666  0.2467  0.4306
   94MOL   C40847094   0.248   0.411   3.108 -0.2362  0.9994  0.4088
   94MOL   C40947095   0.375   0.339   3.144  0.0217  0.0694 -0.0835
   94MOL   C41047096   0.401   0.339   3.298  0.0678 -0.1729  0.0695
   94MOL   H41147097   7.388   0.259   3.092 -1.3523 -0.1669  0.2313
   94MOL   H41247098   7.413   0.133   2.979  1.5270  0.3758 -0.2187
   94MOL   H41347099   7.525   0.115   3.256 -0.8287  1.0771  0.6839
   94MOL   H41447100   7.631   0.313   3.297  2.1084  0.8579  0.7039
   94MOL   H41547101   7.539   0.388   3.170 -0.0687 -0.4467 -0.5916
   94MOL   H41647102   7.754   0.496   3.193  2.8224  0.6242 -2.4102
   94MOL   H41747103   7.734   0.427   3.031  1.7993  0.1600 -1.0951
   94MOL   H41847104   0.128   0.301   3.247  0.1143 -0.5422  0.0691
   94MOL   H41947105   0.101   0.234   3.092 -2.4565  1.4610 -1.5760
   94MOL   H42047106   0.252   0.427   3.000 -1.4715  0.3431  0.2543
   94MOL   H42147107   0.256   0.508   3.157  0.0874  1.6990 -0.9773
   94MOL   H42247108   0.386   0.241   3.097  1.8550  0.5494 -0.6700
   94MOL   H42347109   0.459   0.392   3.100  0.7147 -1.4549 -0.6430
   94MOL   H42447110   0.420   0.438   3.337 -0.4307 -0.7569  1.8179
   94MOL   H42547111   0.331   0.281   3.358  1.3560  0.4987  2.2429
   94MOL   H42647112   0.499   0.294   3.313 -0.2545 -1.1192 -0.5576
   94MOL   C42747113   7.589   7.746   3.120  0.2800 -0.2089 -0.0323
   94MOL   C42847114   7.684   7.688   3.234  0.3426 -0.2030  0.3235
   94MOL   O42947115   7.642   7.552   3.260 -0.1532 -0.2507 -0.5782
   94MOL   C43047116   7.664   7.447   3.170  0.1297  0.1318  0.1415
   94MOL   C43147117   7.614   7.314   3.237 -0.4261  0.0212  0.1733
   94MOL   C43247118   7.459   7.295   3.236 -0.5311  0.1617 -0.5507
   94MOL   C43347119   7.421   7.159   3.293  0.1164 -0.4475  0.6824
   94MOL   C43447120   7.272   7.134   3.284 -0.0172  0.1109  0.2900
   94MOL   C43547121   7.220   7.016   3.365 -0.1418  0.5339  0.0119
   94MOL   H43647122   7.496   7.689   3.118  0.5298 -0.6354  0.3557
   94MOL   H43747123   7.640   7.759   3.024  0.8609  4.8383  0.8445
   94MOL   H43847124   7.653   7.741   3.325 -0.5679 -1.3751  0.7121
   94MOL   H43947125   7.769   7.429   3.148 -0.0020  0.4526 -0.7555
   94MOL   H44047126   7.602   7.474   3.085  0.3613  1.1407  0.2807
   94MOL   H44147127   7.656   7.322   3.337 -0.1375  2.9074 -0.1403
   94MOL   H44247128   7.662   7.223   3.199  0.9913  1.8199 -2.4758
   94MOL   H44347129   7.419   7.377   3.296  1.0260 -1.0472  2.2373
   94MOL   H44447130   7.435   7.315   3.132  2.6937 -0.1383 -1.3906
   94MOL   H44547131   7.473   7.083   3.235 -1.0289  0.3509 -1.4573
   94MOL   H44647132   7.456   7.140   3.395  1.0715 -2.4269  0.0089
   94MOL   H44747133   7.222   7.219   3.330  0.9525  2.1253 -2.3017
   94MOL   H44847134   7.228   7.138   3.185 -1.7045 -3.5421  0.8307
   94MOL   H44947135   7.111   7.011   3.357 -0.1383  0.8113 -0.2059
   94MOL   H45047136   7.262   6.920   3.333 -0.3630  0.1834  0.7596
   94MOL   H45147137   7.245   7.037   3.469 -2.0471  0.6255  0.4710
   94MOL   C45247138   0.055   7.703   3.210  0.2695  0.1839  0.3477
   94MOL   C45347139   0.148   7.654   3.324  0.0437  0.7879 -0.9347
   94MOL   O45447140   0.137   7.731   3.439 -0.2423  0.2559 -0.1014
   94MOL   C45547141   0.077   7.658   3.554 -0.0133  0.1406 -1.1472
   94MOL   C45647142   0.055   7.744   3.673  0.5647 -0.7211  0.2477
   94MOL   C45747143   7.743   0.088   3.651  0.1755 -0.1507  0.8463
   94MOL   C45847144   7.731   0.194   3.761 -0.4644  0.3250 -0.2150
   94MOL   C45947145   7.616   0.293   3.732  0.0915  0.7388  0.3530
   94MOL   C46047146   7.570   0.365   3.864 -0.5551 -0.4466 -0.1107
   94MOL   H46147147   0.083   7.647   3.120  0.1192  0.5990  0.0425
   94MOL   H46247148   0.091   0.022   3.179  0.9149 -0.4016 -0.7736
   94MOL   H46347149   0.122   7.550   3.342  1.1231  0.8631  1.2228
   94MOL   H46447150   0.139   7.575   3.588  2.4498  1.9621 -1.0276
   94MOL   H46547151   7.764   7.616   3.513 -0.2532  0.2966 -0.7733
   94MOL   H46647152   0.153   7.770   3.713  1.7231 -0.8888 -2.4291
   94MOL   H46747153   0.010   7.683   3.752 -1.5090 -0.0258 -0.3717
   94MOL   H46847154   7.777   0.143   3.564  0.1308 -1.4723 -0.0177
   94MOL   H46947155   7.649   0.054   3.605 -0.6732 -0.4064  2.7150
   94MOL   H47047156   7.702   0.141   3.852  0.0976  1.6661  0.7631
   94MOL   H47147157   0.048   0.237   3.790 -1.4831  0.4424  3.2021
   94MOL   H47247158   7.644   0.366   3.656  1.3975  0.0822  0.1891
   94MOL   H47347159   7.528   0.242   3.695  0.2833  0.8184 -0.2158
   94MOL   H47447160   7.649   0.419   3.915 -0.9544 -1.4509  1.6012
   94MOL   H47547161   7.488   0.434   3.845 -0.4293  0.3498  2.1923
   94MOL   H47647162   7.527   0.296   3.936 -0.4280 -0.1930  0.2079
   94MOL   C47747163   0.295   7.635   3.281  0.2052  0.2041 -0.1335
   94MOL   C47847164   0.323   7.527   3.174  0.1198  0.1063  0.7758
   94MOL   O47947165   0.465   7.500   3.149 -0.5382 -0.0302  0.7472
   94MOL   C48047166   0.486   7.393   3.054 -0.0397 -0.1881 -0.3311
   94MOL   C48147167   0.586   7.290   3.105 -0.6059  0.6844  0.6741
   94MOL   C48247168   0.540   7.226   3.241  0.0586 -0.1919  0.1493
   94MOL   C48347169   0.632   7.120   3.303  0.2611 -0.1442  0.4653
   94MOL   C48447170   0.579   7.057   3.430  0.6803 -0.1308  0.4818
   94MOL   C48547171   0.606   7.149   3.549  0.4754  0.3581  0.1372
   94MOL   H48647172   0.337   7.732   3.254 -1.6949  1.1653  0.3187
   94MOL   H48747173   0.349   7.594   3.366  0.2219  0.6150  0.0541
   94MOL   H48847174   0.281   7.435   3.216  2.2458 -0.4733  1.7349
   94MOL   H48947175   0.523   7.448   2.967  0.9171  0.7073  0.6303
   94MOL   H49047176   0.397   7.344   3.014  1.2389 -1.3067 -1.8656
   94MOL   H49147177   0.677   7.343   3.132  0.2786 -0.7206  0.4856
   94MOL   H49247178   0.620   7.216   3.032  1.1684  2.4180 -0.2787
   94MOL   H49347179   0.523   7.304   3.315 -1.0758 -0.4890  0.2096
   94MOL   H49447180   0.439   7.188   3.222 -0.4383  0.6908  0.9816
   94MOL   H49547181   0.639   7.040   3.229  1.9676 -1.6351  2.1663
   94MOL   H49647182   0.736   7.152   3.300  0.6678 -1.5382 -1.6140
   94MOL   H49747183   0.472   7.040   3.432  1.2441 -4.0703  0.5490
   94MOL   H49847184   0.624   6.960   3.450 -0.4082 -0.6997  0.1869
   94MOL   H49947185   0.553   7.241   3.527  2.1975  2.4525  4.1557
   94MOL   H50047186   0.571   7.099   3.640 -0.0743  1.5575  0.5831
   94MOL   H50147187   0.709   7.179   3.571 -0.4135  2.0431  2.0806
   94MOL   H50247188   0.279   7.556   3.079  1.6453  0.1125  0.0483
   95MOL     C147189   1.035   5.636   1.526 -0.0237  0.0192 -0.3391
   95MOL     C247190   0.945   5.593   1.636  0.3651 -0.4931  0.6949
   95MOL     O347191   1.007   5.503   1.730  0.4669  0.4560  0.0837
   95MOL     C447192   1.105   5.558   1.815  0.3619 -0.1129 -0.7941
   95MOL     C547193   1.220   5.460   1.827  0.1771 -0.3132  0.6745
   95MOL     C647194   1.196   5.323   1.898 -0.2165 -0.4401 -0.1418
   95MOL     C747195   1.326   5.248   1.911  0.3603  0.1520 -0.1304
   95MOL     C847196   1.332   5.125   1.996 -0.2823  0.6796  0.6060
   95MOL     C947197   1.238   5.012   1.946 -0.5904 -0.1373  0.9647
   95MOL    H1047198   1.103   5.712   1.565  3.4467 -3.1689  0.1170
   95MOL    H1147199   1.079   5.564   1.457 -0.4190 -0.6474  0.0968
   95MOL    H1247200   0.920   5.677   1.701  0.3583 -0.1340  0.2235
   95MOL    H1347201   1.054   5.582   1.908  0.8003 -0.4603 -0.4595
   95MOL    H1447202   1.150   5.645   1.768  2.3562 -1.0638 -0.6939
   95MOL    H1547203   1.296   5.511   1.887  0.4730  1.2406 -0.9637
   95MOL    H1647204   1.264   5.444   1.728 -0.6532  1.5193 -0.0328
   95MOL    H1747205   1.161   5.346   1.998  3.0122  3.4175  0.1950
   95MOL    H1847206   1.125   5.253   1.852  1.3753 -2.4842  0.4188
   95MOL    H1947207   1.363   5.212   1.815 -1.4046 -2.0807 -0.0202
   95MOL    H2047208   1.401   5.316   1.951 -1.6329  0.9555  2.3990
   95MOL    H2147209   1.313   5.155   2.099 -4.4592 -3.7885  1.3456
   95MOL    H2247210   1.434   5.088   2.006 -1.6418 -3.3848  0.2776
   95MOL    H2347211   1.134   5.039   1.961 -0.5381  0.3694  0.4254
   95MOL    H2447212   1.251   5.008   1.838 -1.7594  1.2438  0.7772
   95MOL    H2547213   1.275   4.918   1.988  2.9046  1.6478  2.1544
   95MOL    H2647214   0.970   5.702   1.468 -0.8976  1.7625  2.5478
   95MOL    C2747215   0.813   5.529   1.604  0.7322  0.1925  0.1959
   95MOL    C2847216   0.725   5.606   1.496  0.3948 -0.1314 -0.3720
   95MOL    O2947217   0.612   5.518   1.472 -0.2625  0.0430 -0.1842
   95MOL    C3047218   0.620   5.419   1.360 -0.2165 -0.0299 -0.0801
   95MOL    C3147219   0.484   5.348   1.343  0.3242  0.6605  0.8096
   95MOL    C3247220   0.466   5.260   1.218  0.1302 -1.1668  0.3914
   95MOL    C3347221   0.336   5.176   1.221 -0.3096  0.0519  0.1644
   95MOL    C3447222   0.324   5.060   1.120  0.4958 -0.3732  0.3781
   95MOL    C3547223   0.180   5.013   1.096 -0.3783  0.3837 -0.0475
   95MOL    H3647224   0.843   5.433   1.562 -1.5594 -1.5832  2.4583
   95MOL    H3747225   0.746   5.510   1.688  1.0072  1.9868  0.8538
   95MOL    H3847226   0.775   5.615   1.400 -0.9691 -1.0915 -1.1940
   95MOL    H3947227   0.704   5.350   1.366  0.6459  0.8374 -1.8251
   95MOL    H4047228   0.641   5.470   1.266 -2.2282  1.8172  0.4410
   95MOL    H4147229   0.393   5.407   1.353 -0.8832 -1.1297  0.5912
   95MOL    H4247230   0.468   5.298   1.439  0.7998  3.5351  2.4647
   95MOL    H4347231   0.459   5.325   1.131  2.3470  1.8934  2.3809
   95MOL    H4447232   0.551   5.196   1.198  2.2349  1.0421  1.9587
   95MOL    H4547233   0.312   5.138   1.320  0.3534  0.5039  0.4973
   95MOL    H4647234   0.254   5.244   1.196 -0.5736 -0.3740 -0.1354
   95MOL    H4747235   0.370   5.085   1.024 -1.3370  1.7792  0.0082
   95MOL    H4847236   0.385   4.978   1.156 -0.2120 -0.7777  0.6547
   95MOL    H4947237   0.129   5.104   1.064 -0.9247 -0.5724 -1.9696
   95MOL    H5047238   0.187   4.948   1.008 -0.1578 -0.1307  0.3474
   95MOL    H5147239   0.126   4.976   1.183  0.3139 -1.7644 -0.4822
   95MOL    C5247240   0.676   5.742   1.548  0.1939  0.0989 -0.1626
   95MOL    C5347241   0.595   5.829   1.453 -0.1810  0.2319 -0.2081
   95MOL    O5447242   0.537   5.942   1.523  0.1515 -0.0974 -0.3226
   95MOL    C5547243   0.411   5.919   1.582  0.5284  0.1878 -0.2107
   95MOL    C5647244   0.384   6.025   1.700 -0.2373 -0.7086 -0.5600
   95MOL    C5747245   0.463   6.000   1.834 -0.0217  0.1963  0.5009
   95MOL    C5847246   0.415   6.081   1.956 -0.2482  0.3361  0.0346
   95MOL    C5947247   0.541   6.116   2.043 -0.2248  0.1264  0.5200
   95MOL    C6047248   0.502   6.201   2.160 -0.3967  0.4946  0.4027
   95MOL    H6147249   0.752   5.811   1.584 -2.2244  0.6283  4.2665
   95MOL    H6247250   0.618   5.728   1.640 -0.1648  0.4902 -0.3257
   95MOL    H6347251   0.507   5.772   1.421  0.0275  0.2656 -0.8448
   95MOL    H6447252   0.400   5.815   1.612  2.8738  0.0825  0.3985
   95MOL    H6547253   0.333   5.929   1.506  1.1442 -3.3948 -1.4086
   95MOL    H6647254   0.279   6.022   1.728 -0.4510 -0.6851 -1.3444
   95MOL    H6747255   0.396   6.130   1.670  2.4504 -1.0413 -0.7611
   95MOL    H6847256   0.456   5.894   1.860 -0.3415  0.1497  0.2223
   95MOL    H6947257   0.570   6.019   1.822  0.6721 -2.1819  2.3897
   95MOL    H7047258   0.365   6.172   1.920 -2.1772 -1.0757 -0.9569
   95MOL    H7147259   0.338   6.030   2.015  0.0073  0.6086  0.6139
   95MOL    H7247260   0.572   6.022   2.089 -0.6531 -1.0528 -1.5530
   95MOL    H7347261   0.628   6.153   1.989 -1.4468 -0.2820 -1.8010
   95MOL    H7447262   0.449   6.291   2.127  2.4356  1.8245 -0.6881
   95MOL    H7547263   0.430   6.142   2.217  1.0042 -0.3719  1.2904
   95MOL    H7647264   0.595   6.222   2.211  0.0215  0.6190 -0.4025
   95MOL    C7747265   0.676   5.884   1.339  0.2697 -0.1651 -0.3357
   95MOL    C7847266   0.603   5.953   1.219 -0.0600  0.2706  0.2986
   95MOL    O7947267   0.494   5.865   1.183  0.7369 -0.5228  0.5611
   95MOL    C8047268   0.371   5.933   1.160 -0.4719  0.4241  0.0971
   95MOL    C8147269   0.271   5.831   1.101 -0.3132  0.0340  0.0066
   95MOL    C8247270   0.249   5.714   1.199 -0.0852  0.2345 -0.5854
   95MOL    C8347271   0.112   5.634   1.160 -0.4322  0.0142 -0.3542
   95MOL    C8447272   0.099   5.505   1.236  0.3089  0.5352 -0.5870
   95MOL    C8547273   7.751   5.440   1.208 -0.3262  0.1430 -0.1682
   95MOL    H8647274   0.736   5.804   1.295  0.4664  1.6648 -3.5821
   95MOL    H8747275   0.746   5.954   1.384  0.0985 -2.0126  2.9665
   95MOL    H8847276   0.567   6.048   1.258  2.2730  1.1562  0.3678
   95MOL    H8947277   0.390   6.012   1.087  2.0259  1.5284  1.8714
   95MOL    H9047278   0.339   5.984   1.251  1.7951  2.1512 -0.0075
   95MOL    H9147279   0.306   5.798   1.003 -1.1915  1.8971 -0.9567
   95MOL    H9247280   0.186   5.893   1.075  1.0006  0.8750 -2.4013
   95MOL    H9347281   0.342   5.657   1.191  0.0755  0.2898  0.7415
   95MOL    H9447282   0.236   5.741   1.304 -1.3389 -0.2119 -0.6178
   95MOL    H9547283   0.028   5.697   1.191  0.9280  0.9186  1.5830
   95MOL    H9647284   0.113   5.612   1.053 -0.2056 -1.6014 -0.0272
   95MOL    H9747285   0.184   5.447   1.202  0.5704 -0.6104  1.9090
   95MOL    H9847286   0.115   5.527   1.342 -1.6400  0.1352 -0.1858
   95MOL    H9947287   7.745   5.342   1.256  2.2120 -0.5146 -1.1158
   95MOL   H10047288   7.670   5.501   1.247 -1.0478 -0.2368 -1.0470
   95MOL   H10147289   7.742   5.414   1.102  1.5346 -0.0582 -0.2961
   95MOL   C10247290   0.691   5.978   1.097 -0.2393 -0.2086 -0.3130
   95MOL   C10347291   0.823   6.053   1.122 -0.7491 -0.3497  0.5319
   95MOL   O10447292   0.884   6.090   0.995  0.3113  0.1655 -0.0246
   95MOL   C10547293   0.954   5.984   0.923 -0.3794  0.3080  0.1973
   95MOL   C10647294   1.044   6.058   0.814 -0.1339 -0.1537  0.1937
   95MOL   C10747295   1.123   6.180   0.864 -0.6346 -0.1225 -0.3546
   95MOL   C10847296   1.233   6.227   0.774  0.0607 -0.0390 -0.3371
   95MOL   C10947297   1.173   6.281   0.642 -0.0929 -0.4914 -0.5872
   95MOL   C11047298   1.268   6.368   0.555 -0.0185  0.2343 -0.6062
   95MOL   H11147299   0.722   5.876   1.073 -0.0881  0.0230 -1.1226
   95MOL   H11247300   0.639   6.021   1.012 -0.8493 -1.7647 -0.7560
   95MOL   H11347301   0.895   5.985   1.168 -1.0058 -0.1927  1.1790
   95MOL   H11447302   0.889   5.908   0.880  0.9107 -1.2540  0.9267
   95MOL   H11547303   1.007   5.934   1.004 -1.3805 -1.1128 -0.0111
   95MOL   H11647304   0.983   6.091   0.730 -1.0422 -0.5607  0.6799
   95MOL   H11747305   1.117   5.982   0.789  1.7080  1.7386 -0.3145
   95MOL   H11847306   1.047   6.255   0.886 -1.7907 -1.4106  0.0842
   95MOL   H11947307   1.172   6.152   0.957 -0.3256  0.2947 -0.3882
   95MOL   H12047308   1.288   6.305   0.827  0.0967  0.2842 -0.8504
   95MOL   H12147309   1.299   6.144   0.749  0.1880  0.3201 -1.2014
   95MOL   H12247310   1.127   6.206   0.578 -3.9879 -0.9238  2.5072
   95MOL   H12347311   1.087   6.345   0.664  0.9872  0.9045 -0.3313
   95MOL   H12447312   1.216   6.419   0.475 -1.7089  0.1438  0.4215
   95MOL   H12547313   1.341   6.436   0.599 -0.3320  1.2458 -1.6295
   95MOL   H12647314   1.328   6.299   0.495  1.4701  0.6055  0.4071
   95MOL   C12747315   0.807   6.188   1.200 -0.1641  0.2243  0.2984
   95MOL   C12847316   0.934   6.252   1.256  0.6768 -0.2955 -0.2224
   95MOL   O12947317   0.998   6.146   1.334 -0.2701  0.3692 -0.3428
   95MOL   C13047318   1.138   6.173   1.355 -0.4647  0.2971  0.2856
   95MOL   C13147319   1.229   6.076   1.270  0.5929 -0.0461 -0.4918
   95MOL   C13247320   1.381   6.106   1.293 -0.5315  0.2357  0.2638
   95MOL   C13347321   1.433   6.228   1.215 -0.3842 -0.7799  0.1395
   95MOL   C13447322   1.584   6.273   1.220  0.2082  0.2944 -0.0269
   95MOL   C13547323   1.600   6.422   1.195  0.2274  0.4345 -0.5924
   95MOL   H13647324   0.745   6.257   1.143 -0.6578  0.6533  1.3417
   95MOL   H13747325   0.742   6.166   1.284 -0.6801  0.8904  0.0779
   95MOL   H13847326   0.986   6.279   1.164 -0.2394  0.1301 -0.6185
   95MOL   H13947327   1.150   6.159   1.462 -1.9520 -0.9945  0.2988
   95MOL   H14047328   1.166   6.277   1.337  0.2320 -0.1617 -1.3134
   95MOL   H14147329   1.197   6.076   1.166 -1.2895  2.6601  0.0238
   95MOL   H14247330   1.213   5.975   1.306 -0.2673  0.8089  1.6291
   95MOL   H14347331   1.418   6.095   1.394 -0.4826 -3.6949 -0.1132
   95MOL   H14447332   1.428   6.024   1.239  1.7378  1.8333 -0.2699
   95MOL   H14547333   1.401   6.229   1.111  0.3473 -1.7362 -0.0958
   95MOL   H14647334   1.382   6.309   1.269 -0.6905 -0.3432 -0.8041
   95MOL   H14747335   1.646   6.239   1.304  3.1164  0.8939 -1.8637
   95MOL   H14847336   1.628   6.216   1.139 -1.0085 -0.4353 -0.1926
   95MOL   H14947337   1.707   6.439   1.176 -0.3055  1.8587 -2.4908
   95MOL   H15047338   1.556   6.448   1.099  0.9625 -0.2355 -1.1157
   95MOL   H15147339   1.574   6.475   1.287  2.0921  1.6255 -0.7091
   95MOL   C15247340   0.896   6.380   1.328 -0.1099 -0.5596  0.1527
   95MOL   C15347341   0.886   6.504   1.242  0.8299 -0.2820  0.6761
   95MOL   O15447342   0.768   6.495   1.155 -0.0134  1.1402  0.1835
   95MOL   C15547343   0.801   6.532   1.028 -0.6858  0.1620  0.2368
   95MOL   C15647344   0.686   6.531   0.926 -0.2043 -0.0262  0.9516
   95MOL   C15747345   0.738   6.526   0.779  0.1912  0.7029  0.3780
   95MOL   C15847346   0.636   6.561   0.670  1.1309  0.8814 -1.2728
   95MOL   C15947347   0.698   6.536   0.539  0.0196  0.0265  0.4357
   95MOL   C16047348   0.783   6.653   0.486  0.2284  0.0180  0.0382
   95MOL   H16147349   0.800   6.364   1.376 -0.1300 -0.6669  0.0773
   95MOL   H16247350   0.970   6.400   1.406  1.1605 -0.3070 -1.0903
   95MOL   H16347351   0.977   6.514   1.182  0.3147  0.5994  0.0105
   95MOL   H16447352   0.876   6.461   0.995 -0.9924  1.0250 -2.5126
   95MOL   H16547353   0.841   6.633   1.019 -2.1147  0.6564 -0.9689
   95MOL   H16647354   0.622   6.619   0.937  1.2993  1.1324  0.5588
   95MOL   H16747355   0.614   6.451   0.946  1.1703 -1.0861  1.7092
   95MOL   H16847356   0.823   6.593   0.772  0.2221  0.6289  0.0626
   95MOL   H16947357   0.783   6.428   0.761  0.7726  1.0157  0.1053
   95MOL   H17047358   0.555   6.490   0.688  2.3900  0.0143  1.3069
   95MOL   H17147359   0.596   6.662   0.680 -0.5045  0.2150 -0.9387
   95MOL   H17247360   0.755   6.444   0.542  1.8976  0.9434 -3.3141
   95MOL   H17347361   0.623   6.499   0.468 -2.1152 -0.0591  2.6595
   95MOL   H17447362   0.732   6.737   0.439 -0.9621  0.0034  1.2833
   95MOL   H17547363   0.852   6.688   0.562 -0.4235 -0.2866  0.7830
   95MOL   H17647364   0.847   6.621   0.403  1.5150  3.1926 -0.2648
   95MOL   C17747365   0.863   6.628   1.338  0.2781  0.0460  0.6859
   95MOL   C17847366   0.983   6.689   1.415 -0.2555  0.3685  0.2624
   95MOL   O17947367   1.088   6.735   1.324  0.6424 -0.3822  0.4525
   95MOL   C18047368   1.209   6.653   1.342 -0.4283 -0.0879  0.4848
   95MOL   C18147369   1.319   6.702   1.244  0.1191 -0.3936 -0.6438
   95MOL   C18247370   1.278   6.681   1.095 -0.1170 -0.7025 -0.4784
   95MOL   C18347371   1.391   6.713   0.993 -0.1591 -0.3214 -0.3276
   95MOL   C18447372   1.353   6.665   0.853 -0.3455  0.7249 -0.4029
   95MOL   C18547373   1.462   6.702   0.752  0.2377  0.1959 -0.7212
   95MOL   H18647374   0.819   6.699   1.267 -2.3175 -1.5590  0.6344
   95MOL   H18747375   0.779   6.614   1.406 -1.9362  1.6158 -1.6344
   95MOL   H18847376   1.014   6.605   1.477  0.7161 -0.6305 -1.5437
   95MOL   H18947377   1.183   6.550   1.315  2.1777 -0.6976  0.1318
   95MOL   H19047378   1.242   6.639   1.446 -0.3219 -0.4345  0.4069
   95MOL   H19147379   1.410   6.644   1.263  0.5245  0.2647 -0.5267
   95MOL   H19247380   1.335   6.809   1.261 -0.3405 -0.5417  0.7606
   95MOL   H19347381   1.262   6.574   1.085  0.0635 -0.8109  0.3964
   95MOL   H19447382   1.185   6.733   1.072 -0.9452 -2.1527 -0.4482
   95MOL   H19547383   1.406   6.821   1.001 -2.2560 -0.1711  1.7733
   95MOL   H19647384   1.483   6.666   1.028  0.3994  2.1725  1.7044
   95MOL   H19747385   1.333   6.558   0.847  1.1538  0.4716 -1.1149
   95MOL   H19847386   1.262   6.716   0.820  0.4261  2.6460  0.3822
   95MOL   H19947387   1.425   6.665   0.657 -1.6088  1.5737 -0.5710
   95MOL   H20047388   1.490   6.807   0.748  1.7046 -0.1506  0.0665
   95MOL   H20147389   1.556   6.657   0.786 -0.2020  1.8382  2.9536
   95MOL   C20247390   0.942   6.819   1.501 -0.2191 -0.7186  0.6506
   95MOL   C20347391   1.036   6.825   1.621  0.3464  0.4568 -0.7541
   95MOL   O20447392   1.021   6.704   1.699 -0.2329  0.0169 -0.1306
   95MOL   C20547393   0.899   6.669   1.766  0.1645  0.0073  0.3299
   95MOL   C20647394   0.919   6.542   1.845  0.3382  0.9023 -0.3612
   95MOL   C20747395   0.914   6.424   1.750 -1.1705 -0.1698  0.4351
   95MOL   C20847396   0.909   6.286   1.816 -0.7098 -0.0289 -0.4002
   95MOL   C20947397   0.888   6.177   1.710 -0.2244  0.0668  0.4565
   95MOL   C21047398   0.912   6.042   1.766 -0.5530  0.5302 -0.2599
   95MOL   H21147399   0.954   6.909   1.442 -0.5488  1.3370  3.6013
   95MOL   H21247400   0.837   6.820   1.528 -0.4313 -0.6799 -0.1850
   95MOL   H21347401   1.139   6.828   1.585  0.8384 -1.2950  0.4194
   95MOL   H21447402   0.809   6.667   1.704 -0.0743  1.2442  0.6180
   95MOL   H21547403   0.888   6.748   1.841 -0.5334 -0.0617  0.3080
   95MOL   H21647404   0.843   6.531   1.923  0.8233  2.7886  0.3957
   95MOL   H21747405   1.013   6.550   1.899  0.3801  0.7045 -0.4037
   95MOL   H21847406   0.836   6.425   1.673 -0.0201 -2.3048 -0.8042
   95MOL   H21947407   1.005   6.430   1.690 -0.4753 -0.4532  1.4682
   95MOL   H22047408   1.006   6.262   1.860  0.1330  1.0693 -1.6034
   95MOL   H22147409   0.835   6.282   1.895 -0.8855  1.4678 -0.4878
   95MOL   H22247410   0.786   6.178   1.671 -0.0671  1.7452  0.0660
   95MOL   H22347411   0.962   6.194   1.632 -1.4917  1.4782 -0.4633
   95MOL   H22447412   0.835   6.015   1.840  1.0546 -0.9441  0.9045
   95MOL   H22547413   0.907   5.960   1.694 -1.3619  0.9058 -0.6398
   95MOL   H22647414   1.008   6.026   1.815 -1.4868  1.2639  1.8829
   95MOL   C22747415   1.025   6.947   1.701  0.4883 -0.1540 -0.9143
   95MOL   C22847416   1.117   6.946   1.831 -0.1105  0.8444  0.3669
   95MOL   O22947417   1.248   6.958   1.782 -0.1450 -0.5603  0.2721
   95MOL   C23047418   1.350   6.895   1.861  0.4281 -0.4919 -0.5948
   95MOL   C23147419   1.475   6.951   1.791  0.2086 -0.9423 -0.4713
   95MOL   C23247420   1.488   6.918   1.635  0.1747 -0.0786 -0.0532
   95MOL   C23347421   1.633   6.934   1.586 -0.9283 -0.6244 -0.2881
   95MOL   C23447422   1.646   6.923   1.427 -0.1373 -0.2211  0.0119
   95MOL   C23547423   1.777   6.876   1.376 -0.4521 -0.0638  0.3278
   95MOL   H23647424   1.051   7.033   1.638  0.5320 -0.6048 -1.5214
   95MOL   H23747425   0.926   6.959   1.744  1.3833 -1.3965  1.5975
   95MOL   H23847426   1.112   6.847   1.875 -1.6128 -0.6819 -3.0138
   95MOL   H23947427   1.347   6.786   1.849  1.6792 -0.4351 -1.6036
   95MOL   H24047428   1.345   6.930   1.964  1.6439  1.8061 -1.2842
   95MOL   H24147429   1.555   6.888   1.831  1.1421  0.7250  0.3583
   95MOL   H24247430   1.506   7.054   1.808  1.6530 -1.4279  0.0060
   95MOL   H24347431   1.446   6.819   1.618  0.4559 -0.2358  0.1537
   95MOL   H24447432   1.424   6.981   1.573 -0.0557 -0.1224  0.1425
   95MOL   H24547433   1.660   7.034   1.621 -0.1429  0.0711 -2.7937
   95MOL   H24647434   1.709   6.867   1.626 -1.6292 -1.0631  0.3126
   95MOL   H24747435   1.574   6.846   1.398  0.2966 -0.6943  0.1995
   95MOL   H24847436   1.606   7.007   1.370 -2.8312 -1.5291 -0.1415
   95MOL   H24947437   1.780   6.866   1.267 -3.8930  0.4616  0.1103
   95MOL   H25047438   1.862   6.938   1.403 -1.4376  2.4378 -2.0579
   95MOL   H25147439   1.794   6.773   1.409  1.0527  0.0508 -0.0724
   95MOL   C25247440   1.098   7.056   1.938 -0.6070  0.1451  1.0034
   95MOL   C25347441   1.051   7.012   2.079  0.1678  0.0760  0.0012
   95MOL   O25447442   0.920   6.960   2.070  0.3596 -0.3248  0.3482
   95MOL   C25547443   0.908   6.830   2.113 -0.4810 -0.1298 -0.3079
   95MOL   C25647444   0.762   6.788   2.142 -0.1462 -0.8376  0.0326
   95MOL   C25747445   0.761   6.655   2.211 -0.2617  0.5415  0.1861
   95MOL   C25847446   0.622   6.628   2.275  0.7002 -0.5873 -0.1117
   95MOL   C25947447   0.597   6.494   2.340 -0.6223  0.4313  0.1455
   95MOL   C26047448   0.674   6.473   2.466 -1.2067 -0.1409 -0.1560
   95MOL   H26147449   1.193   7.108   1.955 -0.1817 -0.6431  1.0690
   95MOL   H26247450   1.039   7.138   1.898  0.4413 -0.4771 -1.9759
   95MOL   H26347451   1.118   6.939   2.125  0.3357 -0.3152 -0.8610
   95MOL   H26447452   0.964   6.821   2.206  2.1618  0.1280 -1.8188
   95MOL   H26547453   0.950   6.762   2.039  2.0961 -0.8219  1.7404
   95MOL   H26647454   0.712   6.772   2.047 -0.2084 -1.7517  0.2156
   95MOL   H26747455   0.707   6.867   2.191 -2.0114 -1.6571 -0.7027
   95MOL   H26847456   0.795   6.579   2.141  2.3845  1.4391  0.4309
   95MOL   H26947457   0.839   6.647   2.288  1.0625 -0.8312 -1.2578
   95MOL   H27047458   0.584   6.703   2.344  0.3378 -0.6880 -0.2004
   95MOL   H27147459   0.546   6.631   2.197  0.0591 -0.2663  0.5183
   95MOL   H27247460   0.491   6.489   2.368 -0.7595 -0.8287 -0.5579
   95MOL   H27347461   0.616   6.414   2.269 -0.2324 -0.5184  1.3145
   95MOL   H27447462   0.656   6.542   2.549 -2.5483  0.5748 -1.0346
   95MOL   H27547463   0.657   6.372   2.504  0.5086  0.4248  2.2103
   95MOL   H27647464   0.781   6.476   2.444 -1.4006  1.2731 -0.9281
   95MOL   C27747465   1.039   7.120   2.185  0.5133 -0.4322 -0.9117
   95MOL   C27847466   1.011   7.098   2.331  0.0900  0.0415 -0.0494
   95MOL   O27947467   1.100   7.001   2.387  0.0732  0.5342  0.4659
   95MOL   C28047468   1.042   6.912   2.479 -0.0334 -0.2139 -0.2165
   95MOL   C28147469   1.114   6.776   2.481 -0.1785 -0.3285  0.5497
   95MOL   C28247470   1.041   6.671   2.572 -0.0107  0.6624 -0.8358
   95MOL   C28347471   1.110   6.535   2.581  0.3834  0.6126 -0.2182
   95MOL   C28447472   1.024   6.417   2.632  0.0662  0.0096  0.3099
   95MOL   C28547473   0.979   6.417   2.779 -0.3383  0.9139  0.1807
   95MOL   H28647474   1.132   7.178   2.180  0.5643 -0.4873 -0.5872
   95MOL   H28747475   0.978   7.205   2.156 -0.8235 -0.8908  0.4959
   95MOL   H28847476   0.907   7.064   2.334  0.3881 -0.9811 -0.9383
   95MOL   H28947477   0.940   6.884   2.453 -0.0882 -1.2651  1.0683
   95MOL   H29047478   1.043   6.945   2.583  0.8540  0.9800 -0.5847
   95MOL   H29147479   1.215   6.778   2.522 -0.0811 -1.3584  0.3610
   95MOL   H29247480   1.129   6.744   2.378  0.6350 -2.0165  1.1825
   95MOL   H29347481   1.025   6.708   2.673 -1.6860 -0.1929 -0.7620
   95MOL   H29447482   0.943   6.654   2.526  0.1821 -1.2862 -0.5797
   95MOL   H29547483   1.155   6.511   2.485  2.1011  1.8315  0.2551
   95MOL   H29647484   1.191   6.551   2.652  1.2561 -0.1419 -1.0322
   95MOL   H29747485   0.937   6.411   2.567 -1.1856  1.8285  1.7882
   95MOL   H29847486   1.092   6.334   2.613  0.4937  0.2257  0.8690
   95MOL   H29947487   0.953   6.318   2.817 -0.3576  0.3314 -1.3136
   95MOL   H30047488   1.053   6.463   2.844  4.2426 -2.5661 -2.2731
   95MOL   H30147489   0.898   6.490   2.786 -1.1286 -0.0076  0.8082
   95MOL   C30247490   1.041   7.214   2.424 -0.3003 -0.0171  0.0905
   95MOL   C30347491   0.968   7.350   2.392  0.1837  0.0930  0.0761
   95MOL   O30447492   0.988   7.438   2.499  0.4329 -0.2363  0.0871
   95MOL   C30547493   1.095   7.526   2.477 -0.5594  0.1399 -0.8693
   95MOL   C30647494   1.090   7.638   2.586 -0.5089 -0.4190 -0.5208
   95MOL   C30747495   1.174   7.763   2.552  0.2048 -0.0104 -0.0937
   95MOL   C30847496   1.173   0.091   2.659 -0.5234  0.2402 -0.1097
   95MOL   C30947497   1.229   0.222   2.616  0.2488 -0.4166  0.3332
   95MOL   C31047498   1.117   0.292   2.524 -0.5575 -0.4454  0.0718
   95MOL   H31147499   1.019   7.183   2.526 -0.3947 -1.2124 -0.2884
   95MOL   H31247500   1.144   7.247   2.417 -1.7986  4.4564 -3.6520
   95MOL   H31347501   1.007   7.395   2.301  0.2271  2.2770  1.1438
   95MOL   H31447502   1.094   7.577   2.380  1.6135  0.0713 -0.9427
   95MOL   H31547503   1.193   7.480   2.483 -1.7592 -2.6726 -1.7972
   95MOL   H31647504   1.128   7.599   2.681 -0.6807  0.7481  0.0344
   95MOL   H31747505   0.991   7.678   2.609 -0.5838 -0.7211 -0.3159
   95MOL   H31847506   1.275   7.722   2.545  0.3311 -0.1691  2.1588
   95MOL   H31947507   1.145   0.029   2.458 -1.1982  0.5322  0.5889
   95MOL   H32047508   1.078   0.106   2.711 -0.6200 -0.3874 -0.1077
   95MOL   H32147509   1.238   0.062   2.741 -0.6843  1.9819  0.6558
   95MOL   H32247510   1.253   0.283   2.702  0.9023 -0.0695 -0.0911
   95MOL   H32347511   1.322   0.210   2.561 -0.0308 -1.5456  0.0852
   95MOL   H32447512   1.107   0.238   2.430  0.4451 -0.5223  0.0054
   95MOL   H32547513   1.017   0.278   2.566  0.6449 -2.2667  2.4167
   95MOL   H32647514   1.131   0.400   2.518  0.8702 -0.6580 -0.5850
   95MOL   C32747515   0.814   7.339   2.362  0.6924 -0.3884  0.3861
   95MOL   C32847516   0.725   7.273   2.473 -0.3927 -1.1303 -0.0297
   95MOL   O32947517   0.660   7.373   2.540  0.2809  0.0204  0.4345
   95MOL   C33047518   0.726   7.456   2.638  0.3630  0.0190  0.1722
   95MOL   C33147519   0.799   7.388   2.752  0.0251 -0.2290 -0.6577
   95MOL   C33247520   0.850   7.482   2.859 -0.9490 -0.3675 -0.1103
   95MOL   C33347521   0.944   7.417   2.964 -0.0752  0.0075 -0.0046
   95MOL   C33447522   0.989   7.520   3.069 -0.4186  0.3916  0.0322
   95MOL   C33547523   1.018   7.467   3.211 -0.1919  0.9000 -0.1335
   95MOL   H33647524   0.801   7.279   2.272 -0.8113  0.6940 -0.1257
   95MOL   H33747525   0.770   7.435   2.335 -2.6187 -2.0523 -0.3721
   95MOL   H33847526   0.783   7.203   2.533  0.3651 -1.8027 -1.4953
   95MOL   H33947527   0.638   7.512   2.671 -1.5332 -1.1230 -2.7063
   95MOL   H34047528   0.789   7.526   2.583 -1.3261  2.3259  1.0683
   95MOL   H34147529   0.880   7.338   2.700  0.0118 -0.5997 -0.3229
   95MOL   H34247530   0.742   7.313   2.806 -0.1341  0.0682 -0.4064
   95MOL   H34347531   0.905   7.565   2.815 -0.1613 -0.2017  1.1298
   95MOL   H34447532   0.770   7.529   2.918 -0.4833  1.4864 -0.9151
   95MOL   H34547533   0.882   7.343   3.016  1.2039  1.6583  4.1257
   95MOL   H34647534   1.029   7.371   2.916  0.2963  1.0736 -0.3773
   95MOL   H34747535   1.089   7.552   3.039  0.2808 -0.4225  1.4784
   95MOL   H34847536   0.935   7.615   3.069 -0.9777  0.0835 -1.3793
   95MOL   H34947537   1.073   7.372   3.208  4.5758  3.4405  1.2938
   95MOL   H35047538   1.073   7.532   3.279  2.1144 -0.4164 -0.6778
   95MOL   H35147539   0.923   7.444   3.259  1.5954  0.2511  3.2126
   95MOL   C35247540   0.614   7.192   2.401 -0.2735 -0.5688 -0.4535
   95MOL   C35347541   0.510   7.130   2.494  0.4501  0.5082 -0.1101
   95MOL   O35447542   0.595   7.031   2.549 -0.2868  0.4085 -0.4003
   95MOL   C35547543   0.556   6.958   2.668 -0.0802  0.0327 -0.1589
   95MOL   C35647544   0.673   6.892   2.738  0.7091  0.0300 -0.6647
   95MOL   C35747545   0.724   6.981   2.843 -0.4976 -0.2846 -0.6646
   95MOL   C35847546   0.835   6.920   2.930  0.0714 -0.2367 -0.8247
   95MOL   C35947547   0.900   7.017   3.030  0.0594 -0.1504 -0.0130
   95MOL   C36047548   1.019   6.943   3.099  0.1959 -0.0780  0.4975
   95MOL   H36147549   0.575   7.273   2.339 -1.2844 -0.6001  0.1408
   95MOL   H36247550   0.648   7.120   2.327 -1.7281 -0.1987 -1.5067
   95MOL   H36347551   0.478   7.196   2.575  1.6357  1.6842 -0.5809
   95MOL   H36447552   0.488   6.881   2.631  1.0475 -0.3459 -1.4735
   95MOL   H36547553   0.501   7.030   2.729 -0.8732 -1.3776  0.8337
   95MOL   H36647554   0.751   6.865   2.667 -0.6320 -0.8799 -1.7969
   95MOL   H36747555   0.652   6.800   2.792 -0.9619  1.9335  2.0594
   95MOL   H36847556   0.762   7.068   2.789 -0.8991 -0.7445 -1.6844
   95MOL   H36947557   0.642   7.024   2.901 -0.0926 -0.8328  0.3224
   95MOL   H37047558   0.804   6.832   2.985 -0.8785  0.1922 -0.6586
   95MOL   H37147559   0.911   6.878   2.866  1.0058  2.2630 -1.4223
   95MOL   H37247560   0.926   7.107   2.974  2.4099 -1.0989 -0.4816
   95MOL   H37347561   0.831   7.046   3.109  0.6063 -0.2187  0.4870
   95MOL   H37447562   1.098   6.906   3.033  0.5108  1.7635 -0.1852
   95MOL   H37547563   1.078   7.006   3.166  0.4659  0.1064  0.0904
   95MOL   H37647564   0.994   6.858   3.162  0.2381 -1.1445 -0.8987
   95MOL   C37747565   0.385   7.071   2.430  0.0241  0.0247  0.3093
   95MOL   C37847566   0.282   7.175   2.383  0.1001 -0.0266 -0.4962
   95MOL   O37947567   0.226   7.235   2.496 -0.2561  0.0496 -0.4712
   95MOL   C38047568   0.267   7.373   2.510 -0.6071  0.1341 -0.1895
   95MOL   C38147569   0.223   7.433   2.643  0.5128 -0.6951  0.2762
   95MOL   C38247570   0.223   7.586   2.666 -0.3666  0.1096 -0.1317
   95MOL   C38347571   0.199   7.626   2.808 -0.0995 -0.4852 -0.2638
   95MOL   C38447572   0.264   7.765   2.841 -0.6209 -0.6832  0.1270
   95MOL   C38547573   0.246   0.101   2.742  0.1899 -0.2669 -0.0586
   95MOL   H38647574   0.424   7.000   2.358 -0.0874  0.9172 -0.6336
   95MOL   H38747575   0.328   7.010   2.501 -0.7515 -0.9694 -1.1497
   95MOL   H38847576   0.341   7.242   2.321 -0.6362  1.6947  0.6180
   95MOL   H38947577   0.230   7.426   2.423  0.1406  2.3124  0.7934
   95MOL   H39047578   0.375   7.376   2.500 -0.5869 -2.1292 -1.0408
   95MOL   H39147579   0.271   7.374   2.722 -2.0578  0.5961  2.9149
   95MOL   H39247580   0.119   7.404   2.664  0.6382 -1.2466  0.1569
   95MOL   H39347581   0.322   7.626   2.644 -0.2920  0.2780  0.5165
   95MOL   H39447582   0.145   7.638   2.611  0.4602  1.3012 -0.1809
   95MOL   H39547583   0.092   7.634   2.825  0.0620  0.1775  0.4562
   95MOL   H39647584   0.238   7.555   2.880 -2.4553 -0.2665  1.2745
   95MOL   H39747585   0.242   0.020   2.942 -0.5412 -1.8304  0.5299
   95MOL   H39847586   0.372   7.752   2.850 -1.0472 -3.2108  2.1707
   95MOL   H39947587   0.142   0.135   2.743  0.4441  0.5298 -0.1587
   95MOL   H40047588   0.314   0.181   2.773 -0.0127 -0.5315  1.1126
   95MOL   H40147589   0.268   0.076   2.639 -0.1526 -0.0055 -0.1959
   95MOL   C40247590   0.177   7.125   2.287 -0.8312  0.0977  0.5956
   95MOL   C40347591   0.069   7.034   2.345 -0.2230 -0.1052 -0.2814
   95MOL   O40447592   0.037   6.964   2.228  0.0406  0.4996 -0.3082
   95MOL   C40547593   0.039   6.825   2.241 -0.0632  0.3404 -0.5189
   95MOL   C40647594   0.180   6.773   2.193  0.5408  0.0128  0.4070
   95MOL   C40747595   0.204   6.628   2.247  0.4612 -0.4359  0.7499
   95MOL   C40847596   0.109   6.521   2.193  0.9159  0.5313 -0.1945
   95MOL   C40947597   0.148   6.383   2.260  0.5842 -0.1854 -0.4781
   95MOL   C41047598   0.082   6.254   2.190 -0.7857 -0.7607  0.2406
   95MOL   H41147599   0.226   7.080   2.201  2.7060 -0.5692  2.8438
   95MOL   H41247600   0.128   7.213   2.247 -0.9461  1.0173  2.6903
   95MOL   H41347601   0.121   6.976   2.421 -0.4036  0.7748  0.5276
   95MOL   H41447602   7.737   6.776   2.185  0.3052 -3.0235  1.7358
   95MOL   H41547603   0.013   6.797   2.343 -0.5090 -2.2747 -1.3153
   95MOL   H41647604   0.249   6.839   2.245  2.1002 -2.2116  1.2153
   95MOL   H41747605   0.199   6.780   2.086 -0.0508  2.8158  0.4630
   95MOL   H41847606   0.308   6.596   2.236 -0.1612 -2.4747  0.5774
   95MOL   H41947607   0.190   6.630   2.355 -1.5599  1.8344  0.4947
   95MOL   H42047608   0.009   6.552   2.221  0.0759 -1.7535 -0.4986
   95MOL   H42147609   0.123   6.529   2.085 -3.4873  1.2674 -0.7878
   95MOL   H42247610   0.256   6.370   2.262  0.8449  1.9908  1.2453
   95MOL   H42347611   0.131   6.374   2.367 -1.0101  0.4436 -0.6567
   95MOL   H42447612   7.768   6.264   2.133  0.1283 -0.2961 -1.1673
   95MOL   H42547613   0.146   6.230   2.106  0.3889 -1.3872  1.2879
   95MOL   H42647614   0.080   6.166   2.254 -0.0735 -1.5639 -0.8379
   95MOL   C42747615   7.731   7.125   2.396 -0.6664 -0.2769  0.7064
   95MOL   C42847616   7.609   7.060   2.451 -0.7722 -0.2523 -0.1861
   95MOL   O42947617   7.663   6.990   2.567 -0.0529 -0.0424 -0.0717
   95MOL   C43047618   7.607   6.864   2.595  0.5168 -0.9590 -0.3693
   95MOL   C43147619   7.703   6.796   2.691  0.1736 -0.5612  0.0026
   95MOL   C43247620   0.047   6.748   2.626 -1.0842  0.3683 -0.4674
   95MOL   C43347621   0.138   6.663   2.721  0.5868  1.0788  0.1479
   95MOL   C43447622   0.256   6.610   2.651 -0.3350  0.4515 -0.8783
   95MOL   C43547623   0.350   6.532   2.749 -0.1205  0.4717 -0.3473
   95MOL   H43647624   7.766   7.195   2.472 -0.8261 -0.2306  0.7392
   95MOL   H43747625   7.700   7.185   2.310  0.3106 -1.5575 -0.5632
   95MOL   H43847626   7.583   6.976   2.386 -3.0556 -0.8472  1.4182
   95MOL   H43947627   7.597   6.795   2.512  2.3961 -1.4927 -0.1672
   95MOL   H44047628   7.508   6.881   2.638  0.9528 -0.1381  0.3222
   95MOL   H44147629   7.655   6.708   2.735 -0.4100  0.6807  1.9479
   95MOL   H44247630   7.715   6.868   2.773 -0.7811 -2.6518  2.0390
   95MOL   H44347631   0.009   6.681   2.549 -1.7447 -1.4019  1.3427
   95MOL   H44447632   0.098   6.828   2.573  0.0704  0.6649  1.0626
   95MOL   H44547633   0.164   6.735   2.798 -1.9423  3.1483 -0.8757
   95MOL   H44647634   0.095   6.578   2.775  2.2238  0.4188  0.4408
   95MOL   H44747635   0.218   6.539   2.578 -0.6968 -0.9673  0.6782
   95MOL   H44847636   0.302   6.692   2.595 -2.5775  0.6980 -2.4053
   95MOL   H44947637   0.428   6.597   2.788 -0.1157  1.0421 -1.2880
   95MOL   H45047638   0.288   6.499   2.833 -0.3966 -0.4387 -0.9001
   95MOL   H45147639   0.400   6.443   2.711  0.2114 -0.8845  3.0870
   95MOL   C45247640   7.497   7.146   2.486 -0.1137 -0.1447  0.6764
   95MOL   C45347641   7.411   7.209   2.370  0.6303  0.1998 -0.4031
   95MOL   O45447642   7.307   7.295   2.425  0.0179  0.4828 -0.4638
   95MOL   C45547643   7.343   7.430   2.425 -0.1772  0.2449 -0.0807
   95MOL   C45647644   7.234   7.515   2.478 -0.7293  0.3484  0.0362
   95MOL   C45747645   7.130   7.530   2.372  0.1920  0.9037  0.1217
   95MOL   C45847646   7.000   7.600   2.429  0.6596 -0.0915  0.2840
   95MOL   C45947647   6.896   7.611   2.316  0.2991  0.1382 -0.5205
   95MOL   C46047648   6.784   7.712   2.345 -0.0638 -0.0383  0.5931
   95MOL   H46147649   7.431   7.086   2.548  1.2438  1.1299  3.4522
   95MOL   H46247650   7.531   7.218   2.560 -0.0165  0.7384 -0.2097
   95MOL   H46347651   7.478   7.262   2.303 -0.7560  0.0341 -1.9549
   95MOL   H46447652   7.382   7.462   2.328  0.7367 -4.3951 -1.3572
   95MOL   H46547653   7.424   7.428   2.498  0.6980  0.3692 -1.0408
   95MOL   H46647654   7.272   7.617   2.490  0.4643 -0.2937  1.8073
   95MOL   H46747655   7.191   7.477   2.570  0.3764 -2.4580 -0.5849
   95MOL   H46847656   7.163   7.583   2.283 -1.1281 -0.5248 -1.2600
   95MOL   H46947657   7.109   7.427   2.341 -0.0710  1.5018 -1.7138
   95MOL   H47047658   6.967   7.551   2.520  2.3463 -0.1598  0.8866
   95MOL   H47147659   7.022   7.702   2.459  2.1769 -1.0063  2.4027
   95MOL   H47247660   6.937   7.652   2.224 -1.9210  2.6255 -0.4788
   95MOL   H47347661   6.858   7.513   2.290  0.6684  0.1274 -1.0115
   95MOL   H47447662   6.709   7.696   2.267 -0.1722 -4.7361  1.4862
   95MOL   H47547663   6.747   7.687   2.445 -1.1795  0.9455  0.4499
   95MOL   H47647664   6.824   0.035   2.350  0.3436 -0.1415 -0.6075
   95MOL   C47747665   7.341   7.106   2.280  0.9543  0.1270  0.3526
   95MOL   C47847666   7.269   7.174   2.161  0.1100 -0.2759 -0.4052
   95MOL   O47947667   7.246   7.065   2.057 -0.4322 -0.0691  0.0611
   95MOL   C48047668   7.206   7.116   1.930  0.0285 -0.4312 -0.2595
   95MOL   C48147669   7.063   7.180   1.935 -0.5164  0.5395 -0.6046
   95MOL   C48247670   7.023   7.265   1.813 -0.9916 -0.0435  1.0928
   95MOL   C48347671   6.899   7.357   1.833 -0.4307 -0.3302 -0.4176
   95MOL   C48447672   6.917   7.475   1.934 -0.2016 -0.2177  0.7418
   95MOL   C48547673   6.792   7.558   1.960 -0.3619 -0.0108 -0.2504
   95MOL   H48647674   7.424   7.051   2.235  0.2771 -0.2201 -0.4888
   95MOL   H48747675   7.280   7.038   2.339  0.7696 -1.4403 -1.5642
   95MOL   H48847676   7.188   7.244   2.182 -0.6568 -1.4772  0.7040
   95MOL   H48947677   7.211   7.043   1.849  3.1781 -1.1133  0.4734
   95MOL   H49047678   7.278   7.195   1.911  2.5994 -2.7191 -0.3170
   95MOL   H49147679   7.056   7.241   2.025  1.6442 -1.3233  0.8780
   95MOL   H49247680   6.993   7.097   1.942  0.0723  0.0927  0.1134
   95MOL   H49347681   7.109   7.321   1.774 -1.3000 -0.1792  0.2188
   95MOL   H49447682   6.994   7.193   1.736  0.2474 -0.7117  1.2370
   95MOL   H49547683   6.858   7.394   1.739  0.4071  1.0136 -0.2734
   95MOL   H49647684   6.808   7.306   1.864  0.4234 -0.9284  1.1577
   95MOL   H49747685   6.942   7.431   2.031 -1.5576  1.4090  1.8653
   95MOL   H49847686   6.997   7.534   1.891 -0.3279 -1.6474 -1.5519
   95MOL   H49947687   6.815   7.630   2.039  2.4287 -0.0623 -0.9647
   95MOL   H50047688   6.751   7.621   1.881 -2.0632  1.5780  1.8531
   95MOL   H50147689   6.707   7.498   1.989 -1.4325  1.6139  0.0528
   95MOL   H50247690   7.351   7.238   2.126  2.0931 -2.8726 -0.6735
   96MOL     C147691   6.938   1.571   1.556  0.3405 -0.5219  0.5617
   96MOL     C247692   7.018   1.694   1.582  0.0974  0.1237  0.1203
   96MOL     O347693   7.009   1.702   1.724 -0.0994  0.0146 -0.4046
   96MOL     C447694   7.124   1.659   1.791 -0.0012 -0.2205 -0.3393
   96MOL     C547695   7.115   1.701   1.937  0.8072 -0.5953 -0.3376
   96MOL     C647696   7.149   1.849   1.967  0.7279 -0.1220 -0.1275
   96MOL     C747697   7.119   1.885   2.113  0.0209  0.3887  0.1726
   96MOL     C847698   7.180   2.017   2.162  0.7252  0.1742  0.3050
   96MOL     C947699   7.180   2.041   2.312 -0.4772  0.0583  0.2309
   96MOL    H1047700   6.972   1.479   1.602 -2.5596 -0.6622  2.5194
   96MOL    H1147701   6.831   1.585   1.570  0.4577  1.9506 -0.5695
   96MOL    H1247702   7.119   1.669   1.549  1.0777  3.1389  0.7125
   96MOL    H1347703   7.211   1.717   1.758  1.1763  0.8799  4.3001
   96MOL    H1447704   7.140   1.552   1.780  1.8853  0.0114 -0.1175
   96MOL    H1547705   7.187   1.640   1.992  0.3637 -0.1817  0.7138
   96MOL    H1647706   7.022   1.674   1.987  0.8149  0.5800  0.3411
   96MOL    H1747707   7.254   1.867   1.945  0.7667  1.0392  0.9337
   96MOL    H1847708   7.105   1.921   1.898 -0.7927 -0.0121  0.9294
   96MOL    H1947709   7.013   1.906   2.129 -0.3947  0.7337 -2.7068
   96MOL    H2047710   7.148   1.804   2.179  0.6580  2.2221  2.2265
   96MOL    H2147711   7.124   2.095   2.110  0.6661 -0.5080 -0.6653
   96MOL    H2247712   7.282   2.027   2.124 -0.3184  0.3451 -2.6276
   96MOL    H2347713   7.247   2.122   2.341 -0.6710 -0.9176  3.6515
   96MOL    H2447714   7.082   2.048   2.360 -0.9893  0.0693 -0.7844
   96MOL    H2547715   7.212   1.952   2.366  2.3388 -0.0348 -1.5083
   96MOL    H2647716   6.932   1.553   1.448  0.6933  1.9463  0.0965
   96MOL    C2747717   6.941   1.816   1.527  0.0330  0.0797 -0.1483
   96MOL    C2847718   7.016   1.939   1.566 -0.4829  0.6897 -0.6802
   96MOL    O2947719   7.142   1.932   1.501 -0.2693 -0.1720  0.2857
   96MOL    C3047720   7.246   2.013   1.558  0.0443 -0.2029 -0.1480
   96MOL    C3147721   7.384   1.955   1.518  0.6935 -0.6392 -0.1698
   96MOL    C3247722   7.394   1.821   1.583  0.0929 -0.4054  0.7909
   96MOL    C3347723   7.526   1.756   1.549 -0.1821 -0.2044  0.4811
   96MOL    C3447724   7.531   1.611   1.609  0.2750 -0.7692 -0.6651
   96MOL    C3547725   7.672   1.557   1.587  0.2607 -0.3419  0.3168
   96MOL    H3647726   6.928   1.818   1.418 -0.2222 -0.4939 -0.1294
   96MOL    H3747727   6.839   1.819   1.563 -0.2295 -1.7261 -0.6620
   96MOL    H3847728   7.037   1.942   1.673 -1.0055  2.0173 -0.6060
   96MOL    H3947729   7.243   2.009   1.667 -0.5645 -0.1569 -0.1631
   96MOL    H4047730   7.230   2.117   1.531  2.2037  0.6518  1.6398
   96MOL    H4147731   7.461   2.027   1.546 -0.7918  1.2487 -0.8179
   96MOL    H4247732   7.386   1.956   1.409  1.3224  0.6051 -0.1585
   96MOL    H4347733   7.383   1.834   1.691 -2.1793 -0.3367  0.5751
   96MOL    H4447734   7.317   1.754   1.544 -1.4119  0.9240  1.4324
   96MOL    H4547735   7.520   1.751   1.440  0.1498 -0.6345  0.4818
   96MOL    H4647736   7.622   1.798   1.577  0.5498 -1.7412  0.3006
   96MOL    H4747737   7.518   1.624   1.717  2.5322 -0.4430 -0.4031
   96MOL    H4847738   7.464   1.545   1.555 -0.1422 -2.0966  1.4464
   96MOL    H4947739   7.758   1.606   1.633  0.5368 -1.1370  0.6593
   96MOL    H5047740   7.688   1.451   1.608 -0.9322 -0.0162  3.1114
   96MOL    H5147741   7.689   1.564   1.480 -0.0483 -0.2400  0.2718
   96MOL    C5247742   6.953   2.074   1.523 -0.2071  0.0597  0.0031
   96MOL    C5347743   6.814   2.104   1.581 -0.5329 -0.7175  0.4127
   96MOL    O5447744   6.820   2.121   1.718 -0.4930  0.1145  0.1981
   96MOL    C5547745   6.778   2.014   1.803 -0.9165  0.3831  0.0571
   96MOL    C5647746   6.788   2.068   1.949 -0.2381 -0.0556 -0.4559
   96MOL    C5747747   6.704   2.190   1.982 -0.0272 -0.0975  0.0723
   96MOL    C5847748   6.710   2.247   2.124 -0.5216 -0.4982 -0.4456
   96MOL    C5947749   6.626   2.370   2.154  0.4723 -0.2637 -0.2618
   96MOL    C6047750   6.628   2.409   2.304 -0.2757  0.2001 -0.0250
   96MOL    H6147751   6.960   2.085   1.415 -0.3985 -1.8647 -0.2322
   96MOL    H6247752   7.021   2.146   1.568 -1.0118  1.2804 -0.7262
   96MOL    H6347753   6.743   2.028   1.546 -0.3325 -1.6614  1.9665
   96MOL    H6447754   6.845   1.929   1.792 -1.3438 -0.2785  2.3419
   96MOL    H6547755   6.676   1.981   1.782 -0.3711 -1.2785 -0.0604
   96MOL    H6647756   6.895   2.088   1.952 -0.4828  1.1517  0.3414
   96MOL    H6747757   6.778   1.990   2.025  1.3506  1.5068  1.4245
   96MOL    H6847758   6.733   2.266   1.909  0.6372  0.0983  0.5362
   96MOL    H6947759   6.601   2.172   1.952  0.6739 -1.0939 -1.7860
   96MOL    H7047760   6.703   2.160   2.190 -0.8002 -0.1164  0.0314
   96MOL    H7147761   6.814   2.279   2.123 -0.6881  0.1260  0.9284
   96MOL    H7247762   6.655   2.456   2.093 -1.1745  1.1397  0.8754
   96MOL    H7347763   6.526   2.345   2.118  0.2226 -2.8037  2.0763
   96MOL    H7447764   6.571   2.499   2.325  0.3237  0.6059 -0.1236
   96MOL    H7547765   6.581   2.327   2.358 -1.3883 -0.9182 -2.6059
   96MOL    H7647766   6.731   2.433   2.332 -0.6440  0.9899  0.6883
   96MOL    C7747767   6.765   2.244   1.526  0.3503  0.0171 -0.4561
   96MOL    C7847768   6.634   2.293   1.593  0.7532  0.4097  0.6552
   96MOL    O7947769   6.532   2.199   1.558  0.0401  0.6478  0.6395
   96MOL    C8047770   6.429   2.181   1.653 -0.1141 -1.2474  0.0624
   96MOL    C8147771   6.336   2.084   1.594 -0.5549 -0.5701 -0.8118
   96MOL    C8247772   6.229   2.160   1.500  0.3103  0.4020 -0.3511
   96MOL    C8347773   6.124   2.055   1.447 -0.0887 -0.0647  0.8428
   96MOL    C8447774   6.018   2.115   1.348 -0.1126  0.2282  0.4433
   96MOL    C8547775   5.910   2.199   1.415 -0.1360  0.5515  0.2660
   96MOL    H8647776   6.755   2.230   1.418 -0.8217 -1.6882 -0.1423
   96MOL    H8747777   6.842   2.318   1.548  1.2349 -0.7289 -0.9775
   96MOL    H8847778   6.652   2.301   1.700  1.4778  1.9547  0.4424
   96MOL    H8947779   6.373   2.273   1.671  0.4454 -0.9881  0.5138
   96MOL    H9047780   6.466   2.145   1.749  1.9110  0.4422 -0.0278
   96MOL    H9147781   6.299   2.022   1.675  0.9908  0.3435  0.6088
   96MOL    H9247782   6.391   2.010   1.536 -2.1692 -2.4614  0.0254
   96MOL    H9347783   6.185   2.236   1.564 -0.8076 -2.3601  2.2991
   96MOL    H9447784   6.277   2.209   1.415  2.3232 -0.2750  0.3688
   96MOL    H9547785   6.189   1.988   1.391  1.6956  1.9399  0.4284
   96MOL    H9647786   6.080   2.001   1.530  0.6763 -0.9990  0.6507
   96MOL    H9747787   6.067   2.179   1.274  0.3339 -1.0566 -0.3892
   96MOL    H9847788   5.962   2.037   1.296  0.1414 -0.6487  1.4656
   96MOL    H9947789   5.856   2.257   1.340  0.5222 -0.7103 -1.2067
   96MOL   H10047790   5.849   2.149   1.491 -2.5486  1.3021 -1.1370
   96MOL   H10147791   5.962   2.282   1.464  1.7636 -0.2625 -0.3460
   96MOL   C10247792   6.593   2.427   1.528  0.1483 -0.0144  0.3227
   96MOL   C10347793   6.638   2.548   1.612  0.1920  0.0175  0.3726
   96MOL   O10447794   6.775   2.566   1.591  0.0278  0.4157 -0.4421
   96MOL   C10547795   6.861   2.557   1.702 -0.0999 -0.1925 -0.4024
   96MOL   C10647796   6.999   2.611   1.678 -0.6065  0.9106 -0.0635
   96MOL   C10747797   7.097   2.520   1.606  0.3425 -0.1017 -0.0844
   96MOL   C10847798   7.229   2.595   1.605  0.1446  0.5277  0.1154
   96MOL   C10947799   7.348   2.509   1.532  0.2017  0.7029  0.0525
   96MOL   C11047800   7.475   2.595   1.515  0.2021  0.3728 -0.5472
   96MOL   H11147801   6.622   2.424   1.423  0.9425 -2.2444  0.5882
   96MOL   H11247802   6.484   2.428   1.520  0.1349 -2.6620 -0.0809
   96MOL   H11347803   6.606   2.534   1.716 -0.3911 -1.4522  0.0141
   96MOL   H11447804   6.871   2.462   1.755 -1.3267  1.0882  2.1901
   96MOL   H11547805   6.819   2.623   1.778  0.5772 -1.0659  0.7388
   96MOL   H11647806   7.028   2.644   1.778 -1.5160 -0.8531  0.7825
   96MOL   H11747807   7.002   2.697   1.610 -0.3539 -1.5424 -3.2624
   96MOL   H11847808   7.101   2.428   1.665 -4.2564  1.0332  2.2090
   96MOL   H11947809   7.047   2.496   1.512  0.6063 -0.4366 -0.1416
   96MOL   H12047810   7.220   2.692   1.556  1.5333 -0.0403 -1.3240
   96MOL   H12147811   7.256   2.628   1.705  0.4647  1.5789 -0.3136
   96MOL   H12247812   7.364   2.412   1.578  0.5103  1.4063  1.4601
   96MOL   H12347813   7.318   2.477   1.432  0.3545  0.6105  0.0369
   96MOL   H12447814   7.520   2.631   1.607 -0.2661 -0.6050  0.0811
   96MOL   H12547815   7.551   2.538   1.462 -0.2109 -0.0004 -0.7411
   96MOL   H12647816   7.450   2.682   1.455 -0.4773  1.4156  1.2232
   96MOL   C12747817   6.563   2.677   1.571 -0.2861  0.6410 -0.2867
   96MOL   C12847818   6.621   2.813   1.627  0.7897 -0.1304 -0.1540
   96MOL   O12947819   6.627   2.812   1.765 -0.5721  0.1393  0.0001
   96MOL   C13047820   6.742   2.870   1.831  0.4079 -0.4119 -1.0161
   96MOL   C13147821   6.740   2.838   1.980  0.1327 -0.3342  0.2667
   96MOL   C13247822   6.872   2.849   2.053 -0.4789  0.0383  0.3193
   96MOL   C13347823   6.855   2.847   2.203  0.3143  0.1624 -0.4007
   96MOL   C13447824   6.836   2.711   2.256  0.3374 -0.0651  0.4130
   96MOL   C13547825   6.793   2.707   2.408  0.2292  0.4393  0.7290
   96MOL   H13647826   6.574   2.675   1.463  2.5733 -3.2124 -0.0561
   96MOL   H13747827   6.457   2.672   1.592  0.0930  0.6841  1.7787
   96MOL   H13847828   6.725   2.828   1.600  0.0965 -0.6046 -3.3501
   96MOL   H13947829   6.757   2.976   1.811  1.2560 -0.6325 -1.5662
   96MOL   H14047830   6.828   2.820   1.787  0.4231 -1.7528  0.4723
   96MOL   H14147831   6.694   2.739   1.981 -0.1972 -0.2530 -2.2153
   96MOL   H14247832   6.676   2.914   2.025  0.3766 -0.7501  1.3068
   96MOL   H14347833   6.937   2.769   2.018  0.3915  0.7726  0.2487
   96MOL   H14447834   6.917   2.944   2.024 -0.9074 -0.1143 -0.8983
   96MOL   H14547835   6.942   2.894   2.249  0.3812  0.3606 -0.7322
   96MOL   H14647836   6.777   2.920   2.225  0.5246  1.0931 -2.6215
   96MOL   H14747837   6.762   2.664   2.191  2.2927 -1.5358 -0.8097
   96MOL   H14847838   6.927   2.654   2.240  0.5294  0.0982  0.9221
   96MOL   H14947839   6.688   2.738   2.405 -0.0503 -0.5521  0.1998
   96MOL   H15047840   6.807   2.604   2.439  1.2713 -0.0874 -1.4200
   96MOL   H15147841   6.846   2.773   2.477 -3.1351  0.9864  2.9435
   96MOL   C15247842   6.527   2.932   1.596  0.5155  0.0566 -0.1642
   96MOL   C15347843   6.540   3.004   1.458 -0.2715  0.4540 -0.7721
   96MOL   O15447844   6.499   2.912   1.360 -0.8537 -0.1884 -0.6029
   96MOL   C15547845   6.570   2.937   1.234 -0.3438  0.1744  0.9029
   96MOL   C15647846   6.516   2.856   1.120  0.2237 -0.1275 -0.0866
   96MOL   C15747847   6.581   2.910   0.994  0.4144 -0.4867 -0.3342
   96MOL   C15847848   6.536   2.835   0.866  0.1191 -0.1855 -0.6661
   96MOL   C15947849   6.541   2.680   0.870 -0.6403 -0.5957 -0.2895
   96MOL   C16047850   6.498   2.602   0.751 -0.3638 -0.3263 -0.0889
   96MOL   H16147851   6.425   2.893   1.601  0.6169 -0.0260  1.4872
   96MOL   H16247852   6.542   3.008   1.673 -1.2059 -1.4462  1.7120
   96MOL   H16347853   6.644   3.037   1.447  1.0150 -3.6017 -1.6550
   96MOL   H16447854   6.674   2.911   1.256  0.1447  1.2220 -0.0595
   96MOL   H16547855   6.574   3.045   1.219 -3.1957  0.1336 -0.5058
   96MOL   H16647856   6.409   2.876   1.109  0.2007  0.4415  1.0886
   96MOL   H16747857   6.522   2.749   1.140 -0.1208 -0.3196 -0.9885
   96MOL   H16847858   6.557   3.015   0.975  0.1164 -0.5744 -0.4415
   96MOL   H16947859   6.689   2.905   1.009  0.4915  1.9015  0.0152
   96MOL   H17047860   6.434   2.857   0.834  0.1372 -0.6128 -1.0265
   96MOL   H17147861   6.600   2.871   0.785  0.4613  0.0162 -0.3090
   96MOL   H17247862   6.642   2.643   0.888 -0.4195 -1.8068 -3.7650
   96MOL   H17347863   6.486   2.646   0.958 -0.2248  1.8908  0.9601
   96MOL   H17447864   6.391   2.610   0.731 -0.2536  1.1546 -0.1743
   96MOL   H17547865   6.541   2.643   0.659 -0.2796 -1.1273 -0.4152
   96MOL   H17647866   6.530   2.498   0.749  0.5236 -0.0531 -0.7893
   96MOL   C17747867   6.447   3.131   1.442  0.7173 -0.4140  0.2089
   96MOL   C17847868   6.490   3.263   1.508 -0.0715 -0.4701 -0.6519
   96MOL   O17947869   6.623   3.285   1.462  0.6483 -0.3960 -0.4631
   96MOL   C18047870   6.725   3.299   1.561  0.0359  0.1451  0.1588
   96MOL   C18147871   6.852   3.368   1.498 -0.1313 -0.1882 -0.6099
   96MOL   C18247872   6.926   3.288   1.391  0.8739 -0.2356 -0.6292
   96MOL   C18347873   7.042   3.375   1.337 -0.8166  0.9462  0.2663
   96MOL   C18447874   7.123   3.306   1.229  0.0231  0.0285  0.6166
   96MOL   C18547875   7.248   3.396   1.202  0.3779 -0.0527  0.0357
   96MOL   H18647876   6.427   3.153   1.337  1.2899  0.8260  0.3365
   96MOL   H18747877   6.347   3.111   1.479  0.4052 -1.3413 -1.0990
   96MOL   H18847878   6.486   3.261   1.617 -0.1399  1.8346 -0.5813
   96MOL   H18947879   6.751   3.200   1.598  1.3214  0.2755 -0.3455
   96MOL   H19047880   6.680   3.365   1.635 -0.6735 -0.2729  0.1059
   96MOL   H19147881   6.919   3.392   1.581 -2.3324 -2.0812  1.7925
   96MOL   H19247882   6.835   3.466   1.454  1.7252  0.8652  0.9066
   96MOL   H19347883   6.962   3.191   1.425  1.8989 -0.0948 -1.2881
   96MOL   H19447884   6.856   3.269   1.310  0.6012  0.2362 -0.5085
   96MOL   H19547885   7.002   3.465   1.289  0.8678  1.6724  0.1558
   96MOL   H19647886   7.101   3.415   1.419  0.6333 -2.3868  0.8926
   96MOL   H19747887   7.144   3.201   1.248 -1.8115 -0.4698  0.0051
   96MOL   H19847888   7.060   3.293   1.141  0.9566 -2.1905  0.2560
   96MOL   H19947889   7.227   3.499   1.175  1.7638  0.2875  0.2267
   96MOL   H20047890   7.308   3.404   1.293 -0.7831 -0.8539  0.8813
   96MOL   H20147891   7.317   3.357   1.127  2.1559 -1.1700  2.1757
   96MOL   C20247892   6.397   3.383   1.469  0.0253 -0.5912  0.2518
   96MOL   C20347893   6.403   3.501   1.562 -0.1932  0.9022  0.5838
   96MOL   O20447894   6.347   3.451   1.681  0.4078 -0.9982  0.1847
   96MOL   C20547895   6.389   3.517   1.796  0.1269  0.3416  0.3599
   96MOL   C20647896   6.311   3.454   1.919 -0.1487 -0.1228  0.2167
   96MOL   C20747897   6.347   3.524   2.043  0.1640  0.2206  0.0506
   96MOL   C20847898   6.286   3.446   2.168 -0.0702  0.4554  0.2886
   96MOL   C20947899   6.135   3.449   2.189  0.0141 -1.2030 -0.1445
   96MOL   C21047900   6.096   3.358   2.305 -0.8722 -0.1058  0.4851
   96MOL   H21147901   6.423   3.412   1.368  1.0682  0.9177  0.9381
   96MOL   H21247902   6.298   3.339   1.467  0.0127 -0.7338  2.5767
   96MOL   H21347903   6.505   3.538   1.574  0.6945 -0.7540 -1.4391
   96MOL   H21447904   6.359   3.621   1.785 -1.4146 -0.2256 -1.0678
   96MOL   H21547905   6.496   3.505   1.813 -0.1097  0.1489  1.7455
   96MOL   H21647906   6.343   3.350   1.910 -1.1119 -0.3784 -0.3605
   96MOL   H21747907   6.203   3.457   1.904 -0.0790  3.0969  0.1591
   96MOL   H21847908   6.455   3.523   2.062  0.0361 -1.7852  0.8441
   96MOL   H21947909   6.305   3.624   2.040  0.3256  0.3037  0.4419
   96MOL   H22047910   6.305   3.341   2.145 -1.2945  0.5121 -1.1026
   96MOL   H22147911   6.333   3.479   2.260  1.1610  1.3890 -0.6565
   96MOL   H22247912   6.097   3.548   2.212  2.8569  0.5561 -2.6718
   96MOL   H22347913   6.089   3.421   2.094  1.2881 -2.8519 -0.2992
   96MOL   H22447914   6.111   3.253   2.282  0.4167  0.3580 -0.7869
   96MOL   H22547915   6.148   3.382   2.398  0.0093 -0.6361  0.1244
   96MOL   H22647916   5.993   3.374   2.339 -0.9935  2.1320 -0.8048
   96MOL   C22747917   6.316   3.612   1.506  0.0097  0.8989 -0.5531
   96MOL   C22847918   6.367   3.679   1.378  0.4925  0.1145 -0.1559
   96MOL   O22947919   6.257   3.701   1.293  0.6591 -0.2702  0.1049
   96MOL   C23047920   6.240   3.603   1.195 -0.0515 -0.1724 -0.1180
   96MOL   C23147921   6.146   3.651   1.081 -0.2484  0.3644  0.3275
   96MOL   C23247922   6.181   3.788   1.027 -0.0343  0.0549  0.7505
   96MOL   C23347923   6.098   3.842   0.901 -0.3401 -0.0224 -0.2609
   96MOL   C23447924   5.944   3.846   0.922  0.3855 -0.4880 -0.0379
   96MOL   C23547925   5.883   3.904   0.792  0.3100 -0.4821 -0.1460
   96MOL   H23647926   6.221   3.567   1.478 -0.3720  0.2179  1.7317
   96MOL   H23747927   6.292   3.692   1.576  1.0759 -0.0493  0.9280
   96MOL   H23847928   6.443   3.626   1.322 -0.5575  0.1990 -1.7122
   96MOL   H23947929   6.191   3.522   1.248  0.4844 -1.2253 -1.2093
   96MOL   H24047930   6.337   3.586   1.147 -0.4522 -0.2551 -0.9045
   96MOL   H24147931   6.044   3.650   1.118 -0.7251  3.4366 -0.8098
   96MOL   H24247932   6.143   3.581   0.997  1.6866  1.0389 -0.3479
   96MOL   H24347933   6.169   3.868   1.100  0.0096  2.2962 -1.6330
   96MOL   H24447934   6.288   3.788   1.010  0.1347  2.5599  1.5991
   96MOL   H24547935   6.134   3.941   0.873 -0.3953  0.2057  0.4621
   96MOL   H24647936   6.118   3.777   0.816 -0.1747  0.1345 -0.3426
   96MOL   H24747937   5.888   3.754   0.942  1.4294 -0.9651  0.7339
   96MOL   H24847938   5.920   3.910   1.006 -1.4302 -1.6146  0.3186
   96MOL   H24947939   5.775   3.899   0.800  0.5935 -3.5481  2.6134
   96MOL   H25047940   5.914   4.007   0.777 -0.5618 -0.3876 -1.4172
   96MOL   H25147941   5.913   3.829   0.718  1.1821  0.3341 -0.6331
   96MOL   C25247942   6.423   3.819   1.416  0.5006 -0.2140 -0.1438
   96MOL   C25347943   6.558   3.816   1.498  0.1320  0.4283  0.0219
   96MOL   O25447944   6.592   3.948   1.538 -0.0142 -0.1851  0.5001
   96MOL   C25547945   6.544   4.003   1.659 -0.1835 -0.9040 -0.3450
   96MOL   C25647946   6.567   4.157   1.638  0.1305 -0.1986  0.0526
   96MOL   C25747947   6.462   4.207   1.537  0.4867  0.4298 -0.4140
   96MOL   C25847948   6.439   4.368   1.528  0.6486 -0.0334 -0.2161
   96MOL   C25947949   6.330   4.402   1.419  0.8983 -0.2131  0.1930
   96MOL   C26047950   6.293   4.552   1.390 -0.5069  0.0239  0.3354
   96MOL   H26147951   6.431   3.881   1.327  0.2038 -1.8036 -1.2984
   96MOL   H26247952   6.351   3.882   1.469  1.7696 -0.0718  1.4529
   96MOL   H26347953   6.536   3.765   1.592  1.6818 -0.3366 -0.0232
   96MOL   H26447954   6.606   3.961   1.738  0.9545 -0.6301 -1.0916
   96MOL   H26547955   6.438   3.980   1.676  0.2995 -2.0129  1.2673
   96MOL   H26647956   6.670   4.175   1.604 -0.4937 -0.9493 -2.3596
   96MOL   H26747957   6.558   4.210   1.733  0.5101 -2.4922  1.4154
   96MOL   H26847958   6.489   4.175   1.436  0.2378 -2.2937  0.3274
   96MOL   H26947959   6.363   4.175   1.568  1.8031 -0.7411  2.8048
   96MOL   H27047960   6.421   4.418   1.623  0.2016  0.1058 -0.3730
   96MOL   H27147961   6.534   4.416   1.504  0.0688  0.9901 -0.5151
   96MOL   H27247962   6.352   4.361   1.321  1.2854  1.7469 -0.5748
   96MOL   H27347963   6.230   4.366   1.443  1.3464 -1.5833  0.0609
   96MOL   H27447964   6.385   4.606   1.367 -0.6313  1.6563  3.3943
   96MOL   H27547965   6.225   4.562   1.306 -4.2489 -4.0281  2.6615
   96MOL   H27647966   6.254   4.608   1.475 -1.0166  0.1764  0.0005
   96MOL   C27747967   6.674   3.755   1.422 -0.2280  0.2677 -0.1649
   96MOL   C27847968   6.805   3.761   1.507 -0.4700 -0.4641  0.4433
   96MOL   O27947969   6.813   3.662   1.615  0.0779  0.0928 -0.8272
   96MOL   C28047970   6.912   3.692   1.714  0.1092  0.3483 -0.4596
   96MOL   C28147971   6.856   3.663   1.857  0.3908 -0.2617  0.1201
   96MOL   C28247972   6.849   3.510   1.884  0.2075 -0.1347  0.7415
   96MOL   C28347973   6.808   3.481   2.023  0.5291 -0.1227 -0.2353
   96MOL   C28447974   6.785   3.326   2.049 -0.4015  0.4584  0.3837
   96MOL   C28547975   6.680   3.249   1.969 -0.1076  0.6716 -0.4007
   96MOL   H28647976   6.653   3.652   1.392  0.6383 -0.1595  0.6810
   96MOL   H28747977   6.697   3.808   1.329  0.0595 -0.1066 -0.3073
   96MOL   H28847978   6.820   3.863   1.544  1.5945  0.1169 -1.8414
   96MOL   H28947979   6.942   3.796   1.707  1.0277  0.0621 -0.7835
   96MOL   H29047980   7.000   3.634   1.689 -0.6181 -0.2366 -1.7624
   96MOL   H29147981   6.765   3.723   1.860  0.6953  0.0954  3.7171
   96MOL   H29247982   6.916   3.722   1.926  0.5810 -1.2269  0.7906
   96MOL   H29347983   6.774   3.470   1.816 -0.4593  1.8545  0.2793
   96MOL   H29447984   6.944   3.460   1.864  0.5946  1.8715 -3.0380
   96MOL   H29547985   6.883   3.529   2.086  0.2780 -0.4607  0.3189
   96MOL   H29647986   6.720   3.542   2.043  1.0649 -0.5083  3.6902
   96MOL   H29747987   6.879   3.276   2.023  0.3408  2.7938 -1.5037
   96MOL   H29847988   6.763   3.314   2.156 -0.3079  1.2449  0.4922
   96MOL   H29947989   6.672   3.146   2.003  0.6795 -0.4224 -3.3778
   96MOL   H30047990   6.583   3.297   1.983 -0.8888 -1.3052  1.3883
   96MOL   H30147991   6.693   3.241   1.861  1.1485  1.7231 -0.3349
   96MOL   C30247992   6.925   3.727   1.412  0.7508 -0.2181  0.2703
   96MOL   C30347993   6.991   3.852   1.358  0.4148 -0.1946 -0.6754
   96MOL   O30447994   6.894   3.942   1.297 -0.2915 -0.2370 -0.1509
   96MOL   C30547995   6.890   4.068   1.358  0.6927 -0.5475  0.7326
   96MOL   C30647996   6.828   4.155   1.247 -0.1024 -0.3113 -0.1535
   96MOL   C30747997   6.846   4.300   1.288 -0.0949  0.2132 -0.0161
   96MOL   C30847998   6.762   4.395   1.191  0.1225  0.5978  0.2738
   96MOL   C30947999   6.790   4.542   1.219 -0.2279  0.6668  0.1906
   96MOL   C31048000   6.751   4.584   1.357 -0.0885 -0.1205 -1.4606
   96MOL   H31148001   7.002   3.672   1.467  0.1500 -0.7392  0.6080
   96MOL   H31248002   6.894   3.660   1.332  1.2680  2.0911 -1.9059
   96MOL   H31348003   7.052   3.898   1.435  1.5950  0.0175 -1.7360
   96MOL   H31448004   6.993   4.090   1.386  0.9707 -2.1930  1.0961
   96MOL   H31548005   6.819   4.070   1.442 -1.7074 -0.3253 -1.2437
   96MOL   H31648006   6.721   4.138   1.235 -0.4040  2.1047 -1.3206
   96MOL   H31748007   6.885   4.140   1.155  1.5693 -0.7121  0.9288
   96MOL   H31848008   6.816   4.309   1.392 -0.7459  1.8884 -0.3343
   96MOL   H31948009   6.950   4.329   1.283  0.0110 -0.2910 -1.0302
   96MOL   H32048010   6.786   4.383   1.085  1.2163 -0.9582  0.6766
   96MOL   H32148011   6.655   4.372   1.197  0.1944  0.4763  1.0709
   96MOL   H32248012   6.892   4.577   1.204  0.3535 -0.7711  0.6687
   96MOL   H32348013   6.732   4.604   1.151  0.8426  2.3708  0.7936
   96MOL   H32448014   6.789   4.685   1.374 -2.5218  0.4296  1.1502
   96MOL   H32548015   6.643   4.576   1.362 -0.0924  0.1002 -1.1030
   96MOL   H32648016   6.806   4.521   1.428 -0.2814  2.1089  0.7525
   96MOL   C32748017   7.081   3.810   1.245  0.3650  0.4942  0.0744
   96MOL   C32848018   7.168   3.927   1.186 -0.3436 -0.6385 -0.5303
   96MOL   O32948019   7.242   3.992   1.288 -0.2928 -0.5197 -0.5532
   96MOL   C33048020   7.269   4.133   1.255 -0.1328 -0.3157 -0.0956
   96MOL   C33148021   7.326   4.202   1.377 -0.1746 -0.0605  0.5675
   96MOL   C33248022   7.474   4.164   1.409  0.3509 -0.2668 -0.1738
   96MOL   C33348023   7.542   4.229   1.531 -0.7034 -0.2193  0.0444
   96MOL   C33448024   7.670   4.171   1.573  0.3201 -0.4273  0.7549
   96MOL   C33548025   7.748   4.252   1.674 -0.0323 -0.0591  0.1347
   96MOL   H33648026   7.019   3.774   1.163 -1.1409  1.8772  0.5767
   96MOL   H33748027   7.143   3.730   1.286  0.1285  1.7215  3.0024
   96MOL   H33848028   7.097   3.998   1.143  1.2934 -0.4927 -3.0738
   96MOL   H33948029   7.179   4.186   1.224  0.0474  0.8371  1.3241
   96MOL   H34048030   7.336   4.136   1.169 -2.1603  0.8778 -1.6770
   96MOL   H34148031   7.262   4.178   1.462 -0.5784 -1.2376 -0.0539
   96MOL   H34248032   7.332   4.308   1.355  2.8674 -0.4325 -0.6616
   96MOL   H34348033   7.483   4.058   1.432  2.6159 -0.5024 -1.9808
   96MOL   H34448034   7.538   4.179   1.322  2.3420 -1.4302  1.0458
   96MOL   H34548035   7.556   4.333   1.503 -0.4897  0.0745  1.2339
   96MOL   H34648036   7.475   4.230   1.618 -0.0537  0.1739  0.5399
   96MOL   H34748037   7.644   4.074   1.618 -0.2466  0.6062  2.7258
   96MOL   H34848038   7.739   4.158   1.490 -0.7646 -1.8700  0.0356
   96MOL   H34948039   0.062   4.195   1.677  0.4859  0.7981  0.3594
   96MOL   H35048040   7.772   4.350   1.633 -2.4897 -0.2095 -1.7973
   96MOL   H35148041   7.693   4.272   1.766 -1.4467  3.4218 -1.3993
   96MOL   C35248042   7.270   3.877   1.087 -0.3838 -0.4781  0.1550
   96MOL   C35348043   7.285   3.953   0.945 -0.0338 -0.5870 -0.2996
   96MOL   O35448044   7.161   3.953   0.881 -0.2261  0.4481  0.0786
   96MOL   C35548045   7.129   4.071   0.811  0.2887 -0.3776  1.0240
   96MOL   C35648046   6.983   4.046   0.747 -0.0583 -0.1879 -0.2328
   96MOL   C35748047   6.951   4.153   0.646 -0.0891 -0.5136  0.3247
   96MOL   C35848048   6.797   4.167   0.615 -0.7158 -0.3267  0.5909
   96MOL   C35948049   6.746   4.269   0.512  1.0279 -0.5437  0.8072
   96MOL   C36048050   6.753   4.232   0.366  0.6170  0.1238 -0.0174
   96MOL   H36148051   7.369   3.884   1.131 -0.1325  0.3598 -0.5307
   96MOL   H36248052   7.243   3.775   1.062  0.1652 -1.1254  2.0895
   96MOL   H36348053   7.316   4.057   0.956  1.4206 -0.8794 -1.3813
   96MOL   H36448054   7.193   4.073   0.723  0.2728  1.7385  1.0261
   96MOL   H36548055   7.130   4.166   0.864 -2.0736 -0.0970  0.5969
   96MOL   H36648056   6.918   4.050   0.835  2.9935  1.6500  2.0583
   96MOL   H36748057   6.980   3.947   0.703 -0.7683  1.0288 -3.0089
   96MOL   H36848058   6.987   4.250   0.682  1.3353 -0.3872 -1.3632
   96MOL   H36948059   7.002   4.149   0.550 -0.2529  2.6259  0.0482
   96MOL   H37048060   6.782   4.067   0.575  2.4649 -1.3673  1.8162
   96MOL   H37148061   6.744   4.162   0.711  2.7766 -2.3612  2.5117
   96MOL   H37248062   6.641   4.293   0.532  0.8530  0.2910 -0.9905
   96MOL   H37348063   6.799   4.364   0.524 -0.0668  0.6958 -3.3742
   96MOL   H37448064   6.854   4.213   0.327  0.3351 -1.5717  0.0164
   96MOL   H37548065   6.696   4.140   0.348  2.3005 -0.7123 -1.3101
   96MOL   H37648066   6.704   4.307   0.304 -1.3630  0.6609  2.1664
   96MOL   C37748067   7.400   3.886   0.858  0.5724  0.5932 -0.2210
   96MOL   C37848068   7.542   3.900   0.910  0.8248  0.5122  0.9073
   96MOL   O37948069   7.587   4.016   0.848 -0.3181 -0.1293  0.1966
   96MOL   C38048070   7.727   4.043   0.863  0.2811  0.3117  0.2638
   96MOL   C38148071   7.752   4.190   0.825 -0.3625  0.6153  0.1385
   96MOL   C38248072   7.682   4.294   0.909  0.2344 -0.6421 -0.6296
   96MOL   C38348073   7.705   4.438   0.875  0.5324 -0.0784  0.2734
   96MOL   C38448074   7.636   4.545   0.965 -0.0649  0.2801  0.5332
   96MOL   C38548075   7.679   4.687   0.929  0.2658 -0.3565  0.8932
   96MOL   H38648076   7.367   3.789   0.821  0.7156  0.9363 -1.2793
   96MOL   H38748077   7.382   3.943   0.767 -3.8564 -0.2151  0.0458
   96MOL   H38848078   7.542   3.923   1.017  2.5811 -0.6886  1.1912
   96MOL   H38948079   0.001   3.982   0.789  0.2451  0.6682 -0.0536
   96MOL   H39048080   0.000   4.032   0.959 -1.9500  0.7302  1.5448
   96MOL   H39148081   7.719   4.199   0.722  1.6782 -1.0473 -0.6862
   96MOL   H39248082   0.082   4.201   0.833  0.1810 -2.6964 -1.6202
   96MOL   H39348083   7.575   4.280   0.899  0.3511 -0.7949 -1.7396
   96MOL   H39448084   7.704   4.273   1.014 -0.3241 -0.5093 -0.4868
   96MOL   H39548085   0.031   4.464   0.891  0.2758  1.9926 -1.2263
   96MOL   H39648086   7.691   4.460   0.770  0.4646 -1.1058  0.0602
   96MOL   H39748087   7.529   4.528   0.958 -0.4415  1.8132  2.4542
   96MOL   H39848088   7.652   4.514   1.068  1.7954  0.2631  0.2658
   96MOL   H39948089   0.008   4.701   0.944  0.5379 -2.3509  0.9424
   96MOL   H40048090   7.662   4.700   0.822  0.5337 -1.5501  0.7057
   96MOL   H40148091   7.628   4.763   0.988 -0.1159 -1.2280  1.6985
   96MOL   C40248092   7.644   3.781   0.892 -0.5626 -0.3802  0.0071
   96MOL   C40348093   7.600   3.657   0.969  0.0828 -0.5144  0.3232
   96MOL   O40448094   7.611   3.698   1.098 -0.2876 -0.3418  0.3153
   96MOL   C40548095   7.535   3.625   1.193  0.3710 -0.7913 -0.1715
   96MOL   C40648096   7.545   3.704   1.327 -0.5214 -0.1037 -0.1922
   96MOL   C40748097   7.509   3.617   1.449 -0.2354 -0.1778  0.1461
   96MOL   C40848098   7.548   3.690   1.581  0.4798  0.5932  0.6969
   96MOL   C40948099   7.430   3.776   1.633 -0.1510  0.5077 -0.4350
   96MOL   C41048100   7.471   3.851   1.764  0.2625 -0.3938  0.1276
   96MOL   H41148101   7.745   3.804   0.926  0.2773 -0.9818 -1.9578
   96MOL   H41248102   7.648   3.754   0.786 -1.4980  1.0657 -0.4101
   96MOL   H41348103   7.494   3.645   0.948 -0.0080  2.2241 -0.9997
   96MOL   H41448104   7.582   3.529   1.214  0.1367 -0.3692  2.5045
   96MOL   H41548105   7.428   3.627   1.171  0.5441  2.2136 -0.9419
   96MOL   H41648106   7.489   3.797   1.323  0.9747  0.7602 -1.7577
   96MOL   H41748107   7.649   3.735   1.337 -0.8584  0.8041  0.5470
   96MOL   H41848108   7.401   3.606   1.447 -0.2384 -0.1311  0.0066
   96MOL   H41948109   7.565   3.523   1.451 -0.5124 -0.3386  0.4908
   96MOL   H42048110   7.555   3.602   1.646  3.6719  0.8515  0.8064
   96MOL   H42148111   7.648   3.732   1.577  1.4533 -1.6109  0.8327
   96MOL   H42248112   7.402   3.845   1.553 -0.2659 -1.2022 -1.9015
   96MOL   H42348113   7.340   3.716   1.645 -1.9801  2.6207 -3.0267
   96MOL   H42448114   7.392   3.913   1.806  1.0546  0.5252  0.2812
   96MOL   H42548115   7.495   3.774   1.838 -2.0141 -0.5167  0.7721
   96MOL   H42648116   7.562   3.905   1.739 -0.0153 -0.5515 -1.2183
   96MOL   C42748117   7.679   3.527   0.931 -0.2487 -0.6843 -0.1022
   96MOL   C42848118   7.610   3.436   0.826  0.8169 -0.5445 -0.0939
   96MOL   O42948119   7.603   3.506   0.706 -0.1784  0.5599 -0.0913
   96MOL   C43048120   7.523   3.447   0.601  0.1945 -0.1674 -1.4390
   96MOL   C43148121   7.471   3.551   0.498 -0.0533 -0.1815 -0.3258
   96MOL   C43248122   7.392   3.663   0.567  0.1247 -0.9560  0.0029
   96MOL   C43348123   7.332   3.758   0.463 -0.1512  0.1432 -0.2353
   96MOL   C43448124   7.214   3.838   0.509  0.1209 -0.6169 -0.3998
   96MOL   C43548125   7.153   3.922   0.398 -0.2444 -0.0919 -0.3996
   96MOL   H43648126   7.778   3.537   0.885  0.0715  0.5155  0.8162
   96MOL   H43748127   7.704   3.474   1.023 -1.6474 -1.5585 -0.2200
   96MOL   H43848128   7.507   3.421   0.860  0.6343  0.8309  0.0002
   96MOL   H43948129   7.437   3.394   0.644  0.2394  0.8043 -0.1170
   96MOL   H44048130   7.576   3.372   0.543  1.0484 -0.5052 -0.2454
   96MOL   H44148131   7.415   3.491   0.426 -0.0744 -0.6547  0.0824
   96MOL   H44248132   7.546   3.585   0.427 -1.2663  0.7926 -1.1437
   96MOL   H44348133   7.305   3.615   0.611 -1.3957  2.0854  0.4028
   96MOL   H44448134   7.441   3.728   0.638  0.3010 -0.7961 -0.2641
   96MOL   H44548135   7.408   3.824   0.420 -0.3659  0.8131  0.4138
   96MOL   H44648136   7.292   3.712   0.373 -0.0893 -0.0975 -0.1400
   96MOL   H44748137   7.134   3.771   0.540 -0.2964 -0.6600 -1.5377
   96MOL   H44848138   7.243   3.901   0.593 -0.3589 -0.2135 -0.5310
   96MOL   H44948139   7.070   3.979   0.439  0.6335  1.3278 -0.5365
   96MOL   H45048140   7.223   3.997   0.362 -1.4940  0.9709 -0.6571
   96MOL   H45148141   7.107   3.865   0.317  3.1691 -3.0716 -0.3731
   96MOL   C45248142   7.674   3.294   0.820  0.4567  0.7983 -1.0217
   96MOL   C45348143   7.593   3.188   0.907 -0.4969 -0.2632 -0.6874
   96MOL   O45448144   7.473   3.155   0.841  0.2540  0.2197  0.3523
   96MOL   C45548145   7.487   3.055   0.744  0.5419  0.1777  0.7897
   96MOL   C45648146   7.387   3.067   0.625 -0.1725 -0.6396 -0.7317
   96MOL   C45748147   7.240   3.093   0.667  0.4937 -0.1195  0.5967
   96MOL   C45848148   7.145   3.121   0.549 -0.1286 -0.5148 -0.5727
   96MOL   C45948149   7.171   3.020   0.432 -0.3236 -1.0883  0.0270
   96MOL   C46048150   7.102   3.062   0.301  0.1411  0.1247 -0.1136
   96MOL   H46148151   7.700   3.264   0.719 -2.1178 -2.5428 -0.7752
   96MOL   H46248152   7.775   3.304   0.859  0.4548  0.9527 -1.0526
   96MOL   H46348153   7.659   3.101   0.903 -1.2120 -1.0051  2.7385
   96MOL   H46448154   7.487   2.954   0.785  4.1542  1.0220  3.0977
   96MOL   H46548155   7.584   3.075   0.699  0.1259 -2.1296 -1.2866
   96MOL   H46648156   7.385   2.972   0.571 -0.7511 -0.9548 -0.1680
   96MOL   H46748157   7.425   3.145   0.560  0.5115 -1.1625 -0.9655
   96MOL   H46848158   7.215   3.002   0.723 -1.2719 -1.7786 -2.7336
   96MOL   H46948159   7.238   3.174   0.739 -2.2639 -1.1302  1.7406
   96MOL   H47048160   7.047   3.104   0.594 -0.0579 -1.5705 -0.8035
   96MOL   H47148161   7.151   3.226   0.522  1.1077 -0.2927  0.5490
   96MOL   H47248162   7.277   3.020   0.404 -0.0246 -0.2031  1.1059
   96MOL   H47348163   7.140   2.922   0.466  0.3843 -0.9675  1.0353
   96MOL   H47448164   7.169   3.112   0.231  1.1666 -3.5928 -1.8809
   96MOL   H47548165   7.063   2.973   0.251  0.2054 -0.7890  1.4350
   96MOL   H47648166   7.010   3.120   0.314  0.3187 -0.1476  2.4913
   96MOL   C47748167   7.587   3.216   1.058 -0.7712 -0.7857 -0.4113
   96MOL   C47848168   7.496   3.104   1.134 -0.1065  0.4219 -0.4164
   96MOL   O47948169   7.483   3.134   1.273 -0.2589  0.4246 -0.3765
   96MOL   C48048170   7.402   3.047   1.345 -0.0823 -0.6927 -0.6702
   96MOL   C48148171   7.368   3.091   1.488 -0.0151  0.1536  0.1367
   96MOL   C48248172   7.287   2.985   1.567 -0.2021 -0.0808  0.2658
   96MOL   C48348173   7.214   3.026   1.694 -0.4359  0.1811 -0.4962
   96MOL   C48448174   7.089   3.110   1.666  0.3531  0.0440  0.0574
   96MOL   C48548175   7.027   3.175   1.791 -0.9338 -0.1148  0.2817
   96MOL   H48648176   7.692   3.220   1.086 -0.1085 -3.4487 -2.3274
   96MOL   H48748177   7.544   3.313   1.084 -2.1631 -1.0497 -1.6429
   96MOL   H48848178   7.400   3.114   1.085  0.1591  2.4044 -0.5838
   96MOL   H48948179   7.448   2.948   1.352 -3.3502 -2.2709 -0.3923
   96MOL   H49048180   7.312   3.021   1.290 -0.5261 -0.0370 -0.2594
   96MOL   H49148181   7.311   3.183   1.474  0.9668  0.6871 -0.4436
   96MOL   H49248182   7.461   3.123   1.536 -0.7583  3.1364 -0.2984
   96MOL   H49348183   7.209   2.945   1.502  0.8207 -0.2220 -0.9047
   96MOL   H49448184   7.358   2.908   1.597 -0.1300  0.7284  2.2784
   96MOL   H49548185   7.182   2.936   1.746 -1.2676  0.8467  0.1579
   96MOL   H49648186   7.278   3.074   1.768  0.2152 -1.0631 -0.2276
   96MOL   H49748187   7.108   3.189   1.594  1.4881 -0.3449 -0.0802
   96MOL   H49848188   7.017   3.038   1.627 -1.6522  2.9485 -1.7650
   96MOL   H49948189   7.111   3.234   1.826  0.9151 -0.6554 -3.0378
   96MOL   H50048190   6.937   3.236   1.778 -1.0581 -0.4379 -0.4509
   96MOL   H50148191   7.005   3.098   1.865 -1.0848  0.8895  1.2877
   96MOL   H50248192   7.530   3.002   1.116  0.5624  0.3744  1.0502
   97MOL     C148193   7.195   7.200   4.505 -0.4843  0.4237 -0.0729
   97MOL     C248194   7.097   7.245   4.403  0.2708 -0.8242  0.4690
   97MOL     O348195   7.164   7.314   4.298 -0.6435  0.0974 -0.3734
   97MOL     C448196   7.209   7.240   4.191  0.5337 -0.7132  0.5051
   97MOL     C548197   7.322   7.327   4.125 -0.2590  0.0434 -0.7550
   97MOL     C648198   7.269   7.459   4.062 -0.1515  0.6317  0.1848
   97MOL     C748199   7.377   7.549   3.996  0.5395  0.0365  0.4111
   97MOL     C848200   7.328   7.676   3.933  0.6360 -0.6332  0.2029
   97MOL     C948201   7.419   7.756   3.851  0.6762 -0.4708  0.0946
   97MOL    H1048202   7.265   7.129   4.461 -1.3582 -0.6118  0.1829
   97MOL    H1148203   7.256   7.281   4.544 -0.2514 -0.1020  0.6619
   97MOL    H1248204   7.057   7.155   4.356  1.1215 -1.3227  0.6932
   97MOL    H1348205   7.128   7.211   4.124  1.3319 -1.0855 -0.3150
   97MOL    H1448206   7.259   7.148   4.223  0.9256 -0.3254  1.0030
   97MOL    H1548207   7.385   7.286   4.046  0.1430 -1.7428  0.4480
   97MOL    H1648208   7.399   7.351   4.199  0.8408  0.2762 -1.9704
   97MOL    H1748209   7.199   7.426   3.986 -0.5627 -0.0140  0.8367
   97MOL    H1848210   7.213   7.524   4.129  3.6449  3.3146  0.9504
   97MOL    H1948211   7.460   7.576   4.062 -0.0823  1.2143  0.7290
   97MOL    H2048212   7.429   7.495   3.917  1.3006  1.1408  0.1258
   97MOL    H2148213   7.272   7.729   4.010 -0.4909 -0.6414 -0.5946
   97MOL    H2248214   7.252   7.647   3.860 -0.6867 -0.5380  1.5112
   97MOL    H2348215   7.476   0.044   3.916  0.1083 -0.5024  0.6278
   97MOL    H2448216   7.490   7.704   3.786  1.1676  2.7398 -2.0413
   97MOL    H2548217   7.366   0.041   3.781 -0.8165  0.4404  2.0080
   97MOL    H2648218   7.142   7.149   4.585 -1.9040  1.6417 -0.2068
   97MOL    C2748219   6.983   7.330   4.460 -0.0131 -0.3828 -0.5468
   97MOL    C2848220   6.874   7.347   4.355 -0.2483  0.3421  0.1490
   97MOL    O2948221   6.780   7.434   4.410 -0.1152  0.4248  0.1249
   97MOL    C3048222   6.688   7.389   4.502 -0.1941  0.1464 -0.1899
   97MOL    C3148223   6.590   7.493   4.545  0.9040 -0.6150  0.2956
   97MOL    C3248224   6.460   7.446   4.605  0.2107 -0.2215  0.3199
   97MOL    C3348225   6.370   7.561   4.670 -0.0445 -0.5598 -0.1941
   97MOL    C3448226   6.230   7.513   4.715  0.4387  0.7776 -0.2851
   97MOL    C3548227   6.225   7.434   4.843 -0.0901 -0.2578  0.0507
   97MOL    H3648228   6.934   7.296   4.551 -0.7644 -1.3727 -1.3178
   97MOL    H3748229   7.019   7.430   4.487 -3.0838  0.6430 -0.0993
   97MOL    H3848230   6.832   7.253   4.321 -1.6744  1.1277 -0.2869
   97MOL    H3948231   6.737   7.353   4.593 -3.4640 -0.0405  1.5552
   97MOL    H4048232   6.631   7.313   4.449 -0.2924  0.7233 -0.9218
   97MOL    H4148233   6.561   7.550   4.457  0.0693  0.6986  1.4055
   97MOL    H4248234   6.640   7.553   4.620  0.4064 -0.5952  0.6131
   97MOL    H4348235   6.401   7.401   4.525 -1.3041  0.8804  0.7751
   97MOL    H4448236   6.477   7.374   4.685 -0.9281  1.3080  1.9733
   97MOL    H4548237   6.424   7.616   4.748  1.7687 -0.8419 -1.2115
   97MOL    H4648238   6.348   7.648   4.607 -2.5480 -0.0672  1.2879
   97MOL    H4748239   6.165   7.598   4.737 -0.5632 -0.1080  0.2549
   97MOL    H4848240   6.181   7.453   4.638  0.1518 -0.0483  0.5273
   97MOL    H4948241   6.252   7.330   4.828  1.4574  0.0102  0.9065
   97MOL    H5048242   6.285   7.467   4.927  0.9401  0.6368 -1.0166
   97MOL    H5148243   6.123   7.431   4.882 -0.1512 -0.3608 -0.1132
   97MOL    C5248244   6.907   7.418   4.215 -0.1681  0.1518 -0.0084
   97MOL    C5348245   6.780   7.450   4.122 -0.3146  0.3277  0.1227
   97MOL    O5448246   6.820   7.529   4.008  0.3553  1.1016  0.0975
   97MOL    C5548247   6.862   7.660   4.034 -0.3524 -0.2288 -0.0953
   97MOL    C5648248   6.901   7.753   3.916  0.4569  0.0732 -0.6020
   97MOL    C5748249   6.787   7.767   3.810 -0.2554 -0.4130  0.2911
   97MOL    C5848250   6.822   0.065   3.683 -0.6436  0.0212 -0.1217
   97MOL    C5948251   6.728   0.057   3.566  0.3795  0.3949 -0.0854
   97MOL    C6048252   6.772   0.142   3.446 -0.7250 -0.6505  0.2464
   97MOL    H6148253   6.965   7.352   4.151 -0.6059 -0.2747  0.0258
   97MOL    H6248254   6.970   7.503   4.240 -0.3695  0.2539  0.1529
   97MOL    H6348255   6.697   7.499   4.173 -0.0121  0.4014  0.5509
   97MOL    H6448256   6.957   7.645   4.086 -0.5349 -2.7908 -0.4332
   97MOL    H6548257   6.794   7.710   4.104 -1.2473 -0.8372 -0.5165
   97MOL    H6648258   7.001   7.731   3.879  2.0314  1.5797  2.5538
   97MOL    H6748259   6.929   0.070   3.961 -0.6915  1.0235 -1.8565
   97MOL    H6848260   6.774   7.667   3.770  1.8422 -0.7049  0.2957
   97MOL    H6948261   6.698   0.031   3.856 -0.0083 -0.9157  1.2361
   97MOL    H7048262   6.835   0.168   3.715  0.4699  0.6122 -2.3413
   97MOL    H7148263   6.922   0.033   3.654 -0.6896 -1.0168  0.8099
   97MOL    H7248264   6.727   7.734   3.527  4.0996 -0.5861  2.0719
   97MOL    H7348265   6.625   0.074   3.596  0.4626  2.3724 -0.8496
   97MOL    H7448266   6.703   0.156   3.363 -0.0164 -0.7826 -0.3672
   97MOL    H7548267   6.805   0.237   3.489  0.0721  0.1045 -1.9743
   97MOL    H7648268   6.854   0.096   3.390 -0.0331  1.7733 -0.8214
   97MOL    C7748269   6.717   7.321   4.072  0.0322 -0.3281  0.1551
   97MOL    C7848270   6.594   7.344   3.980  0.9324 -0.0062  0.6002
   97MOL    O7948271   6.484   7.396   4.056  0.0361  0.2294  0.1799
   97MOL    C8048272   6.468   7.539   4.051 -0.0841 -0.0059 -0.0710
   97MOL    C8148273   6.395   7.577   4.181  0.0427 -0.2155 -0.1436
   97MOL    C8248274   6.251   7.523   4.195 -0.1684 -0.1412 -0.1545
   97MOL    C8348275   6.171   7.592   4.309 -0.4214 -0.7042  0.0490
   97MOL    C8448276   6.104   7.727   4.279  0.4791  0.1264  0.2288
   97MOL    C8548277   6.187   0.080   4.272 -0.7049 -0.3634  0.9596
   97MOL    H8648278   6.685   7.260   4.155 -1.6669  1.7307  1.0711
   97MOL    H8748279   6.793   7.262   4.021 -1.7303 -1.9546 -0.6459
   97MOL    H8848280   6.631   7.411   3.903 -0.6111 -1.6818 -1.6566
   97MOL    H8948281   6.420   7.557   3.955 -1.5845 -2.8062  0.1129
   97MOL    H9048282   6.556   7.604   4.052 -0.5961  0.6857  0.4714
   97MOL    H9148283   6.408   7.685   4.180  3.3692 -0.5636  0.3327
   97MOL    H9248284   6.458   7.538   4.261  0.6825 -1.4871 -1.2323
   97MOL    H9348285   6.190   7.524   4.105 -0.5129 -0.1710  0.0778
   97MOL    H9448286   6.265   7.417   4.217 -0.3480 -0.3011 -0.7799
   97MOL    H9548287   6.093   7.517   4.325 -0.7703 -0.9996 -2.8140
   97MOL    H9648288   6.228   7.590   4.402  1.1534 -3.2730 -0.8832
   97MOL    H9748289   6.033   7.714   4.197  0.8033  2.1987 -0.4162
   97MOL    H9848290   6.027   7.737   4.355 -1.2634 -0.9400 -1.3572
   97MOL    H9948291   6.254   0.076   4.185  2.7001 -0.1162  3.4768
   97MOL   H10048292   6.123   0.165   4.249 -2.2288 -2.1303 -1.6044
   97MOL   H10148293   6.244   0.107   4.361  1.2554  1.3026 -0.7468
   97MOL   C10248294   6.551   7.215   3.914 -0.1189  0.5290  0.0246
   97MOL   C10348295   6.428   7.218   3.812 -0.5137  0.1035  0.1728
   97MOL   O10448296   6.451   7.289   3.693  0.4564 -0.1585  0.5054
   97MOL   C10548297   6.449   7.430   3.691  0.1872  0.4705 -0.0699
   97MOL   C10648298   6.421   7.473   3.548 -0.7417 -0.0101  0.3443
   97MOL   C10748299   6.536   7.464   3.454 -0.2667  0.3888 -0.9792
   97MOL   C10848300   6.491   7.519   3.312  0.5025 -0.4045 -0.2588
   97MOL   C10948301   6.476   7.668   3.293  0.5291  0.2304  0.3276
   97MOL   C11048302   6.410   7.702   3.159  0.1816  0.2802 -0.0945
   97MOL   H11148303   6.638   7.171   3.865  0.6839  0.3506  1.5920
   97MOL   H11248304   6.521   7.146   3.992  1.2922  0.2830  0.3674
   97MOL   H11348305   6.360   7.274   3.876 -0.7113 -0.0972  0.1362
   97MOL   H11448306   6.547   7.465   3.724  0.0467 -0.3026  1.2118
   97MOL   H11548307   6.371   7.460   3.761  0.2365 -2.2187  1.1892
   97MOL   H11648308   6.394   7.578   3.560  1.6606  0.4045  2.5689
   97MOL   H11748309   6.348   7.409   3.497 -0.8992  1.0209 -0.7411
   97MOL   H11848310   6.625   7.512   3.494 -0.7526 -0.4597  1.1851
   97MOL   H11948311   6.555   7.357   3.445  0.7292  0.3382  1.3711
   97MOL   H12048312   6.557   7.485   3.231 -0.4785  2.2837 -2.2629
   97MOL   H12148313   6.396   7.473   3.287 -0.1045 -1.7213  4.0891
   97MOL   H12248314   6.423   7.708   3.380 -0.9424  0.9307 -0.8668
   97MOL   H12348315   6.573   7.719   3.297 -0.4904  2.1348  1.2916
   97MOL   H12448316   6.473   7.674   3.074  0.5084  1.4338 -0.2333
   97MOL   H12548317   6.305   7.673   3.160  0.3738 -0.3813  1.0318
   97MOL   H12648318   6.406   0.032   3.152 -0.4233  0.1485 -2.1779
   97MOL   C12748319   6.379   7.078   3.772  0.2200 -0.2618  0.1578
   97MOL   C12848320   6.243   7.082   3.700 -0.4482  0.9298  0.6546
   97MOL   O12948321   6.143   7.106   3.797 -0.0128 -0.0591 -0.7373
   97MOL   C13048322   6.060   7.219   3.756  0.5638 -0.3299  0.1806
   97MOL   C13148323   5.957   7.243   3.871  0.4528 -0.6392  0.3764
   97MOL   C13248324   6.015   7.287   4.006  0.5575 -0.7872 -1.0498
   97MOL   C13348325   5.910   7.330   4.110 -0.1697  0.2427 -0.4285
   97MOL   C13448326   5.860   7.468   4.085 -0.2774 -0.3861 -0.2858
   97MOL   C13548327   5.774   7.532   4.196  0.1226  0.1627  0.3822
   97MOL   H13648328   6.450   7.027   3.707  1.1806 -0.5285  1.3952
   97MOL   H13748329   6.366   7.014   3.859  0.4252  0.8742  1.0348
   97MOL   H13848330   6.242   7.160   3.624 -3.2930 -0.2616 -0.5895
   97MOL   H13948331   6.012   7.196   3.662  0.8599 -2.1304  0.4535
   97MOL   H14048332   6.117   7.312   3.750 -1.3714  0.8932  0.2728
   97MOL   H14148333   5.910   7.145   3.881  0.7697 -1.0388 -1.8368
   97MOL   H14248334   5.885   7.313   3.828  1.6285  0.9213  0.8800
   97MOL   H14348335   6.065   7.199   4.047 -0.3325 -1.3424 -1.1593
   97MOL   H14448336   6.097   7.358   3.995 -0.0929  0.2228  0.4607
   97MOL   H14548337   5.831   7.255   4.108  0.6186 -0.6464  1.0842
   97MOL   H14648338   5.965   7.332   4.204 -0.0719  1.1200 -0.5032
   97MOL   H14748339   5.945   7.529   4.056 -0.7491  0.5721  0.3370
   97MOL   H14848340   5.793   7.464   3.999 -1.3420 -1.7852  0.5751
   97MOL   H14948341   5.684   7.472   4.212  0.7098 -0.7134  0.4089
   97MOL   H15048342   5.829   7.532   4.290 -0.5570 -0.7173  0.7947
   97MOL   H15148343   5.736   7.631   4.169 -0.6373 -0.1681  0.1972
   97MOL   C15248344   6.211   6.959   3.617  0.3698  0.3958 -0.0413
   97MOL   C15348345   6.074   6.957   3.536  0.5057  0.1106 -1.5097
   97MOL   O15448346   6.081   7.069   3.444 -0.4105  0.5824 -0.6081
   97MOL   C15548347   5.967   7.101   3.364  0.6755 -0.2478  0.3761
   97MOL   C15648348   5.993   7.245   3.324  0.3849  0.0434 -0.0399
   97MOL   C15748349   6.021   7.344   3.434  0.5433 -0.0987 -0.6054
   97MOL   C15848350   6.041   7.482   3.389 -0.2145 -0.1145  0.4981
   97MOL   C15948351   6.057   7.590   3.499 -0.4760 -0.2647  0.5429
   97MOL   C16048352   6.058   7.727   3.438  0.3738  0.4539 -0.7041
   97MOL   H16148353   6.293   6.936   3.548  0.2281 -0.4624  0.0698
   97MOL   H16248354   6.206   6.880   3.692 -1.6559 -0.0056 -0.5436
   97MOL   H16348355   5.986   6.977   3.597  1.3467 -0.3237 -0.1379
   97MOL   H16448356   5.877   7.102   3.425 -0.5999 -1.2615 -1.4221
   97MOL   H16548357   5.952   7.032   3.281  0.1191  1.6790 -1.1721
   97MOL   H16648358   5.912   7.274   3.257  0.4386 -0.6611 -0.4107
   97MOL   H16748359   6.082   7.247   3.262 -0.7654  0.3961 -1.7026
   97MOL   H16848360   5.933   7.340   3.499  2.1632 -3.2489  1.5595
   97MOL   H16948361   6.108   7.321   3.495  0.0948  0.6563  0.3352
   97MOL   H17048362   6.122   7.491   3.315  1.3333  1.3223  2.3062
   97MOL   H17148363   5.962   7.518   3.323 -0.3996  0.7692  1.1940
   97MOL   H17248364   5.977   7.580   3.572 -0.1178 -2.1261  0.7110
   97MOL   H17348365   6.150   7.579   3.555 -0.1229  0.3069  0.0889
   97MOL   H17448366   6.159   7.748   3.401  0.7642 -0.1590  0.0256
   97MOL   H17548367   5.992   7.730   3.351 -0.9365  0.9250  0.3113
   97MOL   H17648368   6.035   0.034   3.502 -0.4243 -1.0895  1.1150
   97MOL   C17748369   6.045   6.827   3.461  0.7940  0.5923  0.8486
   97MOL   C17848370   6.149   6.795   3.355 -0.1053  0.1898 -0.0372
   97MOL   O17948371   6.266   6.736   3.410 -0.4570 -0.3477 -0.3694
   97MOL   C18048372   6.379   6.728   3.324  0.1605 -0.0736  0.5370
   97MOL   C18148373   6.507   6.699   3.417  1.0298 -0.5496  0.3341
   97MOL   C18248374   6.531   6.550   3.440  0.0094 -0.2846 -0.0414
   97MOL   C18348375   6.656   6.507   3.515  0.0990 -0.1363 -0.5867
   97MOL   C18448376   6.787   6.541   3.444  0.7072  0.4275  0.2579
   97MOL   C18548377   6.797   6.459   3.311 -0.2833 -0.4853  0.0755
   97MOL   H18648378   6.033   6.746   3.533  0.6097  0.4765  0.6902
   97MOL   H18748379   5.948   6.831   3.410  0.3901  0.0241  1.5555
   97MOL   H18848380   6.188   6.888   3.314 -0.3218 -0.7460 -2.3863
   97MOL   H18948381   6.395   6.827   3.281 -1.5890  0.3761  0.8910
   97MOL   H19048382   6.373   6.661   3.239  2.2540  0.2374  0.1272
   97MOL   H19148383   6.493   6.737   3.518 -0.9275 -0.9718  0.2409
   97MOL   H19248384   6.591   6.749   3.370  0.4427 -1.4571 -1.7624
   97MOL   H19348385   6.453   6.508   3.503 -0.8933 -0.5515 -1.3078
   97MOL   H19448386   6.524   6.494   3.346  2.1139  1.8956 -1.5828
   97MOL   H19548387   6.650   6.559   3.611 -2.1761 -0.1752 -0.6957
   97MOL   H19648388   6.651   6.400   3.534  1.4259  0.0027  0.6811
   97MOL   H19748389   6.811   6.645   3.423  0.8170  0.6067  1.2832
   97MOL   H19848390   6.866   6.505   3.510 -0.1296 -0.2236  0.9074
   97MOL   H19948391   6.901   6.459   3.275 -0.5986  2.3951 -0.9833
   97MOL   H20048392   6.773   6.355   3.333  1.0739 -0.3224  2.5425
   97MOL   H20148393   6.747   6.513   3.230 -0.5035  2.2354  1.9574
   97MOL   C20248394   6.099   6.696   3.237  0.3671 -0.0097  0.0109
   97MOL   C20348395   6.057   6.765   3.101  1.1031  0.0404 -0.5467
   97MOL   O20448396   6.039   6.650   3.016  0.0329 -0.1006 -0.3933
   97MOL   C20548397   5.921   6.635   2.934 -0.1515  0.2779 -0.0717
   97MOL   C20648398   5.945   6.514   2.835 -0.1550 -0.3601 -0.6187
   97MOL   C20748399   6.044   6.549   2.723 -0.6985  0.0932  0.0199
   97MOL   C20848400   6.037   6.454   2.603  0.4921 -0.0037  0.0439
   97MOL   C20948401   6.082   6.523   2.473 -0.5293 -0.6062 -0.3819
   97MOL   C21048402   6.055   6.436   2.347 -0.3891 -0.1207 -0.1141
   97MOL   H21148403   6.179   6.625   3.215  1.1573  0.8151  0.1835
   97MOL   H21248404   6.006   6.645   3.261 -0.5841  1.4152 -0.5864
   97MOL   H21348405   5.960   6.813   3.114  1.6710  0.9354  0.3515
   97MOL   H21448406   5.880   6.718   2.878  0.0428  1.0681  0.9476
   97MOL   H21548407   5.839   6.613   3.003 -1.4519  0.0773 -1.6617
   97MOL   H21648408   5.853   6.490   2.782 -0.5091  1.1136 -0.7089
   97MOL   H21748409   5.978   6.424   2.886  2.5780  1.0322  0.1724
   97MOL   H21848410   6.033   6.654   2.695 -2.6825 -0.9020 -3.2172
   97MOL   H21948411   6.148   6.552   2.756 -0.6960  1.6706 -0.0812
   97MOL   H22048412   6.094   6.364   2.623  1.0736  0.7657  1.9377
   97MOL   H22148413   5.935   6.417   2.594  0.2198  0.3805  1.4567
   97MOL   H22248414   6.032   6.619   2.455  3.2301  1.5863  0.4304
   97MOL   H22348415   6.188   6.549   2.481 -1.1821  1.4407  2.4353
   97MOL   H22448416   6.069   6.502   2.261 -0.3791  2.3662  1.7522
   97MOL   H22548417   6.118   6.347   2.353 -0.4412 -0.1906 -0.5981
   97MOL   H22648418   5.951   6.402   2.347 -0.0981 -1.0388 -0.8740
   97MOL   C22748419   6.172   6.844   3.038 -0.3957 -0.3932 -0.0959
   97MOL   C22848420   6.136   6.912   2.909  0.0044  0.0186  0.2966
   97MOL   O22948421   6.052   7.018   2.947 -0.1595  0.3924 -0.4431
   97MOL   C23048422   5.959   7.061   2.848 -0.2173 -0.1584 -0.3190
   97MOL   C23148423   5.983   7.211   2.816 -0.0081  0.3074 -0.0133
   97MOL   C23248424   5.970   7.302   2.934  0.2881  0.3037 -0.1595
   97MOL   C23348425   5.980   7.451   2.894 -0.3020  0.4957  0.2144
   97MOL   C23448426   5.958   7.545   3.020 -0.0697 -0.4805 -0.2180
   97MOL   C23548427   5.999   7.690   2.996  0.2739 -0.5871 -0.2786
   97MOL   H23648428   6.211   6.926   3.098  1.3677 -0.2010 -1.4478
   97MOL   H23748429   6.261   6.781   3.022 -0.8387 -1.0588  0.0348
   97MOL   H23848430   6.091   6.837   2.844  2.8262 -2.1785  0.7889
   97MOL   H23948431   5.860   7.055   2.893  0.4513  3.9611  1.9967
   97MOL   H24048432   5.969   7.002   2.757 -0.8338  0.8378 -1.0490
   97MOL   H24148433   5.915   7.230   2.733  1.7476 -0.2647 -1.6300
   97MOL   H24248434   6.077   7.230   2.764  0.9287  0.3611  1.6748
   97MOL   H24348435   5.880   7.284   2.993 -0.1602 -0.2824 -1.0097
   97MOL   H24448436   6.050   7.269   3.001 -1.9339  1.0195  2.9791
   97MOL   H24548437   6.083   7.463   2.862 -0.4356  0.0384 -0.3935
   97MOL   H24648438   5.921   7.473   2.805  0.7212  0.2510 -0.5255
   97MOL   H24748439   5.854   7.545   3.054  0.0558  0.1736  0.1558
   97MOL   H24848440   6.012   7.502   3.104  2.3475  1.1371 -0.9227
   97MOL   H24948441   5.931   7.732   2.921  0.9411 -0.6198 -0.9137
   97MOL   H25048442   5.982   7.745   3.088 -0.8556  0.8094 -1.2957
   97MOL   H25148443   6.100   7.709   2.961  1.5999 -2.7122  2.3156
   97MOL   C25248444   6.255   6.966   2.826 -0.2907 -0.0740 -1.0455
   97MOL   C25348445   6.332   6.858   2.748  0.4357 -0.3777 -0.1793
   97MOL   O25448446   6.414   6.788   2.839 -0.6832 -0.7512  0.0060
   97MOL   C25548447   6.392   6.650   2.842 -0.5946  0.1527 -0.1506
   97MOL   C25648448   6.520   6.593   2.912 -0.5142 -0.1040 -0.2237
   97MOL   C25748449   6.530   6.437   2.896  0.0298 -0.4711 -0.1657
   97MOL   C25848450   6.609   6.362   3.011 -0.0756  0.0365  0.3505
   97MOL   C25948451   6.571   6.212   3.033  0.0154  0.1543  0.1370
   97MOL   C26048452   6.665   6.161   3.141  0.1975 -0.2219 -0.3553
   97MOL   H26148453   6.224   7.028   2.742  1.6932 -0.4382 -2.0727
   97MOL   H26248454   6.327   7.012   2.894 -0.2269  0.5589 -1.5407
   97MOL   H26348455   6.261   6.794   2.695  0.5783 -1.2307  0.6568
   97MOL   H26448456   6.369   6.613   2.742 -0.9343  1.8157 -0.7017
   97MOL   H26548457   6.297   6.633   2.894 -0.0970 -1.5912  0.2294
   97MOL   H26648458   6.538   6.619   3.017 -0.7582  0.1048 -0.2338
   97MOL   H26748459   6.614   6.628   2.869  0.6557 -1.0262  1.5081
   97MOL   H26848460   6.433   6.389   2.881 -1.1501  1.9085 -0.4467
   97MOL   H26948461   6.588   6.426   2.804 -1.0381  3.1177 -1.3572
   97MOL   H27048462   6.715   6.358   2.987 -0.1690 -0.5969  0.0295
   97MOL   H27148463   6.598   6.407   3.109  0.4852  0.3415  0.2737
   97MOL   H27248464   6.468   6.206   3.068 -0.2220 -1.9173 -0.7980
   97MOL   H27348465   6.586   6.145   2.948 -0.2552 -1.4057  1.2904
   97MOL   H27448466   6.664   6.052   3.152  0.7274 -0.3199 -1.1828
   97MOL   H27548467   6.767   6.180   3.106 -0.5187  1.9790 -1.2866
   97MOL   H27648468   6.659   6.206   3.240 -0.7379 -1.4875  0.1700
   97MOL   C27748469   6.420   6.932   2.641 -0.4705 -0.3559  0.3547
   97MOL   C27848470   6.351   6.984   2.515  0.9248 -0.0795  0.1916
   97MOL   O27948471   6.422   7.084   2.439  0.1368 -0.1447 -0.2225
   97MOL   C28048472   6.429   7.215   2.492 -0.1727  0.1652 -0.9866
   97MOL   C28148473   6.470   7.313   2.385  0.0976 -0.0653  0.1728
   97MOL   C28248474   6.373   7.312   2.266  0.0413 -0.1713  0.1120
   97MOL   C28348475   6.425   7.403   2.151  0.6348 -0.1848 -0.2796
   97MOL   C28448476   6.324   7.429   2.040 -0.3424  0.5812 -0.4366
   97MOL   C28548477   6.218   7.534   2.073  0.0074 -0.7467 -0.1924
   97MOL   H28648478   6.479   7.014   2.682 -0.8752  0.5558 -0.8590
   97MOL   H28748479   6.504   6.867   2.617  0.3872  0.4249  1.2133
   97MOL   H28848480   6.257   7.030   2.546  0.9638  1.2553 -1.5878
   97MOL   H28948481   6.494   7.206   2.579 -0.4033  0.0790 -0.8220
   97MOL   H29048482   6.332   7.242   2.535 -0.3458 -0.7784 -0.7797
   97MOL   H29148483   6.570   7.285   2.352 -0.0501  0.0752 -0.3927
   97MOL   H29248484   6.484   7.416   2.417  2.9839 -0.6424  0.9072
   97MOL   H29348485   6.354   7.211   2.229  3.0574  0.0649 -2.2247
   97MOL   H29448486   6.282   7.342   2.318 -0.1533 -1.0430  0.2827
   97MOL   H29548487   6.452   7.503   2.185  0.0419  0.5461 -1.9074
   97MOL   H29648488   6.511   7.344   2.118  1.0756 -0.0936  0.6718
   97MOL   H29748489   6.374   7.465   1.950  0.0803  0.8986 -0.0792
   97MOL   H29848490   6.283   7.336   2.001 -0.5805 -0.0079  1.1823
   97MOL   H29948491   6.152   7.545   1.987  0.1340 -1.1399 -0.3407
   97MOL   H30048492   6.153   7.505   2.155 -3.0431 -1.8147 -2.8628
   97MOL   H30148493   6.263   7.632   2.093  2.3098 -2.2395  2.1799
   97MOL   C30248494   6.326   6.874   2.408 -0.9087  0.0779  0.3734
   97MOL   C30348495   6.192   6.886   2.342  0.1968  0.3540  0.3158
   97MOL   O30448496   6.101   6.891   2.445  0.5779 -0.2988 -0.4750
   97MOL   C30548497   5.985   6.974   2.418 -0.4253  0.3649 -0.6757
   97MOL   C30648498   6.011   7.126   2.448  0.1672  0.0824 -0.0327
   97MOL   C30748499   5.907   7.225   2.403 -0.2489 -0.5452 -0.5921
   97MOL   C30848500   5.949   7.370   2.442  0.7975 -0.1231  0.1545
   97MOL   C30948501   5.833   7.467   2.410 -0.3342  0.4262 -0.6091
   97MOL   C31048502   5.852   7.603   2.473 -0.0681 -0.4448 -0.1668
   97MOL   H31148503   6.403   6.873   2.331  1.6070  1.6420  2.7571
   97MOL   H31248504   6.328   6.777   2.457 -3.0937  1.0505  2.4700
   97MOL   H31348505   6.196   6.983   2.292  2.7235  0.4583  0.6685
   97MOL   H31448506   5.901   6.933   2.476  0.3235  1.3066  1.1073
   97MOL   H31548507   5.952   6.952   2.316 -2.1579  0.4216 -0.1488
   97MOL   H31648508   6.103   7.156   2.398  0.4745  0.8282  0.9753
   97MOL   H31748509   6.033   7.136   2.554 -2.6547  0.5121  0.5533
   97MOL   H31848510   5.897   7.219   2.295  1.2744 -3.6840 -0.6102
   97MOL   H31948511   5.811   7.188   2.438 -0.6768  1.2342  0.1605
   97MOL   H32048512   5.968   7.381   2.549 -2.9859 -0.4005  0.9066
   97MOL   H32148513   6.043   7.407   2.400  0.7968 -0.5678 -0.2348
   97MOL   H32248514   5.809   7.472   2.304 -1.9710 -0.5259 -0.2919
   97MOL   H32348515   5.745   7.427   2.461  0.9838 -0.6896  0.8343
   97MOL   H32448516   5.888   7.590   2.575  2.2316 -0.1929 -0.9230
   97MOL   H32548517   5.915   7.668   2.412 -1.2186  1.4344  0.6042
   97MOL   H32648518   5.762   7.658   2.498 -1.0786 -0.6508 -3.1894
   97MOL   C32748519   6.152   6.769   2.246  0.2093  0.3852  0.4559
   97MOL   C32848520   6.210   6.782   2.103 -0.0125 -0.0734 -0.1517
   97MOL   O32948521   6.145   6.688   2.025 -0.2635  0.2607 -0.0146
   97MOL   C33048522   6.232   6.574   1.990  0.5389 -0.7841 -0.7613
   97MOL   C33148523   6.163   6.480   1.886  0.2432 -0.2208  0.0927
   97MOL   C33248524   6.062   6.380   1.955 -0.8180  0.3866 -0.5686
   97MOL   C33348525   6.016   6.286   1.843  0.2513  0.0163  0.0349
   97MOL   C33448526   6.120   6.172   1.818  0.1660 -0.0382 -0.4009
   97MOL   C33548527   6.086   6.093   1.698  0.1124 -0.0258 -0.7823
   97MOL   H33648528   6.044   6.769   2.249  0.1982  2.2359  0.6963
   97MOL   H33748529   6.186   6.674   2.287 -0.0218  0.0030 -0.2477
   97MOL   H33848530   6.318   6.770   2.110  0.2784  1.5799 -1.4712
   97MOL   H33948531   6.266   6.531   2.084  2.5486  0.1726 -1.0171
   97MOL   H34048532   6.325   6.613   1.947  0.9836 -0.2488  0.6695
   97MOL   H34148533   6.239   6.425   1.831 -0.1229 -1.5747  0.9164
   97MOL   H34248534   6.103   6.538   1.816 -0.4069 -1.2633 -0.2134
   97MOL   H34348535   6.085   6.337   2.052  0.8963  0.6067 -0.8660
   97MOL   H34448536   5.973   6.442   1.972 -0.1832  1.0393  0.3585
   97MOL   H34548537   5.924   6.233   1.868  0.4198  0.0922  0.8211
   97MOL   H34648538   5.985   6.334   1.750  1.3316 -0.2506 -0.4793
   97MOL   H34748539   6.220   6.216   1.816  0.3011 -0.1354  2.2989
   97MOL   H34848540   6.132   6.097   1.897 -0.1784  0.2572 -0.0644
   97MOL   H34948541   6.007   6.019   1.713  2.7637 -2.8852 -0.5813
   97MOL   H35048542   6.070   6.158   1.611 -2.0677  0.9882  0.3322
   97MOL   H35148543   6.175   6.036   1.674 -0.1821 -0.5892 -0.5347
   97MOL   C35248544   6.174   6.914   2.029  0.3126 -0.2182  0.6020
   97MOL   C35348545   6.260   6.932   1.902  0.4012 -0.3546 -0.5465
   97MOL   O35448546   6.398   6.896   1.923 -0.6029  0.6102  0.2016
   97MOL   C35548547   6.470   6.970   2.025  0.1673 -0.5082  0.0795
   97MOL   C35648548   6.616   6.898   2.016 -0.0729 -0.3297 -0.5826
   97MOL   C35748549   6.679   6.904   1.878  0.0189  0.0347 -0.1869
   97MOL   C35848550   6.790   6.807   1.861  0.4692  0.3185 -0.5097
   97MOL   C35948551   6.833   6.773   1.717 -0.2681  0.0770 -0.2859
   97MOL   C36048552   6.912   6.891   1.650  0.5016 -0.6545  0.6036
   97MOL   H36148553   6.068   6.924   2.001  0.7421  1.0946 -0.6160
   97MOL   H36248554   6.194   6.993   2.101  0.0416  0.5051 -0.1016
   97MOL   H36348555   6.213   6.862   1.834  0.7305  0.4265 -1.5815
   97MOL   H36448556   6.425   6.954   2.123 -1.7116  1.5211 -0.4062
   97MOL   H36548557   6.473   7.078   2.008  3.8963 -0.9071 -2.1781
   97MOL   H36648558   6.605   6.796   2.051  2.7174 -0.2905  0.4872
   97MOL   H36748559   6.681   6.945   2.089 -1.1142  3.5363 -2.0133
   97MOL   H36848560   6.599   6.874   1.811  0.7993 -0.5098 -0.9003
   97MOL   H36948561   6.718   7.003   1.853  4.8479 -2.0858 -1.6765
   97MOL   H37048562   6.876   6.850   1.913  0.3961 -0.6420  0.4242
   97MOL   H37148563   6.775   6.714   1.915 -0.3001  1.1339  0.7240
   97MOL   H37248564   6.890   6.680   1.708 -1.5779 -0.9905  2.0139
   97MOL   H37348565   6.743   6.751   1.660  1.1787 -0.9850 -2.2007
   97MOL   H37448566   6.932   6.860   1.547 -0.7637 -0.3222  0.2547
   97MOL   H37548567   6.864   6.988   1.649  0.4993 -0.6658 -0.2629
   97MOL   H37648568   7.008   6.912   1.698  0.9402  1.8586 -1.2921
   97MOL   C37748569   6.244   7.062   1.824  0.3994  0.2101  0.1473
   97MOL   C37848570   6.100   7.103   1.790  0.6365 -0.2565  0.6908
   97MOL   O37948571   6.055   7.027   1.679 -0.4448  0.4188  0.2100
   97MOL   C38048572   5.916   6.990   1.693 -0.4129  1.0321  0.0224
   97MOL   C38148573   5.884   6.888   1.592  0.4157  0.1422  0.1692
   97MOL   C38248574   5.951   6.758   1.630  0.2578  0.3720 -0.5131
   97MOL   C38348575   5.887   6.629   1.569 -0.4547  0.3073 -0.0108
   97MOL   C38448576   5.917   6.604   1.419  0.1232  0.1728  0.2008
   97MOL   C38548577   5.871   6.458   1.377 -1.0711 -0.3289 -0.3727
   97MOL   H38648578   6.292   7.143   1.879 -0.5614  0.3344  0.8122
   97MOL   H38748579   6.303   7.062   1.732  0.6471 -1.1400  0.2964
   97MOL   H38848580   6.049   7.090   1.885 -2.2396  0.2364 -0.7545
   97MOL   H38948581   5.857   7.075   1.658 -1.0102  0.6352  0.0564
   97MOL   H39048582   5.880   6.947   1.786  0.7489 -1.7841 -0.7937
   97MOL   H39148583   5.913   6.931   1.496  1.6206  0.5144  0.6895
   97MOL   H39248584   5.777   6.872   1.584  0.5319 -1.2664  1.2595
   97MOL   H39348585   6.058   6.756   1.610  0.6044  0.2060  1.3025
   97MOL   H39448586   5.954   6.740   1.737  2.5390  1.5591 -0.3477
   97MOL   H39548587   5.910   6.537   1.623  0.7646  0.8388  0.4026
   97MOL   H39648588   5.780   6.649   1.569 -0.7377 -1.1534  0.5053
   97MOL   H39748589   5.859   6.681   1.368  0.2949  0.2059  0.0562
   97MOL   H39848590   6.019   6.627   1.388  0.6387 -0.5295  1.3339
   97MOL   H39948591   5.920   6.380   1.435  0.4255  0.5006 -0.5045
   97MOL   H40048592   5.765   6.432   1.378 -1.1089 -0.1793 -0.7613
   97MOL   H40148593   5.895   6.438   1.273 -2.2642 -1.4954 -0.4299
   97MOL   C40248594   6.077   7.251   1.764 -0.5079 -0.7121 -0.5728
   97MOL   C40348595   6.147   7.311   1.641 -0.0560  0.1134 -0.7077
   97MOL   O40448596   6.287   7.314   1.673 -0.0383 -0.0935  0.5272
   97MOL   C40548597   6.373   7.334   1.563  0.3698  0.0832 -0.0642
   97MOL   C40648598   6.515   7.288   1.581 -0.5086  0.3319  0.1623
   97MOL   C40748599   6.600   7.299   1.453 -0.9141 -1.1294 -0.0113
   97MOL   C40848600   6.750   7.269   1.466 -0.3737  0.2712 -0.3994
   97MOL   C40948601   6.835   7.310   1.346 -0.3230 -0.2198  0.4839
   97MOL   C41048602   6.980   7.276   1.356  0.4491  0.7511 -0.6794
   97MOL   H41148603   6.110   7.299   1.856 -0.2501  0.3776 -1.2291
   97MOL   H41248604   5.970   7.269   1.768 -0.0876  2.1475 -1.3341
   97MOL   H41348605   6.122   7.251   1.554 -1.2119  1.7488 -1.5523
   97MOL   H41448606   6.369   7.442   1.552 -0.2648  0.1726  0.9988
   97MOL   H41548607   6.333   7.286   1.474  0.0777  1.7137 -0.8211
   97MOL   H41648608   6.521   7.186   1.621  1.0002  0.3214 -0.0651
   97MOL   H41748609   6.566   7.350   1.654  0.1774  0.6840 -0.6141
   97MOL   H41848610   6.564   7.238   1.370  0.3330  0.0176 -1.4408
   97MOL   H41948611   6.594   7.403   1.419 -1.2483 -1.0783  0.2099
   97MOL   H42048612   6.790   7.321   1.554 -1.6648 -3.3286  2.4427
   97MOL   H42148613   6.759   7.166   1.502 -3.9555  0.4347  1.1338
   97MOL   H42248614   6.800   7.257   1.257 -1.2145 -2.0698  1.9102
   97MOL   H42348615   6.828   7.418   1.331 -0.8278 -0.0240  1.9665
   97MOL   H42448616   7.014   7.336   1.441 -1.4013  0.4910  0.2525
   97MOL   H42548617   6.995   7.171   1.378 -0.2050  1.1694  1.8588
   97MOL   H42648618   7.041   7.305   1.270  0.7504  0.9052 -0.4159
   97MOL   C42748619   6.090   7.451   1.619 -0.0210  0.2627 -0.1951
   97MOL   C42848620   6.088   7.500   1.475  0.0926  0.6422  0.3177
   97MOL   O42948621   6.000   7.425   1.401 -0.2050 -0.0133  0.2963
   97MOL   C43048622   6.057   7.367   1.282 -0.0643 -0.1925 -0.2278
   97MOL   C43148623   5.980   7.252   1.227  0.1397  0.4294  0.1185
   97MOL   C43248624   6.040   7.192   1.088 -1.2172 -0.0640 -0.2945
   97MOL   C43348625   5.979   7.071   1.031 -0.3938 -0.3943  0.0959
   97MOL   C43448626   5.994   6.950   1.118  1.0248  0.6564 -0.0201
   97MOL   C43548627   5.928   6.830   1.051 -0.1605  0.1260 -0.0567
   97MOL   H43648628   5.987   7.457   1.655 -0.9983 -0.5014 -2.7410
   97MOL   H43748629   6.139   7.523   1.684 -0.6748 -1.1480  1.9573
   97MOL   H43848630   6.186   7.507   1.428  0.6830  1.0564  1.5614
   97MOL   H43948631   6.163   7.347   1.303 -0.1901  0.5159  1.1650
   97MOL   H44048632   6.058   7.440   1.201  1.3410  0.1644  0.0853
   97MOL   H44148633   5.875   7.274   1.210  0.0887  0.8543  0.9917
   97MOL   H44248634   5.985   7.175   1.304 -0.3870  1.5474  1.2869
   97MOL   H44348635   6.020   7.268   1.012  0.0099  2.2032  1.5921
   97MOL   H44448636   6.148   7.181   1.097 -1.0312  0.0143 -2.2643
   97MOL   H44548637   5.877   7.086   0.996 -0.5082  1.1297  1.0501
   97MOL   H44648638   6.036   7.049   0.940  0.5847  0.1218  0.5778
   97MOL   H44748639   6.096   6.927   1.149  0.5428 -0.5916  0.7073
   97MOL   H44848640   5.948   6.975   1.214 -0.9026 -1.1802 -0.3967
   97MOL   H44948641   5.928   6.751   1.126  1.8685  1.3504  1.2683
   97MOL   H45048642   5.828   6.845   1.009 -1.4256 -0.5525  2.6386
   97MOL   H45148643   5.987   6.802   0.963 -0.7332  2.7121 -1.3042
   97MOL   C45248644   6.037   7.641   1.472 -0.5489  0.5343 -1.3951
   97MOL   C45348645   6.027   7.710   1.339  0.4716 -0.1723 -0.0901
   97MOL   O45448646   6.155   7.718   1.278  0.0234  0.1146  0.3153
   97MOL   C45548647   6.151   7.710   1.132 -0.0678 -0.3310 -0.0529
   97MOL   C45648648   6.292   7.699   1.072 -0.1842  0.5046  0.0806
   97MOL   C45748649   6.357   7.567   1.113 -0.3412 -0.4735 -0.5270
   97MOL   C45848650   6.325   7.453   1.004 -0.0792 -0.7889  0.0721
   97MOL   C45948651   6.391   7.318   1.024  0.8016  0.4470  0.9617
   97MOL   C46048652   6.349   7.222   0.915 -0.7127  0.4024  0.0427
   97MOL   H46148653   5.940   7.653   1.520 -0.0838 -0.4464 -0.1958
   97MOL   H46248654   6.095   7.712   1.531 -2.7349  0.8590  0.4424
   97MOL   H46348655   5.955   7.656   1.277 -0.6285  1.3733 -0.2155
   97MOL   H46448656   6.098   0.021   1.097  1.1576 -0.2260 -1.7253
   97MOL   H46548657   6.087   7.631   1.093 -0.2240  0.2775 -1.0498
   97MOL   H46648658   6.343   0.007   1.114  0.3374  0.6835 -0.9098
   97MOL   H46748659   6.297   7.712   0.964  2.6950 -0.3799  0.0830
   97MOL   H46848660   6.463   7.567   1.138 -0.5591  0.3831  0.3997
   97MOL   H46948661   6.326   7.537   1.213  1.1337 -0.7610 -0.1394
   97MOL   H47048662   6.219   7.443   0.984  0.0833 -0.9412 -0.7497
   97MOL   H47148663   6.373   7.486   0.911  0.8015  1.0301  1.1352
   97MOL   H47248664   6.496   7.332   1.051  0.3639  0.4801  2.6487
   97MOL   H47348665   6.353   7.275   1.116 -1.1814  2.0819  0.9428
   97MOL   H47448666   6.399   7.125   0.923  0.6286  1.2816  3.0827
   97MOL   H47548667   6.244   7.210   0.891 -1.4705  0.9137  3.0032
   97MOL   H47648668   6.375   7.257   0.814  0.6327  1.4382  0.7318
   97MOL   C47748669   5.966   0.071   1.361 -0.1822  0.2168 -0.3467
   97MOL   C47848670   6.059   0.171   1.422 -0.2663 -0.2279 -0.2489
   97MOL   O47948671   6.016   0.301   1.382  0.6524  0.1506 -0.3450
   97MOL   C48048672   6.104   0.410   1.410 -0.1027  0.3194  0.4266
   97MOL   C48148673   6.100   0.445   1.555  0.4080 -0.3925  0.7298
   97MOL   C48248674   5.970   0.475   1.608  0.4306 -0.0547  0.2957
   97MOL   C48348675   5.969   0.516   1.757  0.0303 -0.0855  0.2315
   97MOL   C48448676   6.016   0.656   1.792 -0.0910 -0.7943 -0.1212
   97MOL   C48548677   6.022   0.672   1.948 -0.0776 -0.5519  0.1558
   97MOL   H48648678   5.949   0.104   1.258  2.3972  2.1778 -0.1918
   97MOL   H48748679   5.868   0.088   1.406 -0.8622 -0.2274 -1.6069
   97MOL   H48848680   6.069   0.166   1.531  0.4191 -1.7062 -0.3705
   97MOL   H48948681   6.057   0.489   1.352  1.3659 -0.2348 -1.5575
   97MOL   H49048682   6.207   0.396   1.376  1.0680  0.9983  3.5397
   97MOL   H49148683   6.162   0.532   1.577  1.4346 -0.9384  0.0316
   97MOL   H49248684   6.138   0.360   1.611  0.6941 -0.3464  0.6057
   97MOL   H49348685   5.919   0.547   1.545 -2.6464 -1.7693  0.7027
   97MOL   H49448686   5.910   0.384   1.601  1.2519 -0.7447  1.8861
   97MOL   H49548687   5.865   0.510   1.789  0.5973  0.3270  2.2504
   97MOL   H49648688   6.032   0.452   1.820  0.5988 -0.4526 -0.6920
   97MOL   H49748689   6.115   0.686   1.756 -0.9288  1.1212 -0.9009
   97MOL   H49848690   5.945   0.734   1.764 -0.2620 -0.8537  0.1537
   97MOL   H49948691   6.113   0.621   1.977  1.4176  0.4349 -2.5790
   97MOL   H50048692   6.040   0.778   1.963 -0.9625 -0.4537  0.5678
   97MOL   H50148693   5.935   0.648   2.009  1.9942 -0.1013  3.3769
   97MOL   H50248694   6.158   0.163   1.379  0.1574  0.3984  0.6061
   98MOL     C148695   6.988   1.128   5.584 -0.0285 -0.2227 -1.0065
   98MOL     C248696   6.958   1.017   5.485  0.5383 -0.0018 -0.4163
   98MOL     O348697   6.911   1.079   5.370  0.3429  0.6029 -0.3403
   98MOL     C448698   7.006   1.096   5.269  0.3832 -0.8093  0.2869
   98MOL     C548699   6.945   1.170   5.151  0.7642  0.8488  0.3306
   98MOL     C648700   6.832   1.095   5.079 -0.1341 -0.9746  1.3382
   98MOL     C748701   6.771   1.177   4.968  0.2106  0.5765  0.4088
   98MOL     C848702   6.685   1.087   4.872  0.2327 -0.3823 -0.1007
   98MOL     C948703   6.565   1.023   4.945 -0.0906  0.3483 -0.2167
   98MOL    H1048704   6.909   1.200   5.600 -1.4607 -1.3614 -2.6941
   98MOL    H1148705   7.008   1.082   5.680  1.0152  0.6191 -0.8085
   98MOL    H1248706   7.051   0.960   5.473 -1.2465 -2.9400 -0.7434
   98MOL    H1348707   7.052   1.002   5.239  0.0079 -0.5818 -1.0661
   98MOL    H1448708   7.086   1.165   5.297 -2.1361  2.2135  0.3906
   98MOL    H1548709   7.033   1.191   5.090 -0.8267 -3.1300 -3.6124
   98MOL    H1648710   6.911   1.269   5.183 -0.8013 -0.7488  3.7977
   98MOL    H1748711   6.885   1.004   5.049  1.2032  0.4895 -0.8972
   98MOL    H1848712   6.760   1.073   5.157  1.2095 -0.4196  2.7551
   98MOL    H1948713   6.702   1.248   5.014 -0.0626  0.3738  0.3177
   98MOL    H2048714   6.846   1.237   4.916  1.3455 -1.0564  0.1277
   98MOL    H2148715   6.736   1.006   4.821 -0.9266 -0.2997 -1.4616
   98MOL    H2248716   6.660   1.154   4.788 -0.2371 -0.7934 -0.2910
   98MOL    H2348717   6.494   0.967   4.884  0.1274 -0.7578  0.5333
   98MOL    H2448718   6.591   0.945   5.017 -0.4733  0.0724 -0.3765
   98MOL    H2548719   6.510   1.102   4.995 -1.3675  0.2506 -1.4265
   98MOL    H2648720   7.075   1.181   5.545 -0.3008 -0.3778 -1.8415
   98MOL    C2748721   6.845   0.931   5.546 -0.1451 -0.3799  0.1227
   98MOL    C2848722   6.862   0.783   5.498  0.2205  0.3976 -0.2749
   98MOL    O2948723   6.754   0.706   5.549  0.2846 -0.0495 -0.4763
   98MOL    C3048724   6.764   0.663   5.692 -0.5941  0.5961  0.7158
   98MOL    C3148725   6.629   0.597   5.716 -0.9012  0.4243  0.2412
   98MOL    C3248726   6.614   0.535   5.859  0.0964  0.0178 -0.4349
   98MOL    C3348727   6.497   0.433   5.873  0.5827  0.6111  0.0560
   98MOL    C3448728   6.360   0.499   5.848  0.2852  0.4191 -0.4308
   98MOL    C3548729   6.255   0.442   5.940 -0.7101 -0.3812  0.3533
   98MOL    H3648730   6.849   0.933   5.655  1.7101  3.0919  0.0652
   98MOL    H3748731   6.746   0.961   5.511 -0.9944  0.0678  2.7224
   98MOL    H3848732   6.952   0.741   5.542  1.1598  2.0231 -0.5863
   98MOL    H3948733   6.765   0.753   5.754 -1.6080  0.4247  1.0042
   98MOL    H4048734   6.850   0.598   5.707 -0.4127 -0.1881 -3.1608
   98MOL    H4148735   6.634   0.519   5.640  0.0011  0.5109  0.2002
   98MOL    H4248736   6.542   0.661   5.701 -0.9280  0.5812  1.0343
   98MOL    H4348737   6.709   0.481   5.868  2.5425  3.7729 -2.3043
   98MOL    H4448738   6.604   0.615   5.931 -0.9685 -0.8898  0.4451
   98MOL    H4548739   6.510   0.353   5.801 -2.9441 -1.3180  1.4726
   98MOL    H4648740   6.497   0.387   5.971  3.2319 -0.0839 -0.2434
   98MOL    H4748741   6.370   0.607   5.861  2.2978 -0.2274  4.3953
   98MOL    H4848742   6.330   0.484   5.744 -0.7400  0.7834 -0.2013
   98MOL    H4948743   6.163   0.484   5.898  1.1688 -0.2113 -3.8241
   98MOL    H5048744   6.255   0.333   5.930 -0.2948 -0.0876 -3.3065
   98MOL    H5148745   6.269   0.481   6.041  1.9864 -1.1744  0.3291
   98MOL    C5248746   6.852   0.763   5.344  0.7683  0.1683 -0.5450
   98MOL    C5348747   6.843   0.605   5.297 -0.1465  0.6797 -0.3057
   98MOL    O5448748   6.848   0.602   5.150  0.1524 -0.6040  0.5632
   98MOL    C5548749   6.725   0.647   5.091 -0.5628 -0.3134  0.1937
   98MOL    C5648750   6.724   0.601   4.942 -0.8265  0.0264  0.6773
   98MOL    C5748751   6.846   0.652   4.859  0.4372  0.5684 -0.1562
   98MOL    C5848752   6.841   0.619   4.708 -0.5334 -0.4055 -0.1550
   98MOL    C5948753   6.927   0.714   4.620  0.2655 -0.1838  0.1731
   98MOL    C6048754   6.939   0.663   4.481  0.1716  0.6691  0.2819
   98MOL    H6148755   6.937   0.811   5.297  0.6935  0.0529 -0.8003
   98MOL    H6248756   6.761   0.820   5.327  0.1041 -0.9806 -0.9684
   98MOL    H6348757   6.747   0.567   5.332  0.0954 -0.2429 -0.6200
   98MOL    H6448758   6.732   0.756   5.095  2.2055 -0.4205 -0.1373
   98MOL    H6548759   6.647   0.592   5.142  0.3431 -1.8136 -0.0083
   98MOL    H6648760   6.632   0.647   4.905 -0.2024  0.6001 -0.2045
   98MOL    H6748761   6.715   0.493   4.942 -0.9349  0.0318  1.8095
   98MOL    H6848762   6.849   0.760   4.871 -0.7620  0.5058  0.7746
   98MOL    H6948763   6.939   0.613   4.901  1.2700  0.5269 -1.9875
   98MOL    H7048764   6.888   0.521   4.700 -0.7213 -0.5215  0.1504
   98MOL    H7148765   6.741   0.592   4.675  0.2599 -0.9912 -2.1807
   98MOL    H7248766   6.872   0.808   4.614  1.0245  0.3400  1.3536
   98MOL    H7348767   7.022   0.734   4.668 -0.3087  2.2242  0.3662
   98MOL    H7448768   7.013   0.585   4.466 -1.0376 -1.1468  3.3251
   98MOL    H7548769   6.845   0.614   4.458 -0.1832  1.0723  0.8478
   98MOL    H7648770   6.960   0.736   4.403  2.5609 -0.0196  0.2415
   98MOL    C7748771   6.957   0.510   5.345  0.4119  0.2073 -0.3319
   98MOL    C7848772   6.920   0.356   5.316 -0.1830 -0.6292  0.6867
   98MOL    O7948773   6.818   0.325   5.407 -0.1882 -0.3113  0.1573
   98MOL    C8048774   6.720   0.240   5.349  0.0144  0.4590 -0.3197
   98MOL    C8148775   6.597   0.217   5.441 -0.7188  0.0284  0.6655
   98MOL    C8248776   6.508   0.104   5.394  0.7942  0.3746  0.4849
   98MOL    C8348777   6.560   7.739   5.409 -0.0472  0.5612  0.5115
   98MOL    C8448778   6.465   7.638   5.347 -0.1812 -0.6306 -0.0504
   98MOL    C8548779   6.517   7.492   5.348 -0.5327 -0.5992 -0.2772
   98MOL    H8648780   6.985   0.527   5.449 -1.5504  1.7241 -0.0229
   98MOL    H8748781   7.049   0.547   5.301  1.5842 -1.3528  0.7508
   98MOL    H8848782   6.889   0.341   5.213 -3.3652  0.8497  1.3741
   98MOL    H8948783   6.774   0.146   5.344 -3.0924 -1.4853  0.7989
   98MOL    H9048784   6.693   0.259   5.245  0.4715 -0.4904 -0.6174
   98MOL    H9148785   6.541   0.310   5.438  0.0281  0.4595  0.0430
   98MOL    H9248786   6.626   0.212   5.546  0.9824 -0.0593  0.2081
   98MOL    H9348787   6.420   0.109   5.458 -0.7002  0.4314 -1.5134
   98MOL    H9448788   6.469   0.108   5.292  0.2716 -2.0141  0.5784
   98MOL    H9548789   6.654   7.726   5.355 -0.3554  2.0763 -0.4491
   98MOL    H9648790   6.582   7.712   5.512  0.6726  0.1612  0.2504
   98MOL    H9748791   6.365   7.641   5.391 -0.1042 -0.7806  0.1373
   98MOL    H9848792   6.451   7.665   5.242 -0.2477 -0.7139 -0.0627
   98MOL    H9948793   6.531   7.453   5.448 -1.3457 -0.2579 -0.0244
   98MOL   H10048794   6.443   7.432   5.294 -0.5723 -0.3627 -0.4874
   98MOL   H10148795   6.608   7.488   5.288  0.8108  2.4715  1.4429
   98MOL   C10248796   7.042   0.265   5.359 -0.3502  0.7013 -0.8253
   98MOL   C10348797   7.167   0.249   5.262  0.4476  0.1946 -0.0515
   98MOL   O10448798   7.264   0.170   5.314 -0.1599 -0.0504  1.0374
   98MOL   C10548799   7.350   0.234   5.405  0.5034 -0.0151  0.2499
   98MOL   C10648800   7.466   0.144   5.457 -0.4132  0.7691 -0.0089
   98MOL   C10748801   7.437   0.006   5.528 -0.0845  0.2875  0.3445
   98MOL   C10848802   7.569   7.720   5.589 -0.4439  0.4132 -0.0030
   98MOL   C10948803   7.687   7.698   5.494  0.7774 -0.1935  0.0716
   98MOL   C11048804   0.031   7.634   5.562 -0.2920 -0.1864 -0.5958
   98MOL   H11148805   7.081   0.296   5.456  0.9587 -0.6467 -0.9093
   98MOL   H11248806   6.995   0.167   5.364  2.4503 -0.5738  1.2355
   98MOL   H11348807   7.213   0.347   5.244 -0.4989  0.8684  1.1101
   98MOL   H11448808   7.297   0.284   5.486  1.6386  1.1106  0.3238
   98MOL   H11548809   7.402   0.316   5.356 -0.1611 -1.1734 -2.4723
   98MOL   H11648810   7.544   0.199   5.508  0.2204 -1.8506  1.9494
   98MOL   H11748811   7.521   0.122   5.365  1.4712  1.4946  0.9020
   98MOL   H11848812   7.357   0.019   5.602  0.5132  1.6232  0.7828
   98MOL   H11948813   7.406   7.716   5.450  1.0561  0.6480 -0.4366
   98MOL   H12048814   7.616   0.013   5.658 -1.8272  2.5566 -1.2074
   98MOL   H12148815   7.556   7.625   5.640  2.1909  0.3748  0.6493
   98MOL   H12248816   7.662   7.627   5.415  2.2571  0.1169 -0.6992
   98MOL   H12348817   7.731   0.001   5.436 -0.8544  2.6324  2.6717
   98MOL   H12448818   0.064   7.710   5.633 -1.9307  0.1514 -0.1788
   98MOL   H12548819   0.015   7.544   5.621  0.1158  0.6398  0.8057
   98MOL   H12648820   0.112   7.609   5.493  1.5490  0.1462  1.3937
   98MOL   C12748821   7.134   0.203   5.118  0.3487 -1.2041 -0.1138
   98MOL   C12848822   7.253   0.188   5.021 -0.5285 -0.0397 -0.0591
   98MOL   O12948823   7.207   0.192   4.889  0.1566 -0.0565  0.7150
   98MOL   C13048824   7.219   0.322   4.833 -0.4507 -0.7719 -0.1831
   98MOL   C13148825   7.139   0.306   4.705 -0.6080 -0.2739  0.2097
   98MOL   C13248826   7.221   0.228   4.608  0.3215 -0.0811 -0.1237
   98MOL   C13348827   7.164   0.209   4.467 -0.0009  0.2465 -0.2943
   98MOL   C13448828   7.077   0.086   4.449 -0.0742 -0.5555  0.7926
   98MOL   C13548829   7.024   0.076   4.309  0.3557  0.6136 -0.5131
   98MOL   H13648830   7.076   0.111   5.116  0.7796 -1.4975  0.7826
   98MOL   H13748831   7.074   0.290   5.091  0.5696 -0.2180  2.4234
   98MOL   H13848832   7.331   0.261   5.042 -0.0824 -0.0629 -1.5502
   98MOL   H13948833   7.323   0.352   4.825 -0.2910 -1.0765  0.6646
   98MOL   H14048834   7.177   0.392   4.905  0.5063 -1.5652  1.1792
   98MOL   H14148835   7.118   0.398   4.651  0.0454 -0.4337 -0.3155
   98MOL   H14248836   7.045   0.254   4.723 -0.9438  0.1343 -0.3349
   98MOL   H14348837   7.317   0.280   4.603 -0.7966  2.5632  3.4217
   98MOL   H14448838   7.244   0.130   4.650 -1.5858  0.2653  1.7989
   98MOL   H14548839   7.099   0.294   4.449 -1.9425 -1.2140 -0.3699
   98MOL   H14648840   7.240   0.219   4.389 -0.2166  0.2967 -0.5016
   98MOL   H14748841   7.130   7.770   4.464 -1.0348 -1.8000 -3.2002
   98MOL   H14848842   6.991   0.087   4.516  0.1913 -1.5594  1.1664
   98MOL   H14948843   6.988   0.174   4.276 -0.9201  0.3225 -0.0227
   98MOL   H15048844   7.097   0.044   4.235 -0.4196  0.6259 -1.2916
   98MOL   H15148845   6.949   7.776   4.300  2.1936 -1.3661  1.1975
   98MOL   C15248846   7.314   0.042   5.030  0.1914  0.2103  0.3062
   98MOL   C15348847   7.424   0.023   4.924  0.2453  0.0747 -0.5303
   98MOL   O15448848   7.536   0.084   4.987 -0.3254  0.1633 -0.7349
   98MOL   C15548849   7.630   0.154   4.909  1.3599 -0.7393 -0.0093
   98MOL   C15648850   7.756   0.190   4.978 -0.7394 -0.1233 -0.2531
   98MOL   C15748851   0.064   0.070   4.983 -0.4967 -0.4401 -0.5296
   98MOL   C15848852   0.187   0.076   5.071  0.3193  0.2701 -0.7276
   98MOL   C15948853   0.234   7.714   5.087 -0.2775 -0.1942  0.6834
   98MOL   C16048854   0.161   7.615   5.187 -0.4233  0.3704  1.0909
   98MOL   H16148855   7.356   0.027   5.130 -0.2431  0.0227  0.4612
   98MOL   H16248856   7.232   7.752   5.011  1.0327 -1.0937  1.2194
   98MOL   H16348857   7.400   0.073   4.830  1.2865  2.2460  0.3204
   98MOL   H16448858   7.577   0.240   4.869 -0.1093 -1.2128  0.8728
   98MOL   H16548859   7.646   0.100   4.816 -0.9263 -1.2687 -0.1350
   98MOL   H16648860   7.732   0.230   5.076 -0.2096 -0.1116 -0.1264
   98MOL   H16748861   0.025   0.273   4.926  0.3533  0.7147  2.0172
   98MOL   H16848862   0.006   7.758   5.005  0.1425 -0.7398 -0.0405
   98MOL   H16948863   0.103   0.046   4.884  0.0019  1.5149 -0.8221
   98MOL   H17048864   0.263   0.139   5.024  2.9333 -1.0809  1.4889
   98MOL   H17148865   0.160   0.119   5.167  0.1869 -0.6200 -0.3645
   98MOL   H17248866   0.239   7.661   4.992  0.0688 -1.9067  1.6298
   98MOL   H17348867   0.339   7.725   5.115 -0.3140  0.4387  0.5828
   98MOL   H17448868   0.227   7.532   5.211 -0.0758  0.9907  2.3428
   98MOL   H17548869   0.159   7.678   5.277 -2.4932  1.5546  0.2670
   98MOL   H17648870   0.060   7.588   5.155  0.0426 -0.6612  0.4892
   98MOL   C17748871   7.449   7.650   4.894 -0.4296  0.1155 -0.5776
   98MOL   C17848872   7.321   7.575   4.841 -0.0214  0.3838  0.2757
   98MOL   O17948873   7.360   7.505   4.722  0.4761 -0.3057 -0.0649
   98MOL   C18048874   7.348   7.579   4.602  1.1388  0.0234  0.8347
   98MOL   C18148875   7.427   7.518   4.485 -0.1643 -0.2291  0.1591
   98MOL   C18248876   7.434   7.610   4.359  0.4557 -0.0185 -0.3859
   98MOL   C18348877   7.532   7.727   4.366 -0.5190  0.4593 -0.3068
   98MOL   C18448878   7.528   0.037   4.243  0.3629  0.0311  0.6733
   98MOL   C18548879   7.635   0.145   4.253  0.6092  0.2142  0.3269
   98MOL   H18648880   7.528   7.634   4.822 -0.6512 -0.1369 -0.7651
   98MOL   H18748881   7.480   7.605   4.988  0.2993 -1.1570 -1.4195
   98MOL   H18848882   7.239   7.636   4.804 -0.8113 -1.6602 -1.4360
   98MOL   H18948883   7.377   7.683   4.618 -2.2432  0.9319  1.5506
   98MOL   H19048884   7.244   7.580   4.569  1.1228  4.0513  0.7690
   98MOL   H19148885   7.371   7.428   4.461  1.7283 -1.3905 -0.0514
   98MOL   H19248886   7.531   7.503   4.514 -0.6393  0.1238  2.1131
   98MOL   H19348887   7.470   7.551   4.274 -1.5444 -1.2412 -0.4229
   98MOL   H19448888   7.334   7.642   4.328  1.0075  1.2476 -0.9057
   98MOL   H19548889   7.489   0.006   4.448  0.8246  0.1695  0.6133
   98MOL   H19648890   7.628   7.679   4.386  0.5023  2.0269 -1.2936
   98MOL   H19748891   7.547   7.752   4.156  0.1325 -0.0342  0.6701
   98MOL   H19848892   7.429   0.071   4.212  0.2996  1.4431  2.3528
   98MOL   H19948893   7.731   0.105   4.286  0.2034  0.5711  1.9868
   98MOL   H20048894   7.659   0.197   4.160  1.7048  0.7492  0.9010
   98MOL   H20148895   7.613   0.223   4.326  0.1045 -0.3176  0.7438
   98MOL   C20248896   7.265   7.474   4.945 -0.6932  0.0008 -0.5899
   98MOL   C20348897   7.115   7.435   4.904 -0.4126  0.5448  0.2786
   98MOL   O20448898   7.049   7.561   4.886 -0.3214  1.0531 -0.1689
   98MOL   C20548899   6.970   7.565   4.772 -0.1934 -0.3003 -1.2418
   98MOL   C20648900   6.912   7.704   4.748  0.1294 -0.3788 -0.8876
   98MOL   C20748901   6.800   7.742   4.858  0.6258 -0.0219  0.2376
   98MOL   C20848902   6.739   0.097   4.822 -0.3413 -0.2915  0.1597
   98MOL   C20948903   6.650   0.147   4.942 -0.7639  0.0106 -0.0707
   98MOL   C21048904   6.530   0.065   4.971  0.1862 -0.0273 -0.1830
   98MOL   H21148905   7.338   7.393   4.941  0.4761  0.9963  0.2224
   98MOL   H21248906   7.265   7.515   5.046 -1.2813 -0.1535 -0.5247
   98MOL   H21348907   7.105   7.369   4.818 -1.3073  1.2167 -0.1380
   98MOL   H21448908   6.887   7.495   4.778  1.2137 -1.9216 -0.3289
   98MOL   H21548909   7.030   7.537   4.685  1.5422  2.1287 -0.8995
   98MOL   H21648910   6.859   7.702   4.652 -1.9062 -1.6448  0.2233
   98MOL   H21748911   6.989   0.002   4.743 -1.0461  0.8440 -0.7678
   98MOL   H21848912   6.725   7.665   4.874 -0.5456  0.9670 -0.3829
   98MOL   H21948913   6.852   7.745   4.954  1.3231  0.1887 -0.1425
   98MOL   H22048914   6.824   0.165   4.815 -1.4649  1.1064  0.0093
   98MOL   H22148915   6.691   0.096   4.724  0.6185  0.1971 -0.3141
   98MOL   H22248916   6.708   0.166   5.032 -0.2398  0.5696 -0.5177
   98MOL   H22348917   6.617   0.248   4.918 -1.3265  0.2437  1.6175
   98MOL   H22448918   6.455   0.112   5.035 -0.6897 -0.1738 -1.0741
   98MOL   H22548919   6.479   0.029   4.881 -1.1515 -0.8820  0.8980
   98MOL   H22648920   6.568   7.756   5.023 -1.7778  0.0570  1.4712
   98MOL   C22748921   7.046   7.360   5.017  0.2995 -0.3665  0.5185
   98MOL   C22848922   7.110   7.238   5.079  0.4312  0.1895  0.4441
   98MOL   O22948923   7.019   7.199   5.183  0.1264 -0.0865 -0.4756
   98MOL   C23048924   7.051   7.267   5.312 -0.6582 -0.1780  0.5639
   98MOL   C23148925   6.945   7.232   5.412 -0.8017  0.2873  0.7754
   98MOL   C23248926   6.938   7.078   5.424 -0.2257  0.0606  0.9724
   98MOL   C23348927   6.839   7.022   5.526  0.9129  0.4522  0.6862
   98MOL   C23448928   6.835   6.873   5.516 -0.7181 -0.2244 -0.3369
   98MOL   C23548929   6.912   6.799   5.626 -0.3706 -0.0269 -0.2034
   98MOL   H23648930   7.019   7.436   5.091  2.3267  1.6170 -0.7451
   98MOL   H23748931   6.948   7.333   4.976  0.2915 -1.6075  1.3281
   98MOL   H23848932   7.207   7.273   5.117  0.3436  1.0099 -0.0734
   98MOL   H23948933   7.046   7.374   5.297 -1.4833 -0.3695 -0.5840
   98MOL   H24048934   7.153   7.238   5.336 -0.2157  1.7897  1.0939
   98MOL   H24148935   6.851   7.279   5.384 -0.9814 -0.4421  0.1579
   98MOL   H24248936   6.973   7.276   5.509  1.3108 -1.9993  1.2574
   98MOL   H24348937   6.917   7.033   5.327 -0.6673 -0.2998  1.2316
   98MOL   H24448938   7.041   7.044   5.431  0.3954  1.5894 -0.5463
   98MOL   H24548939   6.852   7.062   5.627 -0.9806 -0.5300  1.3427
   98MOL   H24648940   6.738   7.056   5.505  1.6754  2.9749  0.9211
   98MOL   H24748941   6.734   6.832   5.519 -1.1074  0.9126  2.6252
   98MOL   H24848942   6.876   6.840   5.420  1.5999 -2.1682  1.2537
   98MOL   H24948943   6.864   6.819   5.722  2.0424  1.0587  0.8059
   98MOL   H25048944   6.921   6.696   5.590 -2.2816 -0.2285 -0.1874
   98MOL   H25148945   7.017   6.828   5.629 -0.6364  0.8776  0.3255
   98MOL   C25248946   7.122   7.124   4.976 -0.1867 -0.4699 -0.5629
   98MOL   C25348947   7.211   7.004   5.013 -0.0903 -0.5201  0.7967
   98MOL   O25448948   7.296   6.972   4.902  0.3217 -0.2298  0.1289
   98MOL   C25548949   7.396   7.067   4.859  0.0043  0.7518 -0.1022
   98MOL   C25648950   7.500   6.986   4.782 -0.0457 -0.7396 -0.6570
   98MOL   C25748951   7.612   7.076   4.725  0.2416 -0.0943  0.0628
   98MOL   C25848952   7.738   7.015   4.658 -0.1109  0.0525  0.0310
   98MOL   C25948953   7.717   6.989   4.509  0.1579 -0.0737  0.1347
   98MOL   C26048954   7.712   7.116   4.426  0.1468  0.1048  0.2354
   98MOL   H26148955   7.019   7.099   4.949  0.5620 -3.0373 -1.1430
   98MOL   H26248956   7.168   7.165   4.886  0.9219 -0.4719 -0.0058
   98MOL   H26348957   7.277   7.018   5.099  2.1749  1.2426 -1.1332
   98MOL   H26448958   7.446   7.120   4.940  2.6275 -0.3964 -0.9152
   98MOL   H26548959   7.353   7.135   4.786  1.5026  0.9488 -0.8262
   98MOL   H26648960   7.439   6.941   4.703 -0.6347 -1.8440  0.4067
   98MOL   H26748961   7.544   6.902   4.835 -2.6719  0.1473  3.1349
   98MOL   H26848962   7.555   7.133   4.651  0.3530 -1.2561 -0.9355
   98MOL   H26948963   7.637   7.143   4.807  0.6987 -0.8877  0.5769
   98MOL   H27048964   0.052   7.071   4.670 -0.4247  0.3912  0.8940
   98MOL   H27148965   7.756   6.921   4.711 -1.6880 -1.2246 -1.5983
   98MOL   H27248966   0.030   6.938   4.477  0.4480  0.5981 -0.1264
   98MOL   H27348967   7.639   6.914   4.496 -1.3560  1.7418 -1.5407
   98MOL   H27448968   7.765   7.108   4.331 -2.4892 -1.3642 -1.1640
   98MOL   H27548969   7.609   7.127   4.392  0.0446 -1.5231  0.0009
   98MOL   H27648970   7.751   7.205   4.476 -0.5268 -0.0818  1.1168
   98MOL   C27748971   7.138   6.874   5.035 -0.1600  0.2753 -0.0334
   98MOL   C27848972   7.222   6.751   5.083 -0.0084 -0.5537 -0.4675
   98MOL   O27948973   7.301   6.782   5.194  0.1656  0.5896 -0.5252
   98MOL   C28048974   7.439   6.799   5.168  0.3051 -0.7232  0.3848
   98MOL   C28148975   7.502   6.847   5.298  0.7672 -0.3270  0.7387
   98MOL   C28248976   7.438   6.975   5.353 -0.0549  0.2804  0.1690
   98MOL   C28348977   7.515   7.030   5.469 -0.5119 -0.8327 -0.2034
   98MOL   C28448978   7.461   7.168   5.517  0.4907  0.4236  0.1262
   98MOL   C28548979   7.540   7.222   5.629 -0.5218  0.5939  0.1456
   98MOL   H28648980   7.054   6.882   5.103 -0.6258 -0.8384 -0.4643
   98MOL   H28748981   7.083   6.858   4.942  1.2272 -0.5267 -0.7462
   98MOL   H28848982   7.289   6.722   5.002  1.8511  3.5160 -0.5212
   98MOL   H28948983   7.458   6.871   5.088  2.6221 -0.7591  0.8574
   98MOL   H29048984   7.477   6.701   5.139 -2.2151 -1.4293 -0.6268
   98MOL   H29148985   7.611   6.853   5.294  0.6535  1.7810  0.4072
   98MOL   H29248986   7.471   6.772   5.371 -1.0776  1.2849  1.6581
   98MOL   H29348987   7.418   7.057   5.284  1.3954  1.2805  0.8991
   98MOL   H29448988   7.347   6.934   5.396 -0.2627  1.7811  1.1817
   98MOL   H29548989   7.502   6.955   5.548 -0.2497 -1.4157 -0.7094
   98MOL   H29648990   7.621   7.029   5.442 -0.8194 -0.1957 -1.4410
   98MOL   H29748991   7.453   7.236   5.433  2.1185 -0.7588 -1.0154
   98MOL   H29848992   7.354   7.157   5.538  0.6857  0.2378  1.0317
   98MOL   H29948993   7.553   7.136   5.695 -2.5429  0.0217 -0.1639
   98MOL   H30048994   7.637   7.261   5.597  0.2404 -2.2624 -1.1524
   98MOL   H30148995   7.486   7.298   5.686 -0.6585  1.5319 -1.2306
   98MOL   C30248996   7.139   6.621   5.107  0.3977  0.1041 -0.5369
   98MOL   C30348997   7.224   6.495   5.138 -0.2402  0.1836 -0.6881
   98MOL   O30448998   7.318   6.463   5.033 -0.3770  0.2144 -0.0882
   98MOL   C30548999   7.268   6.443   4.905  0.5138  0.3178 -0.8737
   98MOL   C30649000   7.374   6.407   4.803  1.1311 -0.0439  0.1716
   98MOL   C30749001   7.434   6.542   4.759  0.3980  0.4671  0.2889
   98MOL   C30849002   7.550   6.524   4.658  0.5480  0.6148 -0.0039
   98MOL   C30949003   7.597   6.648   4.579  0.0948 -0.0848  0.3212
   98MOL   C31049004   7.715   6.604   4.484  0.7780  0.7415 -0.3002
   98MOL   H31149005   7.069   6.634   5.189 -0.1795 -1.9260 -0.6776
   98MOL   H31249006   7.083   6.604   5.015  1.7789  0.7997 -1.5437
   98MOL   H31349007   7.291   6.538   5.213 -0.1067  1.4436 -1.5249
   98MOL   H31449008   7.215   6.533   4.873 -1.5926 -0.2123  0.9585
   98MOL   H31549009   7.188   6.368   4.909  0.1409  0.6653 -1.6190
   98MOL   H31649010   7.324   6.368   4.715  0.7705  4.1595 -1.5989
   98MOL   H31749011   7.448   6.333   4.835  1.9491 -0.1751 -1.9075
   98MOL   H31849012   7.362   6.588   4.691 -0.5356  1.1153  1.6961
   98MOL   H31949013   7.455   6.605   4.846 -0.1721  0.7304  0.2386
   98MOL   H32049014   7.637   6.501   4.720 -0.4365 -0.6534  0.9444
   98MOL   H32149015   7.530   6.442   4.589 -1.5020  1.0113  0.0933
   98MOL   H32249016   7.507   6.680   4.526 -0.2106 -1.9874 -0.3661
   98MOL   H32349017   7.627   6.729   4.646 -1.3752  0.0497  0.8470
   98MOL   H32449018   7.668   6.543   4.407  0.2241 -0.7195  1.1506
   98MOL   H32549019   7.763   6.688   4.434  0.4155  0.4287 -1.1708
   98MOL   H32649020   0.001   6.525   4.524 -0.6783 -1.4165 -2.0823
   98MOL   C32749021   7.158   6.376   5.196  0.1839  0.0208  0.1929
   98MOL   C32849022   7.264   6.274   5.237 -0.3619  0.1865  0.0014
   98MOL   O32949023   7.336   6.325   5.355  0.5590  0.4661 -0.1156
   98MOL   C33049024   7.477   6.357   5.331  0.5354  0.1084  0.3009
   98MOL   C33149025   7.544   6.409   5.457  0.0793  0.4613 -0.1741
   98MOL   C33249026   7.536   6.307   5.576 -0.2990 -0.0951  0.3201
   98MOL   C33349027   7.658   6.209   5.569 -1.0795 -0.4213  0.4320
   98MOL   C33449028   7.648   6.084   5.663  0.0207  0.5166  0.1398
   98MOL   C33549029   7.639   6.125   5.814 -0.4903  0.0378  0.3651
   98MOL   H33649030   7.083   6.335   5.129  0.6843  0.6209 -0.7412
   98MOL   H33749031   7.100   6.400   5.285 -0.0270 -0.1688  0.1070
   98MOL   H33849032   7.337   6.254   5.159  0.9378 -1.4613  1.5969
   98MOL   H33949033   7.492   6.425   5.247  0.4630 -3.2074 -2.5188
   98MOL   H34049034   7.541   6.274   5.298  2.2714  0.9219  1.5264
   98MOL   H34149035   7.498   6.504   5.482 -0.1550 -0.0989  1.6140
   98MOL   H34249036   7.650   6.431   5.443  0.5273  0.4030  2.8112
   98MOL   H34349037   7.544   6.368   5.666 -1.8802  0.7149 -0.0852
   98MOL   H34449038   7.441   6.255   5.583 -0.4222  0.0863 -0.0108
   98MOL   H34549039   7.658   6.169   5.467  0.8286  0.1457  0.2042
   98MOL   H34649040   7.753   6.258   5.588 -1.0309 -0.6888  0.8696
   98MOL   H34749041   7.549   6.050   5.633  0.3426 -0.2664 -0.0681
   98MOL   H34849042   7.723   6.007   5.644  2.0127  1.6355  3.2058
   98MOL   H34949043   7.665   6.034   5.869 -1.9821 -1.3334 -1.1563
   98MOL   H35049044   7.710   6.207   5.825 -2.3392  1.7414 -0.0566
   98MOL   H35149045   7.539   6.159   5.841 -0.7295 -1.1761  1.0727
   98MOL   C35249046   7.181   6.142   5.277 -0.9559 -0.4003  0.0664
   98MOL   C35349047   7.264   6.026   5.342 -1.3622  0.1729  0.2236
   98MOL   O35449048   7.328   5.958   5.237  0.0085 -0.5710  0.0856
   98MOL   C35549049   7.474   5.978   5.225  0.1470 -0.6363 -0.0102
   98MOL   C35649050   7.535   5.872   5.142  1.0222 -0.5822 -0.2980
   98MOL   C35749051   7.675   5.910   5.099 -0.2501  0.5923 -0.4611
   98MOL   C35849052   7.769   5.789   5.070  0.7528  0.0271 -0.0004
   98MOL   C35949053   0.129   5.823   5.021 -0.6183 -0.1688  0.0018
   98MOL   C36049054   0.140   5.833   4.865 -0.2954 -1.0734 -0.9042
   98MOL   H36149055   7.112   6.165   5.358 -0.7906 -2.3762  0.7936
   98MOL   H36249056   7.110   6.122   5.197 -0.4499 -2.8087  0.1917
   98MOL   H36349057   7.335   6.058   5.419 -0.4955 -0.9988 -0.0593
   98MOL   H36449058   7.521   5.965   5.322 -0.0237 -2.1236 -0.1164
   98MOL   H36549059   7.501   6.073   5.180 -0.4746 -0.3097  0.2905
   98MOL   H36649060   7.481   5.866   5.047 -1.0865 -1.8626  0.9438
   98MOL   H36749061   7.530   5.777   5.196 -0.3696 -1.9624 -2.7521
   98MOL   H36849062   7.671   5.977   5.013  0.1173  2.3657  0.8752
   98MOL   H36949063   7.725   5.956   5.184 -0.5959  2.5466 -1.2893
   98MOL   H37049064   7.775   5.740   5.167  1.9351  0.5563  0.2067
   98MOL   H37149065   7.717   5.725   4.999 -0.8205  0.1001  1.0476
   98MOL   H37249066   0.168   5.913   5.069  1.6317 -1.0533 -0.0871
   98MOL   H37349067   0.204   5.749   5.049 -1.9182 -0.8660  1.6944
   98MOL   H37449068   0.135   5.746   4.800  0.1113 -2.4684  0.8743
   98MOL   H37549069   0.059   5.900   4.837 -0.3762 -0.4778  0.6951
   98MOL   H37649070   0.236   5.874   4.835  0.7075 -2.2281  0.6656
   98MOL   C37749071   7.170   5.926   5.418  0.3052 -0.1498  0.3750
   98MOL   C37849072   7.230   5.795   5.478  1.0181 -0.0679  0.0291
   98MOL   O37949073   7.202   5.693   5.386  0.3237 -0.0910 -0.5536
   98MOL   C38049074   7.301   5.598   5.377  0.4151  0.5382  0.1962
   98MOL   C38149075   7.265   5.484   5.281  0.5824  1.0884  0.1415
   98MOL   C38249076   7.379   5.392   5.245  0.2149  0.5134  0.3708
   98MOL   C38349077   7.470   5.459   5.143 -0.2654  0.1894 -0.1590
   98MOL   C38449078   7.611   5.391   5.133  0.6396 -0.5392  0.3611
   98MOL   C38549079   7.675   5.381   5.270 -0.7547  0.6210 -0.3698
   98MOL   H38649080   7.116   5.977   5.498  0.7917 -1.1040  1.3188
   98MOL   H38749081   7.090   5.889   5.353 -1.5935 -0.2142  2.6490
   98MOL   H38849082   7.337   5.816   5.473  0.8297  1.6844  2.4877
   98MOL   H38949083   7.317   5.562   5.479  1.8282  4.7004  1.5746
   98MOL   H39049084   7.395   5.640   5.343 -0.2174 -0.2457 -2.6502
   98MOL   H39149085   7.214   5.507   5.188 -0.6610  1.6084  0.9246
   98MOL   H39249086   7.191   5.428   5.338  0.0109  0.7408 -0.9363
   98MOL   H39349087   7.426   5.363   5.339  2.3232  1.5256 -0.3469
   98MOL   H39449088   7.341   5.295   5.214 -0.4589  0.1468  2.2789
   98MOL   H39549089   7.425   5.468   5.044 -2.3685  0.5388  0.7995
   98MOL   H39649090   7.484   5.564   5.168  2.9832 -0.1971 -0.1848
   98MOL   H39749091   7.597   5.295   5.084  1.2759  0.1595 -1.2242
   98MOL   H39849092   7.677   5.450   5.069  0.9770  0.8513  1.9700
   98MOL   H39949093   7.622   5.444   5.341  0.2317  1.6853 -0.5712
   98MOL   H40049094   7.676   5.275   5.297 -0.3434  0.1836 -2.0298
   98MOL   H40149095   0.002   5.408   5.274 -1.2947  3.0266 -1.7555
   98MOL   C40249096   7.178   5.772   5.621 -0.1689 -0.6764 -0.6802
   98MOL   C40349097   7.266   5.835   5.728  0.0406  0.2815 -0.0644
   98MOL   O40449098   7.362   5.733   5.753  0.0101 -0.0242  0.4234
   98MOL   C40549099   7.487   5.760   5.817 -0.0805  0.5780  0.2407
   98MOL   C40649100   7.599   5.664   5.765 -0.2702  0.1854  0.3643
   98MOL   C40749101   7.649   5.698   5.628  0.2704  0.0613  0.1999
   98MOL   C40849102   0.021   5.669   5.607  0.2856 -0.3722 -0.5560
   98MOL   C40949103   0.089   5.718   5.474  0.1385 -0.2636 -0.5832
   98MOL   C41049104   0.235   5.723   5.495 -0.1741  0.8559  0.0358
   98MOL   H41149105   7.170   5.668   5.655 -0.8755 -0.5943 -0.5785
   98MOL   H41249106   7.077   5.809   5.641 -0.0093 -0.3050 -0.5562
   98MOL   H41349107   7.305   5.927   5.684 -1.1128  0.0106 -1.6739
   98MOL   H41449108   7.470   5.751   5.924 -0.7267  3.3205  0.4280
   98MOL   H41549109   7.519   5.864   5.811  2.0711 -0.0061  1.2176
   98MOL   H41649110   7.576   5.558   5.766 -0.4442  0.2190  1.1301
   98MOL   H41749111   7.677   5.680   5.840  1.3948  0.1266 -1.3357
   98MOL   H41849112   7.600   5.641   5.550  1.5740 -1.5647  0.5385
   98MOL   H41949113   7.632   5.806   5.626  2.2629  0.4041  0.5633
   98MOL   H42049114   0.060   5.720   5.695 -1.1816  0.7532 -0.5509
   98MOL   H42149115   0.044   5.566   5.637 -2.4367 -0.6705  0.5851
   98MOL   H42249116   0.066   5.655   5.388 -2.9979  0.3531 -0.2774
   98MOL   H42349117   0.062   5.823   5.457  2.5925  0.6365  0.7996
   98MOL   H42449118   0.274   5.622   5.498 -0.1193  0.8923  0.8373
   98MOL   H42549119   0.282   5.770   5.409 -0.7048  0.1539 -0.6472
   98MOL   H42649120   0.261   5.786   5.580  0.3769  1.5115 -0.6122
   98MOL   C42749121   7.198   5.875   5.858  0.1495  0.2090 -0.4862
   98MOL   C42849122   7.130   6.013   5.858  0.3466 -0.9418 -0.1087
   98MOL   O42949123   7.054   6.011   5.981 -0.4339 -0.1251 -0.4637
   98MOL   C43049124   6.917   5.976   5.975  0.5514 -0.0362  0.8148
   98MOL   C43149125   6.882   5.904   6.109  0.4359  0.2061  0.2238
   98MOL   C43249126   6.974   5.776   6.127 -0.0188  0.1386 -0.3805
   98MOL   C43349127   6.945   5.696   6.260  0.1084 -1.0900 -0.4561
   98MOL   C43449128   7.029   5.569   6.282 -0.3914  0.3251  0.1687
   98MOL   C43549129   6.960   5.437   6.245 -0.6746 -0.1632  0.7248
   98MOL   H43649130   7.131   5.792   5.883 -0.0835  0.5350 -0.0168
   98MOL   H43749131   7.275   5.877   5.935 -1.9022 -0.2010  1.6581
   98MOL   H43849132   7.063   6.019   5.772  0.8473 -1.1722 -0.5124
   98MOL   H43949133   6.901   5.913   5.887 -0.9700  0.3256  0.8252
   98MOL   H44049134   6.862   6.069   5.963 -1.5584 -1.3867 -0.3160
   98MOL   H44149135   6.781   5.864   6.100  0.1977  1.0411 -0.8766
   98MOL   H44249136   6.895   5.968   6.197  1.2428 -2.3659  2.0353
   98MOL   H44349137   6.957   5.708   6.044  1.2128 -1.6643  0.7860
   98MOL   H44449138   7.075   5.816   6.122 -0.7223  1.8718 -0.9814
   98MOL   H44549139   6.956   5.760   6.347 -0.7055 -3.6844  1.6222
   98MOL   H44649140   6.841   5.674   6.238 -0.0374  0.7301 -1.7543
   98MOL   H44749141   7.129   5.573   6.239  0.0726  0.5239  1.2524
   98MOL   H44849142   7.063   5.576   6.385  0.0694 -1.6338  0.1697
   98MOL   H44949143   6.971   5.422   6.137  0.5078 -0.2849  0.8605
   98MOL   H45049144   7.008   5.355   6.299  0.7076 -0.9366 -1.6060
   98MOL   H45149145   6.853   5.431   6.268 -0.7204 -2.1329  0.1494
   98MOL   C45249146   7.218   6.135   5.861 -1.0186  0.3217 -0.4518
   98MOL   C45349147   7.144   6.269   5.865 -0.7048 -0.4588  0.1907
   98MOL   O45449148   7.227   6.375   5.810  0.3762  0.1939  0.0401
   98MOL   C45549149   7.180   6.439   5.687  0.4259  0.4555 -0.4746
   98MOL   C45649150   7.206   6.590   5.697 -0.0633 -0.0670 -0.3476
   98MOL   C45749151   7.331   6.642   5.763  0.1599  0.4925  0.2102
   98MOL   C45849152   7.327   6.795   5.762 -0.4902  0.5505 -0.1617
   98MOL   C45949153   7.449   6.851   5.830 -0.1514  0.5042 -0.7242
   98MOL   C46049154   7.460   6.805   5.978  0.4238  0.2350 -0.5786
   98MOL   H46149155   7.298   6.130   5.935 -0.2046 -0.6500 -1.3717
   98MOL   H46249156   7.276   6.133   5.769  1.2429 -0.0758  0.9334
   98MOL   H46349157   7.054   6.254   5.806 -0.2737 -3.5772  0.2395
   98MOL   H46449158   7.078   6.413   5.659  0.7680 -0.9704 -0.4428
   98MOL   H46549159   7.241   6.401   5.606  1.2879 -0.6305  0.6622
   98MOL   H46649160   7.130   6.640   5.757 -1.6363 -1.5908 -1.0131
   98MOL   H46749161   7.198   6.626   5.595 -1.1381 -1.8954 -0.9347
   98MOL   H46849162   7.328   6.616   5.868  1.7455 -1.2971 -0.1433
   98MOL   H46949163   7.419   6.594   5.719 -0.6070  0.3929 -1.2493
   98MOL   H47049164   7.305   6.826   5.660 -1.1596  3.2748  0.7792
   98MOL   H47149165   7.244   6.830   5.823 -1.8193 -0.0842 -1.5744
   98MOL   H47249166   7.534   6.823   5.767  2.4009  0.8918  2.4006
   98MOL   H47349167   7.457   6.960   5.830  0.5800  0.4605  0.4441
   98MOL   H47449168   7.467   6.699   6.001  2.4368  0.6882  1.0454
   98MOL   H47549169   7.548   6.857   6.017  0.2452  2.0631 -2.5171
   98MOL   H47649170   7.370   6.831   6.032 -1.9391 -1.2432 -3.6445
   98MOL   C47749171   7.115   6.306   6.009 -0.2694  0.6969 -0.1084
   98MOL   C47849172   7.042   6.443   6.023  0.8917  0.5322 -0.6538
   98MOL   O47949173   6.915   6.427   5.959  0.2930 -0.4336  0.0127
   98MOL   C48049174   6.838   6.546   5.945  0.1451  0.4331 -0.1260
   98MOL   C48149175   6.696   6.511   5.894 -0.1942 -0.1740  0.1583
   98MOL   C48249176   6.589   6.615   5.911  0.2036  0.0967  0.0262
   98MOL   C48349177   6.609   6.725   5.811  0.0083 -0.4710  0.5313
   98MOL   C48449178   6.483   6.818   5.806 -0.0091  0.9953  0.6778
   98MOL   C48549179   6.357   6.756   5.730  0.1053  0.7628 -0.3097
   98MOL   H48649180   7.053   6.237   6.065  0.5002 -0.8710 -1.1599
   98MOL   H48749181   7.207   6.320   6.065 -0.4540  0.6354  0.2104
   98MOL   H48849182   7.020   6.464   6.127 -0.3570 -0.8248 -0.6290
   98MOL   H48949183   6.878   6.619   5.875 -0.6878 -0.8194 -1.9521
   98MOL   H49049184   6.820   6.587   6.044  0.5622 -0.8530  0.4845
   98MOL   H49149185   6.665   6.423   5.951  0.7868 -0.4503  0.2824
   98MOL   H49249186   6.712   6.485   5.789  0.4531  2.7636 -0.5038
   98MOL   H49349187   6.496   6.565   5.886 -0.4167  0.7719  0.9468
   98MOL   H49449188   6.573   6.655   6.011 -1.9319 -1.5940  0.3956
   98MOL   H49549189   6.691   6.790   5.841 -1.5231  2.5297 -1.6027
   98MOL   H49649190   6.635   6.693   5.710 -0.4497  3.3291 -0.8889
   98MOL   H49749191   6.457   6.844   5.909  0.2216 -1.7149  1.4532
   98MOL   H49849192   6.504   6.915   5.762 -1.2204 -0.0231 -2.2779
   98MOL   H49949193   6.278   6.829   5.711 -1.7405 -1.2275 -0.4972
   98MOL   H50049194   6.398   6.715   5.638  1.1221  1.6564 -0.2616
   98MOL   H50149195   6.306   6.677   5.786  0.2556  2.1830  1.9179
   98MOL   H50249196   7.102   6.524   5.982 -2.7419  3.9781  0.4893
   99MOL     C149197   2.724   1.588   1.729 -0.5040  0.0465  0.4798
   99MOL     C249198   2.862   1.537   1.774 -0.4787  0.3059  0.1814
   99MOL     O349199   2.859   1.484   1.899 -0.1750  0.1343  0.0353
   99MOL     C449200   2.816   1.346   1.906 -0.0115  0.3008  0.4192
   99MOL     C549201   2.858   1.297   2.045 -0.0323 -0.3568  1.0483
   99MOL     C649202   2.791   1.161   2.088  0.5195 -0.0890  0.1816
   99MOL     C749203   2.829   1.129   2.228 -0.4856  0.0810 -0.0903
   99MOL     C849204   2.758   1.012   2.288 -0.1875  0.4757 -0.1167
   99MOL     C949205   2.822   0.965   2.420  1.0442  0.7055  0.1808
   99MOL    H1049206   2.697   1.672   1.792 -3.0794 -0.1641 -0.2616
   99MOL    H1149207   2.723   1.639   1.632 -2.6216  0.0330  0.4524
   99MOL    H1249208   2.882   1.463   1.697  3.7935  0.2341  1.2512
   99MOL    H1349209   2.866   1.283   1.832 -1.8519  0.3344 -0.8786
   99MOL    H1449210   2.708   1.336   1.892  0.4263 -0.2776 -3.1040
   99MOL    H1549211   2.849   1.370   2.125 -0.7660 -0.7795  1.3569
   99MOL    H1649212   2.965   1.281   2.031 -0.1535  0.6052 -1.0933
   99MOL    H1749213   2.682   1.165   2.093  0.6344  0.9130  2.5214
   99MOL    H1849214   2.820   1.079   2.021  1.9868 -0.3319  1.0833
   99MOL    H1949215   2.935   1.104   2.225 -0.3638  0.6416 -0.6213
   99MOL    H2049216   2.823   1.215   2.294  0.2068  0.0032  0.0742
   99MOL    H2149217   2.774   0.930   2.217  2.5392  0.1828  0.7815
   99MOL    H2249218   2.650   1.029   2.295 -0.4299 -0.3947 -1.5070
   99MOL    H2349219   2.929   0.945   2.426  0.8610  0.3832  3.0768
   99MOL    H2449220   2.789   1.026   2.504 -0.5095  0.5416 -0.2901
   99MOL    H2549221   2.770   0.872   2.445  0.0035  0.7563 -1.6840
   99MOL    H2649222   2.640   1.519   1.739 -0.1494 -0.5673 -0.6645
   99MOL    C2749223   2.962   1.654   1.776 -0.2963  0.2038  0.6191
   99MOL    C2849224   3.108   1.600   1.796 -0.0950 -0.9222 -0.5449
   99MOL    O2949225   3.131   1.505   1.693  0.4426  0.3846  0.0611
   99MOL    C3049226   3.222   1.405   1.731  0.4467  0.0415  0.3515
   99MOL    C3149227   3.233   1.288   1.640  0.4825 -0.1938  0.2434
   99MOL    C3249228   3.349   1.202   1.670 -0.1960 -0.8749  0.1206
   99MOL    C3349229   3.338   1.057   1.612  0.0168  0.5541  0.1650
   99MOL    C3449230   3.472   0.987   1.599  0.2153 -0.2178 -0.9906
   99MOL    C3549231   3.452   0.843   1.545 -0.0496 -0.0947 -0.9615
   99MOL    H3649232   2.961   1.713   1.685  0.2186  1.3651  1.3564
   99MOL    H3749233   2.928   1.728   1.848  0.4215  0.6359  0.5177
   99MOL    H3849234   3.104   1.547   1.891  0.5257  1.2694  0.7328
   99MOL    H3949235   3.198   1.367   1.830 -0.4620 -0.4593 -0.0586
   99MOL    H4049236   3.325   1.442   1.732  0.2135  0.7157 -0.1658
   99MOL    H4149237   3.225   1.318   1.536  0.9265 -0.0423  0.2550
   99MOL    H4249238   3.142   1.228   1.642  0.5720 -0.3129  1.4851
   99MOL    H4349239   3.434   1.254   1.627  0.1651 -0.8497  0.8705
   99MOL    H4449240   3.358   1.194   1.778 -0.1493  2.1261  0.3829
   99MOL    H4549241   3.277   0.998   1.680  0.2442 -0.3461 -0.4009
   99MOL    H4649242   3.291   1.056   1.514 -0.2966  0.8444  0.3119
   99MOL    H4749243   3.550   1.044   1.548  0.4144  0.8487  0.4779
   99MOL    H4849244   3.510   0.975   1.701  0.3051 -2.8232 -1.3002
   99MOL    H4949245   3.542   0.820   1.488 -0.5033 -0.6661 -1.4581
   99MOL    H5049246   3.445   0.771   1.626  1.2417  1.6340  0.7225
   99MOL    H5149247   3.372   0.828   1.472 -0.4763 -0.6357 -0.3792
   99MOL    C5249248   3.222   1.702   1.787  0.4099  0.2052  0.4903
   99MOL    C5349249   3.239   1.798   1.903 -0.1891 -0.1176  0.2030
   99MOL    O5449250   3.276   1.711   2.009  0.0269  0.1441  0.2595
   99MOL    C5549251   3.179   1.695   2.114  0.3579 -0.4056 -0.3654
   99MOL    C5649252   3.251   1.594   2.212 -0.6403 -0.9505 -0.8648
   99MOL    C5749253   3.383   1.653   2.271 -0.8099  0.3810  0.0353
   99MOL    C5849254   3.432   1.563   2.389 -0.0454  0.3172 -0.5932
   99MOL    C5949255   3.586   1.585   2.413 -0.6816  1.0929 -0.4689
   99MOL    C6049256   3.623   1.508   2.533  0.3234 -0.4604 -0.1271
   99MOL    H6149257   3.208   1.772   1.704 -2.6312  0.1078  0.8726
   99MOL    H6249258   3.313   1.646   1.768  0.5054 -0.1418  1.9189
   99MOL    H6349259   3.145   1.851   1.916 -0.5885 -0.4105 -1.3452
   99MOL    H6449260   3.089   1.646   2.076  0.5341 -1.1671  0.1854
   99MOL    H6549261   3.160   1.790   2.163 -2.1385 -0.0061 -2.0001
   99MOL    H6649262   3.270   1.496   2.169 -2.8811 -1.0048 -1.8405
   99MOL    H6749263   3.176   1.581   2.291 -0.5933 -0.0901 -0.6790
   99MOL    H6849264   3.458   1.654   2.192  0.3665  1.0246  1.1247
   99MOL    H6949265   3.367   1.751   2.315  0.2764  0.2698  0.6963
   99MOL    H7049266   3.373   1.579   2.479  1.7279  1.2867  0.4323
   99MOL    H7149267   3.426   1.457   2.365  0.8411  0.2463 -0.5262
   99MOL    H7249268   3.638   1.558   2.321  0.2037  0.2612  0.2624
   99MOL    H7349269   3.603   1.690   2.437  0.5290  0.2446  2.6654
   99MOL    H7449270   3.627   1.400   2.519 -0.4773 -0.3410 -1.3828
   99MOL    H7549271   3.718   1.526   2.582  0.2294 -3.5837  1.3423
   99MOL    H7649272   3.560   1.525   2.620 -1.2034  0.2119 -1.3368
   99MOL    C7749273   3.353   1.906   1.892  0.2330 -0.3410  0.7421
   99MOL    C7849274   3.333   2.023   1.987  0.8480 -0.1065 -0.3945
   99MOL    O7949275   3.230   2.101   1.928 -0.3490 -0.3902 -0.2281
   99MOL    C8049276   3.143   2.170   2.021  0.1379 -0.1898 -0.2459
   99MOL    C8149277   3.002   2.099   2.013  0.2004 -0.1395 -0.9393
   99MOL    C8249278   2.930   2.123   1.882  0.3503  0.6683 -0.1226
   99MOL    C8349279   2.780   2.131   1.898 -0.4468 -0.2202 -0.2515
   99MOL    C8449280   2.696   2.178   1.780  0.8961 -0.5548 -0.5768
   99MOL    C8549281   2.717   2.102   1.648  0.3800  1.0500 -0.1078
   99MOL    H8649282   3.369   1.952   1.795  1.8098  2.1749  2.1666
   99MOL    H8749283   3.447   1.854   1.911  1.2585  2.3490  3.5093
   99MOL    H8849284   3.303   1.983   2.084 -0.4221  0.1306 -0.6909
   99MOL    H8949285   3.125   2.276   2.003  3.8810  0.5606 -0.0368
   99MOL    H9049286   3.180   2.167   2.124  1.5667 -0.8147 -0.7665
   99MOL    H9149287   2.953   2.150   2.096 -1.8595 -0.7738 -1.7270
   99MOL    H9249288   3.004   1.992   2.035  2.1240 -0.0324 -0.4901
   99MOL    H9349289   2.960   2.217   1.837  0.4350 -0.7961 -3.2911
   99MOL    H9449290   2.949   2.048   1.805 -0.4399  0.7039 -0.3550
   99MOL    H9549291   2.730   2.041   1.935 -0.6676 -0.3457 -0.8456
   99MOL    H9649292   2.761   2.209   1.971  2.3962  1.3135 -1.0605
   99MOL    H9749293   2.595   2.174   1.820  0.5440 -1.0612 -1.5028
   99MOL    H9849294   2.718   2.284   1.762  0.6204 -0.3063  0.5243
   99MOL    H9949295   2.808   2.112   1.589  1.1282 -0.9206  0.6687
   99MOL   H10049296   2.717   1.995   1.672 -1.4922  0.9585 -0.4671
   99MOL   H10149297   2.639   2.117   1.574 -0.1644 -0.6191  0.0927
   99MOL   C10249298   3.467   2.111   1.984 -0.3996 -0.2672 -0.4000
   99MOL   C10349299   3.465   2.226   2.084  0.5378 -0.3365 -0.4810
   99MOL   O10449300   3.442   2.170   2.217  0.1891 -0.2236 -0.3128
   99MOL   C10549301   3.394   2.267   2.306 -0.1291  0.0017  0.2512
   99MOL   C10649302   3.344   2.200   2.436 -0.7694  0.1596 -0.2087
   99MOL   C10749303   3.277   2.071   2.413  0.4179  0.0346 -0.9238
   99MOL   C10849304   3.220   2.004   2.544 -0.3131 -0.2579 -0.1048
   99MOL   C10949305   3.149   1.870   2.536  0.5412 -0.8139  0.1024
   99MOL   C11049306   3.099   1.823   2.670  0.0391 -0.3983 -0.0839
   99MOL   H11149307   3.547   2.041   2.008 -0.0471 -0.2728 -1.5981
   99MOL   H11249308   3.484   2.148   1.883  0.1269  1.7377  0.3921
   99MOL   H11349309   3.383   2.290   2.053 -3.7441 -5.0466  0.4857
   99MOL   H11449310   3.312   2.320   2.258  0.9131  0.3756 -1.1444
   99MOL   H11549311   3.453   2.357   2.324  0.9746 -0.7749  0.5821
   99MOL   H11649312   3.278   2.271   2.486 -0.1283 -0.5129  1.6452
   99MOL   H11749313   3.433   2.189   2.498 -0.2795 -0.5241 -1.0414
   99MOL   H11849314   3.200   2.092   2.340 -0.7300  0.6198  0.4424
   99MOL   H11949315   3.352   2.010   2.360  0.5386 -0.3585 -0.3080
   99MOL   H12049316   3.314   1.990   2.597  0.2610 -1.0800 -1.3167
   99MOL   H12149317   3.167   2.081   2.600  1.3089  1.1138 -0.4225
   99MOL   H12249318   3.068   1.876   2.462 -0.3470 -1.9151  0.9765
   99MOL   H12349319   3.214   1.793   2.497 -0.5985 -0.8668 -1.7801
   99MOL   H12449320   3.025   1.888   2.717  1.9669 -0.1956  2.8021
   99MOL   H12549321   3.054   1.724   2.666 -0.9441  0.0900 -1.7489
   99MOL   H12649322   3.182   1.822   2.740 -0.5463 -0.5322  0.6115
   99MOL   C12749323   3.603   2.311   2.075  0.2547  0.2399  0.4945
   99MOL   C12849324   3.583   2.438   1.982  0.5488 -0.1058 -0.0433
   99MOL   O12949325   3.706   2.497   1.964 -0.3801  0.3920 -0.1996
   99MOL   C13049326   3.794   2.429   1.884 -0.6078 -0.6295  0.3431
   99MOL   C13149327   3.895   2.537   1.839  0.9171  0.0452  0.0771
   99MOL   C13249328   3.991   2.584   1.951 -0.1993 -0.2594 -0.3796
   99MOL   C13349329   4.112   2.664   1.881  0.2769 -0.4181 -0.1049
   99MOL   C13449330   4.176   2.755   1.989 -0.2035  0.0475 -0.3246
   99MOL   C13549331   4.267   2.682   2.096 -0.4485 -0.7388 -0.4274
   99MOL   H13649332   3.642   2.360   2.164 -2.4707  1.3869  1.1164
   99MOL   H13749333   3.676   2.241   2.036  0.4771  0.9870 -0.4546
   99MOL   H13849334   3.536   2.408   1.888 -0.1157 -0.4014  0.3789
   99MOL   H13949335   3.745   2.384   1.798 -0.5482 -0.4693  0.2237
   99MOL   H14049336   3.846   2.355   1.944 -2.3551 -0.6921  1.8124
   99MOL   H14149337   3.854   2.621   1.783  2.7897  1.6076  0.9711
   99MOL   H14249338   3.956   2.493   1.760  1.5137  1.0492 -0.0303
   99MOL   H14349339   3.940   2.655   2.016  1.2869  0.6457 -0.1890
   99MOL   H14449340   4.032   2.511   2.020 -1.4148 -0.9317 -0.3492
   99MOL   H14549341   4.189   2.595   1.846  0.6210 -0.7127  1.2242
   99MOL   H14649342   4.068   2.724   1.801 -0.2854  0.1509  0.6168
   99MOL   H14749343   4.235   2.831   1.938  0.5931  0.3322  0.9969
   99MOL   H14849344   4.100   2.809   2.045 -2.9087 -3.1951 -0.6780
   99MOL   H14949345   4.318   2.758   2.156  0.4791 -1.4970 -0.2563
   99MOL   H15049346   4.210   2.624   2.168 -1.9927  1.3666  0.1091
   99MOL   H15149347   4.341   2.614   2.055  0.4309  0.5868 -1.1006
   99MOL   C15249348   3.498   2.560   2.053  0.2372 -0.1136  0.1754
   99MOL   C15349349   3.469   2.684   1.966  0.7977 -0.3392  0.3449
   99MOL   O15449350   3.394   2.651   1.852  0.2728  0.1444  0.0903
   99MOL   C15549351   3.260   2.611   1.872  0.1141 -0.0604 -0.7582
   99MOL   C15649352   3.220   2.536   1.744  0.9564  0.1648  1.2504
   99MOL   C15749353   3.072   2.504   1.721  0.6375 -0.0103 -0.2733
   99MOL   C15849354   3.043   2.468   1.576 -0.4149 -0.1421  0.4400
   99MOL   C15949355   2.895   2.440   1.560  0.0667  0.2180  0.8174
   99MOL   C16049356   2.859   2.455   1.410  0.3080 -0.4742  0.0245
   99MOL   H16149357   3.413   2.515   2.105 -0.3446  1.1290  0.3262
   99MOL   H16249358   3.572   2.587   2.129  0.7256 -2.4073  0.5279
   99MOL   H16349359   3.564   2.719   1.924  0.3737  0.0056 -0.3342
   99MOL   H16449360   3.189   2.690   1.895  0.8464  0.0235  1.4197
   99MOL   H16549361   3.256   2.527   1.942 -0.4446 -0.5818 -1.4225
   99MOL   H16649362   3.270   2.439   1.749  0.2543 -0.3447 -1.1828
   99MOL   H16749363   3.264   2.589   1.659  1.0129  0.1091  1.2443
   99MOL   H16849364   3.053   2.421   1.790 -0.6945  0.8974  0.4853
   99MOL   H16949365   3.012   2.586   1.760  3.5638  0.7156  2.9362
   99MOL   H17049366   3.074   2.552   1.515 -1.2668 -0.3257 -0.2707
   99MOL   H17149367   3.105   2.385   1.541 -0.2739  0.7333 -1.4676
   99MOL   H17249368   2.876   2.342   1.604 -0.0908  0.4284  1.2199
   99MOL   H17349369   2.839   2.514   1.616 -1.7564 -2.5573  2.8109
   99MOL   H17449370   2.901   2.381   1.342  0.8037  1.3268 -1.6645
   99MOL   H17549371   2.750   2.457   1.413  0.2899  0.1964 -0.7313
   99MOL   H17649372   2.875   2.552   1.364 -0.4940  0.2059  1.1625
   99MOL   C17749373   3.392   2.799   2.043  0.4193 -0.0573 -0.2839
   99MOL   C17849374   3.374   2.927   1.969  0.2019 -0.1561  0.7201
   99MOL   O17949375   3.254   2.924   1.890  0.0850 -0.3392 -0.9826
   99MOL   C18049376   3.267   2.913   1.750 -0.4013  0.2209  0.1583
   99MOL   C18149377   3.133   2.897   1.676 -0.2326 -0.6778  0.1910
   99MOL   C18249378   3.140   2.871   1.528  0.3482  0.1513 -0.4474
   99MOL   C18349379   2.991   2.857   1.473 -0.5392  0.0672 -0.5709
   99MOL   C18449380   2.988   2.821   1.327  0.4206  0.1611  0.1548
   99MOL   C18549381   2.845   2.823   1.269 -0.4858 -0.5594  0.1390
   99MOL   H18649382   3.294   2.768   2.078  1.8184 -2.4214  1.6849
   99MOL   H18749383   3.447   2.818   2.135  1.4633 -2.1958 -0.4261
   99MOL   H18849384   3.457   2.938   1.899  0.4129 -0.1327  0.9774
   99MOL   H18949385   3.342   2.844   1.712 -0.5669  0.6616 -1.0000
   99MOL   H19049386   3.298   3.012   1.714 -0.2092 -0.1614 -0.7491
   99MOL   H19149387   3.063   2.980   1.686 -1.6435 -1.8687  0.3127
   99MOL   H19249388   3.094   2.802   1.711  0.0566 -1.5310 -1.7680
   99MOL   H19349389   3.192   2.953   1.478  2.1496  0.0424  1.2029
   99MOL   H19449390   3.183   2.775   1.502  0.8797  0.1414  0.4479
   99MOL   H19549391   2.944   2.783   1.537  0.9394 -0.3639  0.0393
   99MOL   H19649392   2.943   2.955   1.476  0.7416  0.6899 -0.4128
   99MOL   H19749393   3.040   2.901   1.275 -1.8974  1.9037  0.4817
   99MOL   H19849394   3.034   2.724   1.306 -1.4321 -1.1600  1.9469
   99MOL   H19949395   2.837   2.784   1.167  0.3058  0.7830 -0.4504
   99MOL   H20049396   2.774   2.795   1.347  0.8714  1.7704  2.2918
   99MOL   H20149397   2.818   2.927   1.249 -0.9252 -0.8839 -1.0334
   99MOL   C20249398   3.362   3.063   2.044  0.3935  0.3039  0.5645
   99MOL   C20349399   3.352   3.197   1.971 -0.2688 -0.2829  0.3009
   99MOL   O20449400   3.480   3.237   1.946  0.2292 -0.0518 -0.0395
   99MOL   C20549401   3.502   3.303   1.820  0.3525  0.6889  0.1368
   99MOL   C20649402   3.641   3.357   1.809  1.0170 -0.5056 -0.0630
   99MOL   C20749403   3.670   3.457   1.921  0.6426  0.9234  0.2248
   99MOL   C20849404   3.813   3.504   1.915 -0.1871 -0.6556  0.2810
   99MOL   C20949405   3.829   3.625   2.007 -0.3895  0.2676  0.3819
   99MOL   C21049406   3.969   3.696   2.000  0.4423  0.7075 -0.3223
   99MOL   H21149407   3.273   3.056   2.107  2.0376 -1.0826  2.7831
   99MOL   H21249408   3.438   3.069   2.122  1.1035  0.0978 -0.1051
   99MOL   H21349409   3.295   3.178   1.880  1.7356  2.7997 -1.6591
   99MOL   H21449410   3.427   3.381   1.806  0.4653  1.0747  1.6525
   99MOL   H21549411   3.492   3.223   1.746  0.6772 -0.4797  1.3493
   99MOL   H21649412   3.658   3.392   1.707 -1.0739 -0.3256 -0.3641
   99MOL   H21749413   3.718   3.282   1.829  2.8894  1.5170  0.4924
   99MOL   H21849414   3.604   3.541   1.902  0.0966  0.1847 -1.2211
   99MOL   H21949415   3.644   3.415   2.019  0.1275 -1.1743 -0.7826
   99MOL   H22049416   3.890   3.428   1.932  0.5323 -0.5616 -2.3306
   99MOL   H22149417   3.839   3.549   1.819 -0.8408 -1.3345 -0.2249
   99MOL   H22249418   3.749   3.691   1.975  0.0038  0.2940 -0.5610
   99MOL   H22349419   3.801   3.606   2.111  2.1512 -2.2858  0.6567
   99MOL   H22449420   4.035   3.621   2.044 -1.9580 -0.9843  0.4864
   99MOL   H22549421   3.991   3.708   1.894 -2.4989 -0.0487 -1.0737
   99MOL   H22649422   3.996   3.785   2.056  0.9922 -0.3626  1.1649
   99MOL   C22749423   3.282   3.317   2.042 -0.4669  0.0784 -0.6479
   99MOL   C22849424   3.135   3.292   2.086 -0.2478 -0.0781  0.0525
   99MOL   O22949425   3.083   3.410   2.154  0.0291  0.0444 -0.4346
   99MOL   C23049426   3.058   3.526   2.073  0.3107  0.2746  0.6900
   99MOL   C23149427   2.986   3.633   2.159 -0.0814 -0.1698  0.6172
   99MOL   C23249428   2.989   3.762   2.080 -0.1473 -0.1641  0.7118
   99MOL   C23349429   2.971   3.887   2.167  0.3960 -0.0733  0.2280
   99MOL   C23449430   2.971   4.010   2.082  0.2100 -0.1911  0.0479
   99MOL   C23549431   2.993   4.137   2.155 -0.8374 -0.0142 -0.3997
   99MOL   H23649432   3.350   3.346   2.123 -3.1272  0.5150  1.5211
   99MOL   H23749433   3.283   3.407   1.981 -3.2640 -0.4394 -1.5242
   99MOL   H23849434   3.136   3.220   2.168 -2.0204  1.3087  1.3531
   99MOL   H23949435   2.990   3.506   1.990 -0.8099  2.0017  1.1567
   99MOL   H24049436   3.156   3.565   2.044  0.1312  2.1203  2.4553
   99MOL   H24149437   3.045   3.646   2.250  1.8842 -0.5059 -0.5889
   99MOL   H24249438   2.882   3.604   2.177 -0.2196 -0.0354  0.0406
   99MOL   H24349439   3.078   3.773   2.018 -1.6378  0.9433 -1.2728
   99MOL   H24449440   2.918   3.764   1.998 -0.8505  1.2443  1.3443
   99MOL   H24549441   2.873   3.892   2.215  0.4337  1.2878  0.1603
   99MOL   H24649442   3.051   3.895   2.241  0.8652  2.6921 -0.5426
   99MOL   H24749443   3.051   4.000   2.008  1.6738 -0.3732  1.6140
   99MOL   H24849444   2.870   4.014   2.040  0.8210  2.6153 -1.2934
   99MOL   H24949445   2.899   4.178   2.192 -0.2039  0.2383  0.9354
   99MOL   H25049446   3.051   4.124   2.246 -4.8367  1.7678  2.5475
   99MOL   H25149447   3.032   4.217   2.093 -1.3128  2.5399  2.4813
   99MOL   C25249448   3.041   3.245   1.977 -0.7237  1.0891  0.2967
   99MOL   C25349449   2.900   3.222   2.030  0.1481  0.2400 -0.1919
   99MOL   O25449450   2.923   3.090   2.077  0.0009 -0.1571  0.2274
   99MOL   C25549451   2.843   3.051   2.188  0.3542 -0.1269  0.1029
   99MOL   C25649452   2.855   2.898   2.207 -0.3634  0.4667 -0.9096
   99MOL   C25749453   2.994   2.846   2.237 -0.3659  0.5611 -0.3972
   99MOL   C25849454   2.993   2.702   2.275  0.8251  0.5440 -0.2157
   99MOL   C25949455   3.133   2.641   2.313  0.0955 -0.1864 -0.5538
   99MOL   C26049456   3.127   2.516   2.399 -0.2962  0.1517  0.8782
   99MOL   H26149457   3.039   3.315   1.894 -0.5200  1.1437  0.3356
   99MOL   H26249458   3.071   3.149   1.935 -0.2688  1.4965 -0.3161
   99MOL   H26349459   2.877   3.298   2.104 -0.0854 -1.2009  1.2531
   99MOL   H26449460   2.740   3.078   2.166  0.5219  1.8690  1.6277
   99MOL   H26549461   2.867   3.093   2.286  2.1811 -2.2462  0.6040
   99MOL   H26649462   2.823   2.844   2.118  0.0741 -2.7194  0.7906
   99MOL   H26749463   2.780   2.860   2.276  0.2521 -2.1276 -1.6189
   99MOL   H26849464   3.052   2.859   2.146  1.5282 -0.9094  0.5813
   99MOL   H26949465   3.038   2.907   2.316 -0.6203 -0.6908  0.7127
   99MOL   H27049466   2.935   2.684   2.365  1.5155 -1.3344 -0.1248
   99MOL   H27149467   2.940   2.648   2.198  0.6600  1.5563 -0.8206
   99MOL   H27249468   3.182   2.603   2.224 -0.7275 -2.1836 -0.1775
   99MOL   H27349469   3.201   2.714   2.357 -3.5735  1.3169  3.0529
   99MOL   H27449470   3.078   2.432   2.348  0.4161  1.0818 -1.3899
   99MOL   H27549471   3.224   2.483   2.435 -0.1122  0.9089  1.0767
   99MOL   H27649472   3.069   2.544   2.487 -0.9352 -0.3513  0.6284
   99MOL   C27749473   2.801   3.213   1.918 -0.5676  0.0797  0.1545
   99MOL   C27849474   2.757   3.349   1.852  0.4714  0.4466 -0.4228
   99MOL   O27949475   2.662   3.299   1.758  0.0272  0.2883 -0.9697
   99MOL   C28049476   2.724   3.279   1.635  0.1728 -0.1065 -0.8271
   99MOL   C28149477   2.647   3.167   1.564 -0.1826  0.1623  0.1614
   99MOL   C28249478   2.649   3.038   1.642  0.4356 -0.6597  0.0462
   99MOL   C28349479   2.539   2.939   1.594  0.6032  0.1009 -0.5248
   99MOL   C28449480   2.544   2.811   1.670 -0.7292  0.5340 -0.4339
   99MOL   C28549481   2.492   2.692   1.596  0.2209 -0.1461  0.2620
   99MOL   H28649482   2.839   3.150   1.838 -0.8860  0.7859 -0.5581
   99MOL   H28749483   2.711   3.164   1.954 -0.6536 -1.9792 -2.7096
   99MOL   H28849484   2.842   3.391   1.797  1.4797 -0.3098  0.5429
   99MOL   H28949485   2.828   3.244   1.639  0.7527  1.7340  0.7823
   99MOL   H29049486   2.721   3.371   1.576 -2.6022  1.7012  1.9804
   99MOL   H29149487   2.693   3.158   1.465 -0.1899  0.3341  0.1417
   99MOL   H29249488   2.544   3.198   1.542 -0.2888  0.4690  1.0595
   99MOL   H29349489   2.749   3.000   1.620  0.9013 -0.6019  1.9309
   99MOL   H29449490   2.638   3.059   1.748 -1.4450  0.3225 -0.3348
   99MOL   H29549491   2.439   2.981   1.602 -0.2430 -1.8548 -0.7670
   99MOL   H29649492   2.564   2.927   1.489 -0.5453  2.1414 -1.0645
   99MOL   H29749493   2.646   2.789   1.702 -1.1284 -0.2591  0.3304
   99MOL   H29849494   2.501   2.818   1.770  2.0513  0.9860  0.7771
   99MOL   H29949495   2.550   2.677   1.505  0.8280  1.3257  0.3812
   99MOL   H30049496   2.506   2.599   1.651 -3.5885 -0.9067  0.1007
   99MOL   H30149497   2.385   2.695   1.575  0.2440  2.2514  0.2631
   99MOL   C30249498   2.688   3.448   1.949 -0.0663 -0.5563  0.5020
   99MOL   C30349499   2.626   3.575   1.883 -0.3790 -0.8443 -0.3182
   99MOL   O30449500   2.726   3.636   1.805  0.3722  0.1118 -0.1123
   99MOL   C30549501   2.689   3.690   1.676 -0.4509  0.4637 -0.2906
   99MOL   C30649502   2.806   3.744   1.596  0.5191 -0.6120  0.0627
   99MOL   C30749503   2.861   3.871   1.647  0.2639 -0.3394 -0.3093
   99MOL   C30849504   2.983   3.915   1.555  0.6335  0.0802 -0.7530
   99MOL   C30949505   3.077   4.031   1.608  0.0670 -0.1389  0.4935
   99MOL   C31049506   3.196   4.058   1.516 -0.0229 -0.7758  0.7124
   99MOL   H31149507   2.605   3.407   2.006 -1.9893  2.2911 -0.1310
   99MOL   H31249508   2.753   3.475   2.033 -0.7031  1.9134  0.2249
   99MOL   H31349509   2.546   3.548   1.814 -0.6119 -0.4010 -0.2213
   99MOL   H31449510   2.614   3.769   1.674 -0.0963  0.8692  1.6843
   99MOL   H31549511   2.644   3.607   1.623 -0.3904  0.2804 -0.0560
   99MOL   H31649512   2.779   3.750   1.491 -5.0882  0.6493  1.3912
   99MOL   H31749513   2.877   3.661   1.598 -0.0281 -1.1026 -0.9829
   99MOL   H31849514   2.787   3.951   1.648 -1.2030 -1.6503 -0.9551
   99MOL   H31949515   2.893   3.858   1.751  0.2246  0.2554 -0.2231
   99MOL   H32049516   3.049   3.831   1.535 -1.5499 -2.0994  0.9540
   99MOL   H32149517   2.950   3.940   1.454 -1.6104  0.2605 -0.0151
   99MOL   H32249518   3.028   4.125   1.633  0.7950  0.2448  0.4916
   99MOL   H32349519   3.123   3.997   1.701 -2.8864 -0.7732  1.7673
   99MOL   H32449520   3.251   3.964   1.518 -1.5370 -1.6873 -0.0389
   99MOL   H32549521   3.160   4.093   1.420 -1.7963  1.4974  2.1607
   99MOL   H32649522   3.261   4.138   1.553 -0.8278 -0.3871  1.3125
   99MOL   C32749523   2.568   3.666   2.003 -0.0716  0.1080  0.1733
   99MOL   C32849524   2.504   3.796   1.947 -0.3091 -0.0004  0.0862
   99MOL   O32949525   2.399   3.825   2.033  0.4433  0.4140 -0.0485
   99MOL   C33049526   2.278   3.872   1.981  0.7810 -0.5882 -0.5271
   99MOL   C33149527   2.161   3.774   2.011  0.3578 -0.3836 -0.5293
   99MOL   C33249528   2.035   3.819   1.935  0.4443  0.0799  0.4643
   99MOL   C33349529   1.927   3.714   1.949  1.1240  0.1007 -0.2769
   99MOL   C33449530   1.790   3.770   1.902 -0.5570 -0.0550 -0.9540
   99MOL   C33549531   1.690   3.669   1.848 -0.7406 -0.4000  0.4439
   99MOL   H33649532   2.632   3.692   2.087  0.1134 -0.7155  0.2947
   99MOL   H33749533   2.482   3.620   2.052 -1.2152 -0.4340 -2.2315
   99MOL   H33849534   2.467   3.770   1.848 -1.0693 -0.7191  0.5600
   99MOL   H33949535   2.285   3.890   1.873  0.9169  0.0121 -0.4219
   99MOL   H34049536   2.268   3.973   2.021  0.8953 -1.0936  0.7784
   99MOL   H34149537   2.142   3.764   2.118 -0.3843 -2.6375 -0.8369
   99MOL   H34249538   2.191   3.675   1.974  0.3361 -1.0011  1.0718
   99MOL   H34349539   1.987   3.910   1.969 -2.1179 -1.3709  0.8956
   99MOL   H34449540   2.061   3.831   1.830  2.2960  1.8350  1.0862
   99MOL   H34549541   1.953   3.635   1.878  2.0387  1.3050 -1.2916
   99MOL   H34649542   1.920   3.666   2.047  0.6419  0.0871 -0.3143
   99MOL   H34749543   1.738   3.831   1.975  3.6300  0.0349  2.1358
   99MOL   H34849544   1.814   3.827   1.811 -0.5952  1.3578 -0.0949
   99MOL   H34949545   1.609   3.718   1.796 -0.5830 -0.5614  0.0445
   99MOL   H35049546   1.743   3.600   1.783 -1.1910 -0.3026 -0.0298
   99MOL   H35149547   1.649   3.624   1.938 -0.3152 -2.1812 -0.2272
   99MOL   C35249548   2.597   3.923   1.944 -0.3488 -0.1552 -0.0665
   99MOL   C35349549   2.550   4.041   1.855  0.6314  0.1819 -0.8052
   99MOL   O35449550   2.537   3.992   1.721  0.2263 -0.2780 -0.7416
   99MOL   C35549551   2.439   4.053   1.641  0.2350  0.3387  0.4543
   99MOL   C35649552   2.489   4.029   1.501 -0.5191 -0.1019  0.6265
   99MOL   C35749553   2.595   4.122   1.450 -0.7425 -0.4322  0.2353
   99MOL   C35849554   2.611   4.107   1.298  0.4882  0.0782  0.1230
   99MOL   C35949555   2.695   4.209   1.236  0.3201  0.2203 -0.3666
   99MOL   C36049556   2.838   4.209   1.295  0.2912  0.5835 -0.0894
   99MOL   H36149557   2.634   3.955   2.041 -2.6589  0.6222  0.5915
   99MOL   H36249558   2.693   3.893   1.902  0.9150  3.5050  0.0242
   99MOL   H36349559   2.451   4.077   1.885  0.5736 -1.0888  0.5896
   99MOL   H36449560   2.430   4.162   1.652 -1.6939  0.1404  1.0292
   99MOL   H36549561   2.344   4.000   1.649  0.6787 -0.8178 -1.6032
   99MOL   H36649562   2.405   4.038   1.432 -1.5068  2.2558  2.0759
   99MOL   H36749563   2.525   3.926   1.497 -0.4389 -0.0332 -0.7931
   99MOL   H36849564   2.566   4.226   1.467  1.5079  0.2198  0.2090
   99MOL   H36949565   2.685   4.110   1.510 -0.8583  2.8416  1.1549
   99MOL   H37049566   2.637   4.002   1.281  0.6575  0.0909  0.3124
   99MOL   H37149567   2.511   4.118   1.255  0.7691 -0.3132 -0.6367
   99MOL   H37249568   2.694   4.201   1.127 -3.1488  1.0658 -0.4589
   99MOL   H37349569   2.655   4.309   1.254  0.9359  0.4167 -0.0550
   99MOL   H37449570   2.892   4.299   1.265  1.6072 -0.5488 -1.1806
   99MOL   H37549571   2.848   4.216   1.403 -3.3234  1.0396  0.2636
   99MOL   H37649572   2.905   4.136   1.249 -1.0717 -1.2128  0.7228
   99MOL   C37749573   2.656   4.150   1.872 -0.2579 -0.7294 -0.5020
   99MOL   C37849574   2.623   4.287   1.814 -0.8501 -0.0756  0.9439
   99MOL   O37949575   2.731   4.369   1.852  0.2818  0.2041 -0.2473
   99MOL   C38049576   2.816   4.378   1.739  1.1215  0.1463  0.0195
   99MOL   C38149577   2.942   4.467   1.770  0.0959 -0.8165  0.0887
   99MOL   C38249578   2.871   4.604   1.796 -0.5587 -0.2556  0.0096
   99MOL   C38349579   2.825   4.688   1.665 -0.5759 -0.3326  0.2482
   99MOL   C38449580   2.949   4.772   1.594 -0.0217  0.5587 -0.0599
   99MOL   C38549581   2.901   4.826   1.455 -0.6582  0.8632 -0.3604
   99MOL   H38649582   2.687   4.154   1.976  3.6235  0.1504 -1.6081
   99MOL   H38749583   2.740   4.107   1.817 -0.0602 -0.9731 -0.0073
   99MOL   H38849584   2.600   4.287   1.708  0.2435  0.4755  0.6976
   99MOL   H38949585   2.772   4.404   1.643  0.6715 -1.8189 -0.3128
   99MOL   H39049586   2.849   4.278   1.713 -1.1547 -0.7781  0.5738
   99MOL   H39149587   3.013   4.475   1.688 -0.8728  0.5799 -0.6448
   99MOL   H39249588   2.978   4.419   1.861  0.1829 -4.3683 -1.7536
   99MOL   H39349589   2.788   4.582   1.863  0.4535  0.1656  1.4100
   99MOL   H39449590   2.945   4.669   1.842 -0.7645  0.4321 -0.6190
   99MOL   H39549591   2.766   4.622   1.601  0.6930 -0.3253 -0.9536
   99MOL   H39649592   2.754   4.763   1.700 -0.0004  0.0550  0.5886
   99MOL   H39749593   2.985   4.853   1.657 -1.7635  1.1362  0.2077
   99MOL   H39849594   3.029   4.701   1.572 -1.9935 -1.7589 -0.0694
   99MOL   H39949595   2.820   4.898   1.461 -0.1741  1.6190 -2.4517
   99MOL   H40049596   2.978   4.891   1.415 -0.7204  0.6848 -0.7730
   99MOL   H40149597   2.867   4.749   1.386 -1.0227  0.8738 -0.1934
   99MOL   C40249598   2.496   4.352   1.881 -0.2074 -0.4651  0.2752
   99MOL   C40349599   2.443   4.487   1.832  0.1702 -0.5876 -0.1052
   99MOL   O40449600   2.365   4.553   1.934  1.0278  0.1224 -0.4199
   99MOL   C40549601   2.412   4.671   1.992 -0.4405  0.4826 -1.0827
   99MOL   C40649602   2.314   4.728   2.094 -0.0558  0.7568 -0.5392
   99MOL   C40749603   2.179   4.766   2.038 -0.8435  0.1154  0.2428
   99MOL   C40849604   2.094   4.838   2.139  0.5373  0.3605 -0.5624
   99MOL   C40949605   1.966   4.900   2.079  0.5145 -0.4955  0.2501
   99MOL   C41049606   1.881   4.983   2.169  0.3762  0.3792 -0.3121
   99MOL   H41149607   2.525   4.376   1.984 -0.0035  1.1150 -0.1386
   99MOL   H41249608   2.406   4.290   1.877 -0.8385  0.0684  4.3357
   99MOL   H41349609   2.528   4.548   1.801  0.4887 -1.0702 -0.1861
   99MOL   H41449610   2.417   4.735   1.903 -0.4045 -0.0045 -1.4341
   99MOL   H41549611   2.518   4.658   2.017 -0.8694 -2.8085 -0.7994
   99MOL   H41649612   2.368   4.803   2.151 -0.5387  0.1242  0.7741
   99MOL   H41749613   2.288   4.644   2.159 -2.8253  0.4758 -1.9298
   99MOL   H41849614   2.187   4.824   1.946 -1.6501  0.3674  0.3300
   99MOL   H41949615   2.132   4.671   2.011 -0.5559 -0.4714  1.7439
   99MOL   H42049616   2.070   4.778   2.226  0.5056  0.0950 -0.7549
   99MOL   H42149617   2.156   4.916   2.183 -0.0892  0.5417 -0.0109
   99MOL   H42249618   1.996   4.958   1.992 -0.7483  0.5007  0.4631
   99MOL   H42349619   1.920   4.812   2.034  0.9457 -0.4204 -0.3433
   99MOL   H42449620   1.813   5.038   2.105 -0.3520  1.1662  1.1179
   99MOL   H42549621   1.820   4.928   2.240 -1.1864  0.4109 -1.5919
   99MOL   H42649622   1.949   5.061   2.205 -0.5364  0.9705  0.1318
   99MOL   C42749623   2.354   4.448   1.707  0.3386 -0.4112 -0.0066
   99MOL   C42849624   2.312   4.575   1.629  0.2238  0.4652 -0.1782
   99MOL   O42949625   2.330   4.544   1.489 -0.7820  0.4424 -0.1182
   99MOL   C43049626   2.442   4.616   1.432  0.4999  0.2890  0.2859
   99MOL   C43149627   2.443   4.601   1.282  0.3127 -0.0733  0.3693
   99MOL   C43249628   2.564   4.659   1.220  0.4511 -0.2110  0.2701
   99MOL   C43349629   2.558   4.668   1.069  0.1275  0.1591 -0.4267
   99MOL   C43449630   2.696   4.680   1.013  0.2989  0.9295 -0.2149
   99MOL   C43549631   2.695   4.690   0.869 -0.3493 -0.2846  0.1918
   99MOL   H43649632   2.407   4.382   1.637 -1.9489  0.0461 -2.2272
   99MOL   H43749633   2.264   4.393   1.734 -1.6258  2.1830 -0.9999
   99MOL   H43849634   2.365   4.663   1.665  0.5687  0.5466 -0.8734
   99MOL   H43949635   2.526   4.563   1.477 -0.2949 -1.1626  0.0802
   99MOL   H44049636   2.448   4.722   1.457 -0.3532  0.2128  0.8488
   99MOL   H44149637   2.362   4.659   1.237  1.7223  0.7736 -1.1515
   99MOL   H44249638   2.414   4.502   1.244  0.3033 -0.0673  0.3613
   99MOL   H44349639   2.578   4.760   1.259  0.8860  0.1519 -0.7791
   99MOL   H44449640   2.651   4.604   1.255  1.4741  2.4808  2.1636
   99MOL   H44549641   2.518   4.574   1.030 -0.5863 -1.8675  4.8425
   99MOL   H44649642   2.499   4.753   1.034 -0.2256  0.8318  1.7287
   99MOL   H44749643   2.745   4.771   1.050  0.4930  0.0874  1.6452
   99MOL   H44849644   2.762   4.599   1.045  0.3857  1.6104  1.3726
   99MOL   H44949645   2.627   4.760   0.822 -0.4995 -0.4878  0.1066
   99MOL   H45049646   2.790   4.733   0.837 -0.6848  0.9499  0.8358
   99MOL   H45149647   2.700   4.597   0.813 -1.2127 -1.4172  1.9322
   99MOL   C45249648   2.164   4.593   1.640 -0.1240 -0.4237 -0.4003
   99MOL   C45349649   2.100   4.727   1.595  0.2219  0.2084 -0.5465
   99MOL   O45449650   1.958   4.711   1.615 -0.1129  0.1020 -0.2798
   99MOL   C45549651   1.907   4.782   1.725  0.5128 -0.0427 -0.0466
   99MOL   C45649652   1.756   4.765   1.729 -0.1737 -0.5490  0.2856
   99MOL   C45749653   1.700   4.818   1.860  0.6891  0.9972 -0.6633
   99MOL   C45849654   1.546   4.840   1.878  0.1959 -0.7343 -0.2305
   99MOL   C45949655   1.462   4.724   1.822 -0.5847  0.4202 -0.3751
   99MOL   C46049656   1.428   4.733   1.671  0.5571 -0.3626 -0.6743
   99MOL   H46149657   2.121   4.522   1.569  0.0366  0.0195 -0.9412
   99MOL   H46249658   2.124   4.570   1.739 -2.2635 -1.1773 -1.4122
   99MOL   H46349659   2.141   4.814   1.646 -1.5943  0.2504  0.8935
   99MOL   H46449660   1.934   4.888   1.721 -1.0866  0.3437 -1.0070
   99MOL   H46549661   1.956   4.735   1.810  0.9899 -0.5667 -0.6089
   99MOL   H46649662   1.721   4.662   1.720 -0.1687 -0.3395 -2.6996
   99MOL   H46749663   1.720   4.817   1.640  2.0543  0.5031 -0.0324
   99MOL   H46849664   1.731   4.740   1.930 -2.0133 -2.0186 -2.6700
   99MOL   H46949665   1.751   4.910   1.889  2.1953  0.4203 -1.4497
   99MOL   H47049666   1.523   4.845   1.984 -1.1186  0.9460 -0.5789
   99MOL   H47149667   1.517   4.934   1.830 -1.2989 -0.2098  1.6324
   99MOL   H47249668   1.524   4.634   1.824 -1.8510 -0.4396  0.5844
   99MOL   H47349669   1.365   4.718   1.871 -1.0617  0.7189 -1.2892
   99MOL   H47449670   1.350   4.659   1.653  1.0878 -0.8669 -0.9208
   99MOL   H47549671   1.393   4.832   1.639  0.7530  0.4482  1.5459
   99MOL   H47649672   1.515   4.699   1.616  1.2433  1.5763 -0.8284
   99MOL   C47749673   2.101   4.756   1.443  0.2149  0.4257  0.0130
   99MOL   C47849674   2.006   4.863   1.392  0.0701 -0.0302  0.0543
   99MOL   O47949675   2.086   4.987   1.397 -0.1607 -0.5220  0.0222
   99MOL   C48049676   2.023   5.098   1.321  0.6949  0.4545 -0.7428
   99MOL   C48149677   1.910   5.163   1.400  1.0554 -0.3800 -0.0114
   99MOL   C48249678   1.945   5.193   1.543  0.5874 -0.2084 -0.2133
   99MOL   C48349679   1.827   5.223   1.633 -0.1426  0.2900  0.6721
   99MOL   C48449680   1.857   5.231   1.784  0.1894 -0.2382  0.5480
   99MOL   C48549681   1.726   5.220   1.864  0.2005 -0.8239  0.2539
   99MOL   H48649682   2.201   4.780   1.409  1.0028  0.7244  2.4537
   99MOL   H48749683   2.053   4.671   1.393  0.1404  1.2443 -1.3424
   99MOL   H48849684   1.970   4.846   1.290 -2.3544  0.0804  0.8681
   99MOL   H48949685   1.988   5.073   1.221  0.7533 -0.5398 -0.5231
   99MOL   H49049686   2.090   5.181   1.299  0.2469  0.3289 -2.7061
   99MOL   H49149687   1.814   5.111   1.401  0.6472  0.3392 -1.3133
   99MOL   H49249688   1.874   5.248   1.343 -1.6242 -1.2067  0.3865
   99MOL   H49349689   2.002   5.111   1.588  0.8625 -0.6337 -1.3354
   99MOL   H49449690   2.010   5.279   1.561  2.1752 -1.1651 -1.3039
   99MOL   H49549691   1.779   5.313   1.595 -0.9892 -0.2986  0.3282
   99MOL   H49649692   1.752   5.145   1.616 -1.5566  1.8216 -0.2911
   99MOL   H49749693   1.919   5.147   1.816  5.4427  2.3124 -2.4061
   99MOL   H49849694   1.896   5.331   1.800  0.3805 -0.6402  2.7916
   99MOL   H49949695   1.668   5.133   1.834 -0.1684 -0.0187 -1.4636
   99MOL   H50049696   1.739   5.221   1.972 -0.3158  0.9938  0.3195
   99MOL   H50149697   1.662   5.307   1.848  2.0926  0.3581 -0.9974
   99MOL   H50249698   1.919   4.891   1.452 -0.1212  1.5312 -0.9018
   7.77840   7.77840   7.77840
