Control file title. For DL_FIELD 4.10
49852
    1MOL     C1    1   2.394   4.273   3.577 -0.0779 -0.6074 -0.4961
    1MOL     C2    2   2.276   4.214   3.494 -0.0754  0.2798 -0.5698
    1MOL     C3    3   2.136   4.245   3.552 -0.1343  0.3477  0.2773
    1MOL     O4    4   2.030   4.185   3.529 -0.6475  0.0548 -0.5648
    1MOL     O5    5   2.142   4.352   3.635 -0.3252 -0.0237  0.3382
    1MOL     C6    6   2.025   4.396   3.698  0.2647  0.0875 -0.1774
    1MOL     H7    7   2.378   4.264   3.684  0.4620 -0.5797 -0.4145
    1MOL     H8    8   2.406   4.378   3.548 -1.8935 -0.0858  0.5248
    1MOL     H9    9   2.291   4.107   3.512 -1.4163  0.1605 -0.0803
    1MOL    H10   10   1.999   4.337   3.786  2.0847 -1.3733 -0.5904
    1MOL    H11   11   1.942   4.394   3.627  0.2512 -1.5218 -0.1413
    1MOL    H12   12   2.055   4.499   3.717 -0.0987  0.2858 -0.6740
    1MOL    H13   13   2.490   4.224   3.562  1.6858  2.4681  0.4265
    1MOL    C14   14   2.294   4.226   3.340 -0.2191  0.9218  0.4760
    1MOL    C15   15   2.201   4.138   3.257  0.2162 -0.6871 -0.5072
    1MOL    C16   16   2.207   4.181   3.106 -0.3994  0.4337  0.5416
    1MOL    O17   17   2.109   4.226   3.044 -0.3854 -0.3274  0.1282
    1MOL    O18   18   2.334   4.161   3.040 -0.0028 -0.4561  0.1480
    1MOL    C19   19   2.357   4.221   2.916 -0.2016  0.8202 -0.5033
    1MOL    H20   20   2.278   4.331   3.313  1.0854  1.0884  0.3571
    1MOL    H21   21   2.397   4.209   3.311 -0.5003  1.0698 -0.6367
    1MOL    H22   22   2.099   4.163   3.283  0.7439  0.9874  0.0033
    1MOL    H23   23   2.450   4.181   2.876 -1.3017 -1.4598 -0.8304
    1MOL    H24   24   2.375   4.328   2.925  0.0483  0.8843 -1.7708
    1MOL    H25   25   2.284   4.207   2.837 -0.3249  4.4841 -1.1452
    1MOL    C26   26   2.225   3.985   3.272  0.4203  0.1415  0.5680
    1MOL    C27   27   2.120   3.891   3.190  0.2658 -1.0698 -0.0195
    1MOL    C28   28   2.166   3.751   3.171 -0.2260  0.3393 -0.0598
    1MOL    O29   29   2.186   3.702   3.058 -0.1672 -0.2909  0.4370
    1MOL    O30   30   2.182   3.676   3.286  0.6895 -0.4535 -0.5484
    1MOL    C31   31   2.202   3.537   3.268  0.1747 -0.2829 -0.0788
    1MOL    H32   32   2.332   3.973   3.252  0.6255 -0.5967  2.0327
    1MOL    H33   33   2.211   3.963   3.378 -1.3287 -0.3751  0.2319
    1MOL    H34   34   2.117   3.939   3.092 -1.8882 -1.1298  0.0018
    1MOL    H35   35   2.107   3.497   3.235 -0.3114 -0.7139  1.7804
    1MOL    H36   36   2.243   3.483   3.354  0.7086  0.6162  0.2403
    1MOL    H37   37   2.267   3.514   3.184  1.1436 -0.3417  0.6709
    1MOL    C38   38   1.975   3.888   3.241 -0.0472  0.2024 -0.0607
    1MOL    C39   39   1.858   3.847   3.149  0.0601  0.3231 -0.4459
    1MOL    C40   40   1.872   3.931   3.024  0.9422  0.1388 -0.1376
    1MOL    O41   41   1.830   4.043   3.019  0.4692 -0.1141  0.0802
    1MOL    O42   42   1.946   3.876   2.931  0.4151  0.0670  0.2289
    1MOL    C43   43   2.006   3.955   2.836  0.1040  0.5135 -0.3458
    1MOL    H44   44   1.968   3.830   3.333 -2.2004  2.3900  1.2028
    1MOL    H45   45   1.950   3.987   3.278 -0.1616  0.1239  0.0728
    1MOL    H46   46   1.765   3.884   3.192 -0.5322 -0.0469 -1.3879
    1MOL    H47   47   1.926   3.995   2.774  0.6749  3.2179  0.6069
    1MOL    H48   48   2.073   3.890   2.779  0.2705 -0.5898  1.0669
    1MOL    H49   49   2.068   4.026   2.891  1.5173  1.1048 -2.6755
    1MOL    C50   50   1.828   3.697   3.125  0.4740 -0.6173 -0.2704
    1MOL    C51   51   1.680   3.662   3.096  0.1646 -0.8305  0.5400
    1MOL    C52   52   1.615   3.715   2.965 -0.6306 -0.2849  0.0489
    1MOL    O53   53   1.651   3.673   2.854 -0.2846 -0.3611  0.0939
    1MOL    O54   54   1.529   3.799   2.987  0.0285 -0.4173 -0.0437
    1MOL    C55   55   1.480   3.884   2.885  0.3704  0.3337  0.4813
    1MOL    H56   56   1.890   3.667   3.040  0.0886 -1.0212 -0.4106
    1MOL    H57   57   1.866   3.636   3.207  0.1010  2.2626  2.1491
    1MOL    H58   58   1.629   3.716   3.176  0.2031 -0.0083  0.0175
    1MOL    H59   59   1.381   3.860   2.847 -0.0291 -0.1333  1.8128
    1MOL    H60   60   1.544   3.880   2.797 -1.1219  1.9777 -0.7035
    1MOL    H61   61   1.467   3.983   2.929 -2.4143  0.1703  0.1131
    1MOL    C62   62   1.654   3.512   3.105 -0.2520  0.5912 -0.0865
    1MOL    C63   63   1.519   3.443   3.094 -0.2214 -0.4803  0.7536
    1MOL    C64   64   1.532   3.289   3.087 -0.4006 -0.1605 -0.0746
    1MOL    O65   65   1.537   3.217   3.190 -0.3373 -0.2053  0.0488
    1MOL    O66   66   1.516   3.242   2.969 -0.1195  0.6551 -0.3327
    1MOL    C67   67   1.529   3.102   2.943  0.1379 -0.2947  0.2926
    1MOL    H68   68   1.719   3.465   3.031  1.3946 -0.1240  1.7724
    1MOL    H69   69   1.696   3.491   3.203  0.4000  0.3423 -0.4182
    1MOL    H70   70   1.474   3.471   2.999  0.0705 -1.3719  0.3519
    1MOL    H71   71   1.453   3.052   3.003  1.3641 -0.7321  1.4994
    1MOL    H72   72   1.626   3.064   2.975 -1.0539 -2.6314  1.2399
    1MOL    H73   73   1.521   3.075   2.838  0.2627 -2.2063  0.7546
    1MOL    C74   74   1.416   3.493   3.199  0.1666  1.0544  0.3703
    1MOL    C75   75   1.270   3.479   3.157  0.5258 -0.0118  0.4178
    1MOL    C76   76   1.199   3.378   3.252  0.3375 -0.9947  0.6023
    1MOL    O77   77   1.145   3.275   3.208  0.2302  0.3575  0.1895
    1MOL    O78   78   1.184   3.426   3.381 -0.7137 -0.3013  0.0489
    1MOL    C79   79   1.143   3.344   3.483  0.7651  0.1585  0.0954
    1MOL    H80   80   1.435   3.441   3.293 -0.2121  1.2512  0.5575
    1MOL    H81   81   1.443   3.594   3.229  0.2046  1.1778 -0.0853
    1MOL    H82   82   1.266   3.435   3.058 -1.8511 -2.0969  1.3706
    1MOL    H83   83   1.052   3.288   3.459  2.1440 -2.3259  0.5214
    1MOL    H84   84   1.142   3.403   3.575  1.4353  0.2714  0.0327
    1MOL    H85   85   1.220   3.268   3.495  0.9066  0.4821  1.2734
    1MOL    C86   86   1.187   3.609   3.160 -0.2006 -0.2967  0.2514
    1MOL    C87   87   1.046   3.600   3.089  0.2561  0.5411  0.3712
    1MOL    C88   88   0.935   3.685   3.167 -0.1953 -0.3933 -0.5270
    1MOL    O89   89   0.825   3.641   3.206 -0.5327  0.4583  0.1931
    1MOL    O90   90   0.971   3.804   3.180 -0.3341 -0.1664  0.0818
    1MOL    C91   91   0.901   3.893   3.261 -0.0742 -0.0303  0.6140
    1MOL    H92   92   1.174   3.640   3.264  3.2763  0.8128  0.4136
    1MOL    H93   93   1.236   3.692   3.109 -0.8514 -0.7709 -1.1741
    1MOL    H94   94   1.014   3.496   3.096  0.7151  0.3457 -0.3237
    1MOL    H95   95   0.968   3.976   3.282  0.8423 -0.6870  0.3340
    1MOL    H96   96   0.859   3.845   3.349  1.0633 -2.0853  0.0959
    1MOL    H97   97   0.815   3.930   3.206 -0.0308 -0.1114  0.4894
    1MOL    C98   98   1.052   3.633   2.935  0.3861 -0.1504 -0.0854
    1MOL    C99   99   1.139   3.551   2.845 -0.3782 -0.6292 -0.3432
    1MOL   C100  100   1.070   3.419   2.821  0.3910  0.5840 -0.5811
    1MOL   O101  101   1.015   3.395   2.711 -0.2948 -0.1252 -0.7868
    1MOL   O102  102   1.088   3.331   2.922  0.1438 -0.7705 -0.0691
    1MOL   C103  103   1.053   3.196   2.902  0.1831 -0.0300  0.1927
    1MOL   H104  104   0.954   3.659   2.897  0.7364 -0.2602 -1.0771
    1MOL   H105  105   1.099   3.732   2.933  0.4761 -0.2279 -2.7094
    1MOL   H106  106   1.237   3.540   2.891 -0.6082 -1.4750 -0.0398
    1MOL   H107  107   0.957   3.191   2.851 -0.8058  2.1979  1.7512
    1MOL   H108  108   1.051   3.141   2.995  0.0579  1.6770  1.2233
    1MOL   H109  109   1.130   3.148   2.841 -1.8790 -1.7121 -1.1497
    1MOL   C110  110   1.195   3.622   2.714  0.0496 -0.3932 -0.0306
    1MOL   C111  111   1.325   3.553   2.655  0.9393 -0.3170 -0.0688
    1MOL   C112  112   1.315   3.426   2.574  0.2414 -0.5125  0.0929
    1MOL   O113  113   1.226   3.409   2.495  0.2318 -0.3421  0.3348
    1MOL   O114  114   1.423   3.346   2.579  0.2534 -0.4156  0.0886
    1MOL   C115  115   1.436   3.234   2.495  0.3713  0.6400 -0.5651
    1MOL   H116  116   1.104   3.621   2.653 -0.0023 -0.2232  0.0450
    1MOL   H117  117   1.208   3.723   2.751  0.7001 -0.5901  0.2890
    1MOL   H118  118   1.388   3.521   2.739  0.7759  1.5886  0.8227
    1MOL   H119  119   1.532   3.185   2.510  0.3109  0.7008  0.0457
    1MOL   H120  120   1.423   3.264   2.391  0.1939  0.2311 -0.6643
    1MOL   H121  121   1.357   3.159   2.506  0.9070  0.1396 -0.0789
    1MOL   C122  122   1.413   3.655   2.579 -0.0220 -0.0619 -0.5972
    1MOL   C123  123   1.350   3.729   2.466 -0.3442  0.0095  0.5293
    1MOL   C124  124   1.291   3.870   2.495  0.2192 -0.1550 -0.9237
    1MOL   O125  125   1.328   3.941   2.600  0.0212 -0.3817  0.1392
    1MOL   O126  126   1.212   3.911   2.397  0.6169 -0.1920  0.2647
    1MOL   C127  127   1.156   4.042   2.403  0.1657  0.0499  0.0837
    1MOL   H128  128   1.444   3.726   2.655 -3.4699  1.1423 -0.2078
    1MOL   H129  129   1.505   3.605   2.551 -0.2422  1.0753 -3.5477
    1MOL   H130  130   1.266   3.669   2.433 -0.2290 -2.0785  3.7547
    1MOL   H131  131   1.195   4.100   2.320  2.9192 -1.9502 -0.1248
    1MOL   H132  132   1.185   4.092   2.495 -0.1163  0.4942 -0.0693
    1MOL   H133  133   1.048   4.027   2.398  0.3482 -1.1176 -0.6457
    1MOL   C134  134   1.438   3.745   2.342  0.6960  0.3606 -0.0526
    1MOL   C135  135   1.469   3.618   2.259 -0.0013 -0.3356  0.6144
    1MOL   C136  136   1.351   3.570   2.175  0.1932 -0.2291 -0.4002
    1MOL   O137  137   1.303   3.641   2.087 -0.2021  0.3448 -0.4221
    1MOL   O138  138   1.304   3.450   2.215  0.9726 -0.1445  0.5358
    1MOL   C139  139   1.192   3.390   2.151 -0.1115  0.1069  0.1234
    1MOL   H140  140   1.395   3.822   2.278 -4.0771 -1.6161  0.5706
    1MOL   H141  141   1.534   3.785   2.375  0.9712  0.7974 -1.3500
    1MOL   H142  142   1.500   3.542   2.331 -0.3437 -2.2871 -1.2262
    1MOL   H143  143   1.239   3.352   2.061 -1.4168 -1.4792  0.0964
    1MOL   H144  144   1.108   3.456   2.129 -0.1222  0.1275  0.2268
    1MOL   H145  145   1.161   3.299   2.202  0.2516 -1.4994 -2.4619
    1MOL   C146  146   1.599   3.637   2.167  0.5517 -0.6591 -0.4138
    1MOL   C147  147   1.716   3.564   2.232  0.0823  0.4482 -0.3508
    1MOL   C148  148   1.704   3.410   2.227  0.0883  0.1778 -0.5941
    1MOL   O149  149   1.717   3.338   2.326  0.2246  0.4460  0.2784
    1MOL   O150  150   1.685   3.360   2.105  0.2501 -0.1701  0.2968
    1MOL   C151  151   1.646   3.228   2.090 -0.3082  0.1065  0.3262
    1MOL   H152  152   1.585   3.592   2.069 -4.5860 -0.9557  0.3160
    1MOL   H153  153   1.623   3.743   2.156  0.5302 -0.5929  0.1503
    1MOL   H154  154   1.716   3.585   2.339  0.7073 -0.5003 -0.1554
    1MOL   H155  155   1.555   3.219   2.150 -0.1107 -2.0385  0.3399
    1MOL   H156  156   1.722   3.158   2.124  1.2403  2.8963  2.7750
    1MOL   H157  157   1.629   3.199   1.987 -4.0793  0.2292  0.8238
    1MOL   C158  158   1.853   3.608   2.177 -0.3203 -0.1550 -0.0513
    1MOL   C159  159   1.889   3.754   2.208  0.8518 -0.1535  0.1515
    1MOL   C160  160   1.886   3.782   2.359 -0.6314 -0.1585 -0.4287
    1MOL   O161  161   1.867   3.898   2.406  0.3819 -0.8261 -0.5486
    1MOL   O162  162   1.921   3.676   2.442  0.6493  0.2085 -0.6089
    1MOL   C163  163   1.922   3.692   2.586  0.4452 -0.2246 -0.1080
    1MOL   H164  164   1.932   3.545   2.218  0.5931  0.6345 -0.5768
    1MOL   H165  165   1.854   3.606   2.068 -1.2598  0.0661 -0.0740
    1MOL   H166  166   1.817   3.820   2.161  2.1188  1.6866  0.7412
    1MOL   H167  167   1.978   3.613   2.635  0.7716 -0.1895 -0.4260
    1MOL   H168  168   1.821   3.713   2.622  0.4644  1.2711 -0.8596
    1MOL   H169  169   1.970   3.785   2.618 -2.1009  0.7979  0.8799
    1MOL   C170  170   2.018   3.804   2.137  0.3781 -0.2799 -0.6206
    1MOL   C171  171   2.138   3.710   2.143 -0.3792 -0.0219 -0.2777
    1MOL   C172  172   2.150   3.623   2.019 -0.3568  0.2496  0.0902
    1MOL   O173  173   2.156   3.503   2.033  0.3246 -0.0389  0.0287
    1MOL   O174  174   2.171   3.693   1.902  0.1210  0.2681  0.0606
    1MOL   C175  175   2.181   3.619   1.784 -0.2693 -0.1007 -0.4021
    1MOL   H176  176   2.000   3.830   2.033  0.5370 -0.2337 -0.6368
    1MOL   H177  177   2.042   3.902   2.178  2.3304 -0.9937 -0.0098
    1MOL   H178  178   2.124   3.648   2.232  0.2618  2.4086  1.5813
    1MOL   H179  179   2.126   3.681   1.713 -1.0287  0.1625  0.4194
    1MOL   H180  180   2.128   3.525   1.793 -0.4160 -0.0029 -0.2268
    1MOL   H181  181   2.286   3.607   1.754 -0.1466  0.7709 -0.3415
    1MOL   C182  182   2.278   3.772   2.191  1.0182  0.2389  0.2160
    1MOL   C183  183   2.281   3.821   2.335  0.4050  0.1189 -0.2600
    1MOL   C184  184   2.267   3.702   2.436 -0.4887 -0.2727 -0.0460
    1MOL   O185  185   2.287   3.580   2.405 -0.2233  0.1429 -0.0801
    1MOL   O186  186   2.252   3.743   2.558  0.3589 -0.3027  0.5969
    1MOL   C187  187   2.253   3.649   2.659 -0.7181 -0.6450  0.6520
    1MOL   H188  188   2.361   3.703   2.175  0.0307 -0.9341  0.1225
    1MOL   H189  189   2.294   3.858   2.125 -1.0961 -1.4606 -2.6224
    1MOL   H190  190   2.194   3.882   2.356  1.2230  0.9801  0.6688
    1MOL   H191  191   2.194   3.687   2.742 -0.7249 -0.5722  0.6132
    1MOL   H192  192   2.358   3.637   2.688  0.7579  3.1478 -2.7380
    1MOL   H193  193   2.219   3.551   2.624  1.2259 -0.7661 -0.9987
    1MOL   C194  194   2.412   3.901   2.369 -0.2649 -0.3061  0.2186
    1MOL   C195  195   2.388   4.023   2.471  0.1804  0.2429 -0.9176
    1MOL   C196  196   2.477   4.023   2.597 -0.5536  0.1063  0.2254
    1MOL   O197  197   2.562   4.109   2.623  0.7505 -0.1701 -0.0969
    1MOL   O198  198   2.451   3.921   2.677  0.0167 -0.0092 -0.3568
    1MOL   C199  199   2.497   3.911   2.814  0.0342  0.3221  0.7043
    1MOL   H200  200   2.478   3.833   2.423 -0.5079 -1.4147 -0.8561
    1MOL   H201  201   2.460   3.933   2.277  1.3162  3.1026  2.1457
    1MOL   H202  202   2.287   4.013   2.512  0.6632 -1.0297 -0.0134
    1MOL   H203  203   2.511   3.805   2.834  0.7933  0.2555 -0.1370
    1MOL   H204  204   2.426   3.954   2.885  1.0227  0.4327  1.6323
    1MOL   H205  205   2.596   3.958   2.813 -0.2811  0.9898  0.5566
    1MOL   C206  206   2.398   4.157   2.389 -0.0851 -0.0418  0.0178
    1MOL   C207  207   2.348   4.285   2.459 -0.3976 -0.5594  0.1734
    1MOL   C208  208   2.450   4.398   2.465 -0.2369  0.0985  0.2696
    1MOL   O209  209   2.481   4.450   2.575  0.1655 -0.0465  0.1206
    1MOL   O210  210   2.500   4.429   2.342  0.0689 -0.2118  0.1187
    1MOL   C211  211   2.578   4.553   2.329  0.4719  0.1272  0.0172
    1MOL   H212  212   2.498   4.166   2.346  0.4628 -0.4857  1.1792
    1MOL   H213  213   2.351   4.142   2.291  1.0798 -1.9986 -0.2745
    1MOL   H214  214   2.335   4.262   2.565  2.6298  0.7207  0.8753
    1MOL   H215  215   2.513   4.632   2.366 -2.5135 -1.9607 -0.5239
    1MOL   H216  216   2.607   4.570   2.225  0.4343  0.1928  0.0168
    1MOL   H217  217   2.666   4.558   2.392 -0.5782 -0.5630  1.5727
    1MOL   C218  218   2.221   4.347   2.384 -0.1451 -0.4680  0.2466
    1MOL   C219  219   2.100   4.256   2.378  0.1131  0.2629  0.5933
    1MOL   C220  220   2.066   4.210   2.518  0.8221  0.1026 -0.3958
    1MOL   O221  221   2.078   4.098   2.560 -0.1515 -0.3810 -0.6034
    1MOL   O222  222   2.016   4.315   2.595  0.1024 -0.1237 -0.9340
    1MOL   C223  223   1.998   4.312   2.734 -0.7873  0.0925  0.4883
    1MOL   H224  224   2.202   4.441   2.436  0.8526  1.0988 -2.0972
    1MOL   H225  225   2.248   4.378   2.283 -1.7198  5.6172  1.4882
    1MOL   H226  226   2.128   4.177   2.307  0.9026 -1.9227  3.2665
    1MOL   H227  227   2.083   4.258   2.775  2.0284  2.8978 -1.4424
    1MOL   H228  228   1.906   4.265   2.769 -0.3333 -1.6282 -0.5567
    1MOL   H229  229   1.998   4.410   2.781  1.4034  0.1752  0.3545
    1MOL   C230  230   1.980   4.316   2.296 -0.0623  0.6953  0.2509
    1MOL   C231  231   1.859   4.227   2.288  1.0649 -0.2329 -0.3424
    1MOL   C232  232   1.837   4.141   2.160 -0.3845 -0.1879  0.0669
    1MOL   O233  233   1.918   4.126   2.069 -0.5723 -0.1685 -0.3142
    1MOL   O234  234   1.706   4.096   2.148  0.2114  0.0170 -0.0240
    1MOL   C235  235   1.674   4.029   2.033 -0.1833  0.5169 -0.5000
    1MOL   H236  236   1.937   4.402   2.346 -1.8019  0.6273 -1.0800
    1MOL   H237  237   2.015   4.348   2.198 -1.8163  0.6130 -0.4171
    1MOL   H238  238   1.768   4.285   2.302  1.6685  0.5718  0.3042
    1MOL   H239  239   1.569   4.003   2.024 -1.0566  4.2345 -1.7885
    1MOL   H240  240   1.736   3.940   2.037 -0.6012  0.2424 -0.0787
    1MOL   H241  241   1.703   4.082   1.942 -2.7743  0.4693 -1.3900
    1MOL   H242  242   1.848   4.152   2.367  0.5216 -0.6731 -0.8229
    2MOL     C1  243   6.753   1.313   1.332  0.0615 -0.6508  0.5005
    2MOL     C2  244   6.698   1.322   1.475  0.6769 -0.1713  0.2913
    2MOL     C3  245   6.558   1.265   1.476  0.2878  0.7557  0.1808
    2MOL     O4  246   6.523   1.183   1.390 -0.0010  0.0111 -0.0915
    2MOL     O5  247   6.479   1.303   1.576  0.4255  0.4719  0.0316
    2MOL     C6  248   6.353   1.248   1.593  0.4391  0.0391  0.4280
    2MOL     H7  249   6.675   1.337   1.260 -1.1078 -2.2673  1.2137
    2MOL     H8  250   6.786   1.210   1.317 -1.5839 -0.8832 -1.6818
    2MOL     H9  251   6.699   1.422   1.517  1.5865  0.4736 -1.2332
    2MOL    H10  252   6.366   1.141   1.608 -0.7806 -0.3924 -1.5217
    2MOL    H11  253   6.294   1.265   1.504 -0.8960  0.6497  1.4073
    2MOL    H12  254   6.296   1.298   1.671 -2.4032 -2.4899  0.0491
    2MOL    H13  255   6.832   1.388   1.322 -0.2351 -0.1496  1.8054
    2MOL    C14  256   6.795   1.252   1.578  0.0888 -0.0389  0.4768
    2MOL    C15  257   6.832   1.099   1.575  0.4747 -0.0277  0.2513
    2MOL    C16  258   6.968   1.090   1.649 -0.5069  0.7190 -0.3422
    2MOL    O17  259   7.061   1.046   1.589 -0.5605  0.1629 -0.4199
    2MOL    O18  260   6.965   1.145   1.773 -0.1822 -0.3717 -0.3545
    2MOL    C19  261   7.090   1.152   1.841 -0.5027 -0.1248  0.3791
    2MOL    H20  262   6.889   1.308   1.578  0.6882 -1.0321  1.1190
    2MOL    H21  263   6.761   1.273   1.679  0.0701 -0.2064  0.5045
    2MOL    H22  264   6.848   1.068   1.472 -0.4432 -0.8809  0.3581
    2MOL    H23  265   7.083   1.184   1.946  0.5024  0.2861  0.3235
    2MOL    H24  266   7.144   1.224   1.780  1.3814 -1.1663  0.7810
    2MOL    H25  267   7.140   1.055   1.842  0.2139  0.1758 -2.3028
    2MOL    C26  268   6.717   1.007   1.625 -0.2430  0.3921  0.0703
    2MOL    C27  269   6.752   0.852   1.629  0.2539 -1.0545 -0.2156
    2MOL    C28  270   6.645   0.771   1.714  0.5999  0.6627  0.5007
    2MOL    O29  271   6.531   0.822   1.731  0.2494  0.2109 -0.3400
    2MOL    O30  272   6.686   0.652   1.752 -0.1907 -0.5419 -0.5070
    2MOL    C31  273   6.596   0.572   1.829  0.2130 -0.6926 -0.1629
    2MOL    H32  274   6.699   1.040   1.728 -0.3063 -0.4191  0.3186
    2MOL    H33  275   6.626   1.034   1.571  1.0815  1.3728 -1.6863
    2MOL    H34  276   6.842   0.832   1.687 -0.5054 -2.6412  0.4399
    2MOL    H35  277   6.516   0.537   1.765  0.7194  0.6050 -1.5320
    2MOL    H36  278   6.544   0.637   1.899 -0.3090 -1.2494 -0.0342
    2MOL    H37  279   6.658   0.493   1.872  0.8897  0.6232  1.3236
    2MOL    C38  280   6.754   0.786   1.488 -0.4442 -0.7314 -0.5967
    2MOL    C39  281   6.888   0.799   1.413  0.7543 -0.0184 -0.3457
    2MOL    C40  282   7.001   0.724   1.489  0.3982 -1.1283  0.6115
    2MOL    O41  283   6.995   0.682   1.602  0.0830  0.0399  0.1156
    2MOL    O42  284   7.112   0.737   1.419 -0.2081 -0.0112  0.6338
    2MOL    C43  285   7.241   0.724   1.477 -0.8460  0.3766  0.7459
    2MOL    H44  286   6.726   0.681   1.499 -0.0840 -0.8972 -1.2036
    2MOL    H45  287   6.685   0.846   1.429 -1.1125 -0.3729  0.5377
    2MOL    H46  288   6.922   0.900   1.435 -0.9783  0.4214  0.4028
    2MOL    H47  289   7.260   0.616   1.479  0.1838  0.4668 -2.0683
    2MOL    H48  290   7.234   0.774   1.574 -2.8467 -0.6934  1.1805
    2MOL    H49  291   7.322   0.768   1.421 -0.7461 -1.5160 -0.6537
    2MOL    C50  292   6.873   0.776   1.264 -0.3967 -0.7420  0.2936
    2MOL    C51  293   6.887   0.906   1.180  0.0697  0.4971 -0.4098
    2MOL    C52  294   7.024   0.967   1.196  0.7885 -0.2541  0.2619
    2MOL    O53  295   7.043   1.062   1.270 -0.0074 -0.5804 -0.7922
    2MOL    O54  296   7.121   0.892   1.132 -0.5473 -0.0582  0.1605
    2MOL    C55  297   7.255   0.927   1.139 -0.2783  0.1558 -0.1065
    2MOL    H56  298   6.947   0.705   1.228 -0.3425  0.2339 -1.5878
    2MOL    H57  299   6.776   0.733   1.241 -0.8950 -0.2464  1.4448
    2MOL    H58  300   6.820   0.981   1.222 -0.2140 -1.4575  2.8077
    2MOL    H59  301   7.282   0.896   1.240  1.2258  1.5395 -0.0647
    2MOL    H60  302   7.282   1.028   1.108  0.3391 -0.0892 -0.3757
    2MOL    H61  303   7.310   0.866   1.067  0.1866  1.6035 -0.9968
    2MOL    C62  304   6.859   0.881   1.022  0.0041 -0.2922  0.0089
    2MOL    C63  305   6.717   0.887   0.964  0.5167 -0.0018 -0.3241
    2MOL    C64  306   6.642   1.012   1.012  0.1253  0.1637 -0.5886
    2MOL    O65  307   6.566   1.014   1.112  0.3475 -0.5620  0.0663
    2MOL    O66  308   6.672   1.127   0.938  0.0077  0.1790  0.2011
    2MOL    C67  309   6.613   1.252   0.965 -0.0884 -0.1884 -0.8396
    2MOL    H68  310   6.929   0.950   0.975 -0.8025  0.8147  0.4212
    2MOL    H69  311   6.888   0.777   1.005 -1.8909 -0.6310 -1.3287
    2MOL    H70  312   6.668   0.801   1.009 -3.7022  1.9591 -0.9559
    2MOL    H71  313   6.689   1.330   0.965 -1.2311  0.9564  0.6604
    2MOL    H72  314   6.549   1.266   1.052 -1.0459  0.8407 -1.6979
    2MOL    H73  315   6.559   1.277   0.874  1.4514  1.1792 -1.3918
    2MOL    C74  316   6.703   0.869   0.812  0.0020  0.0030  0.0942
    2MOL    C75  317   6.562   0.877   0.751 -0.1710  0.2674 -0.6820
    2MOL    C76  318   6.577   0.896   0.602  0.1358 -0.5445  0.4146
    2MOL    O77  319   6.597   1.009   0.553 -0.1648 -0.1814  0.2509
    2MOL    O78  320   6.552   0.782   0.527 -0.4688 -0.2169 -0.4096
    2MOL    C79  321   6.544   0.791   0.389  0.4600 -0.0894 -0.3787
    2MOL    H80  322   6.766   0.944   0.766  1.9147  0.6374  3.6335
    2MOL    H81  323   6.744   0.772   0.785  1.3392  0.9465 -1.3538
    2MOL    H82  324   6.526   0.967   0.801  3.6081 -0.0365  2.9560
    2MOL    H83  325   6.477   0.870   0.355 -0.7213 -0.4797  0.9911
    2MOL    H84  326   6.517   0.690   0.358  0.7695  0.5930 -3.0220
    2MOL    H85  327   6.642   0.808   0.344 -0.6193  0.5600 -2.5660
    2MOL    C86  328   6.468   0.760   0.802 -0.5356 -1.0056  0.2476
    2MOL    C87  329   6.382   0.788   0.935  0.7054  0.3260 -0.0441
    2MOL    C88  330   6.279   0.892   0.904  0.1118  0.2963 -0.1874
    2MOL    O89  331   6.264   0.934   0.792  0.0366  0.2196  0.5982
    2MOL    O90  332   6.206   0.927   1.014 -0.0582 -0.1476  0.6739
    2MOL    C91  333   6.082   0.984   0.999 -0.0715  0.0824 -0.6151
    2MOL    H92  334   6.395   0.730   0.727 -0.6682 -1.8875  0.7145
    2MOL    H93  335   6.540   0.679   0.816  1.6208  0.6013 -1.2437
    2MOL    H94  336   6.448   0.825   1.014  0.9760 -0.7958  0.2578
    2MOL    H95  337   6.067   1.025   0.898 -0.8246  1.6527  0.1081
    2MOL    H96  338   6.073   1.063   1.074 -1.0390  0.0096 -0.6486
    2MOL    H97  339   6.008   0.907   1.020 -0.1029 -0.0286 -1.1204
    2MOL    C98  340   6.308   0.655   0.973  0.0560  0.2241 -0.1674
    2MOL    C99  341   6.407   0.543   1.026  0.5762 -0.0507 -0.5813
    2MOL   C100  342   6.491   0.590   1.142  0.4269  0.0135  0.2818
    2MOL   O101  343   6.611   0.572   1.146  0.0889 -0.1476  0.7053
    2MOL   O102  344   6.407   0.649   1.232 -0.2529  0.5936  0.0062
    2MOL   C103  345   6.458   0.731   1.336  0.4065  0.4134 -0.0394
    2MOL   H104  346   6.238   0.674   1.055  0.0346  0.1079 -0.1587
    2MOL   H105  347   6.268   0.610   0.882  0.6959 -2.1533  0.6791
    2MOL   H106  348   6.489   0.522   0.956  0.6480  1.5054 -0.9900
    2MOL   H107  349   6.510   0.672   1.411 -0.5966 -1.4880 -0.8236
    2MOL   H108  350   6.369   0.776   1.381 -1.0695 -0.3309 -2.1568
    2MOL   H109  351   6.534   0.795   1.291  1.6726 -1.1719 -0.1994
    2MOL   C110  352   6.328   0.420   1.067 -0.0562  0.6275 -0.2120
    2MOL   C111  353   6.406   0.297   1.110  0.1739 -0.7560 -0.5087
    2MOL   C112  354   6.318   0.195   1.194 -0.7795 -0.9559  0.4767
    2MOL   O113  355   6.245   0.241   1.282 -0.1304  0.0847 -0.7208
    2MOL   O114  356   6.316   0.068   1.148  0.4528 -0.2329  0.1901
    2MOL   C115  357   6.225   7.909   1.210 -0.2390 -0.3788  0.6104
    2MOL   H116  358   6.259   0.444   1.148 -0.8473  0.6234 -0.8664
    2MOL   H117  359   6.262   0.397   0.983  0.0132  1.4013 -0.4916
    2MOL   H118  360   6.476   0.331   1.186 -1.2705  0.3607  0.3351
    2MOL   H119  361   6.139   0.019   1.261  0.4242  0.1341  1.2966
    2MOL   H120  362   6.272   7.842   1.282  1.1619 -1.3480 -1.1630
    2MOL   H121  363   6.184   7.853   1.125 -0.3643  2.6655 -1.4005
    2MOL   C122  364   6.489   0.243   0.993 -0.6094  0.6479  0.7348
    2MOL   C123  365   6.616   0.160   1.031 -0.3502  0.0716 -0.0014
    2MOL   C124  366   6.693   0.111   0.911  0.5552 -0.0821  0.1290
    2MOL   O125  367   6.691   7.923   0.889  0.1169 -0.4367 -0.2584
    2MOL   O126  368   6.757   0.209   0.838  0.0090  0.4352 -0.2036
    2MOL   C127  369   6.825   0.169   0.715  0.4086 -0.4325 -0.0997
    2MOL   H128  370   6.415   0.184   0.940  0.6017 -1.1300  0.9838
    2MOL   H129  371   6.526   0.322   0.927  0.0465 -0.4270 -0.2018
    2MOL   H130  372   6.568   0.072   1.074 -1.1050 -0.0563 -1.0802
    2MOL   H131  373   6.770   0.102   0.648 -0.5144  1.2993 -1.0980
    2MOL   H132  374   6.927   0.130   0.720  1.7955  3.0896  0.5435
    2MOL   H133  375   6.846   0.255   0.652  0.0624 -0.8063 -0.7308
    2MOL   C134  376   6.713   0.226   1.133  0.5393  0.1016 -0.2568
    2MOL   C135  377   6.688   0.198   1.280 -0.2779 -0.5280  0.0226
    2MOL   C136  378   6.754   0.059   1.313  0.1227 -0.2398  0.4892
    2MOL   O137  379   6.680   7.905   1.351  0.0223  0.0217  0.1844
    2MOL   O138  380   6.893   0.056   1.303 -0.0762  0.8153  0.0780
    2MOL   C139  381   6.958   7.873   1.364  1.0888 -0.7097  0.3715
    2MOL   H140  382   6.812   0.194   1.100  0.3749 -0.6051 -0.0697
    2MOL   H141  383   6.707   0.333   1.114  1.2075  0.3746  0.9626
    2MOL   H142  384   6.581   0.182   1.290 -0.1198 -1.2832  0.5310
    2MOL   H143  385   6.969   7.873   1.473  1.1391 -0.6734  0.3667
    2MOL   H144  386   7.059   7.868   1.323 -0.2441 -1.6161 -2.8980
    2MOL   H145  387   6.900   7.786   1.334 -1.3330  0.5205  1.3847
    2MOL   C146  388   6.745   0.299   1.382 -0.1577  0.3852  0.1877
    2MOL   C147  389   6.695   0.304   1.533  0.4061  1.0302 -0.9447
    2MOL   C148  390   6.547   0.286   1.553  0.3883 -0.5133 -0.4661
    2MOL   O149  391   6.502   0.191   1.612 -0.5049  0.1589  0.0169
    2MOL   O150  392   6.472   0.392   1.501 -0.6191  0.1965  0.0938
    2MOL   C151  393   6.336   0.399   1.521 -0.1018 -0.0121 -0.6055
    2MOL   H152  394   6.854   0.294   1.379 -0.1958 -0.0066 -0.4955
    2MOL   H153  395   6.719   0.395   1.339 -0.3779  0.7155  1.0328
    2MOL   H154  396   6.720   0.408   1.553  0.1874  1.3257 -2.1581
    2MOL   H155  397   6.308   0.472   1.597 -1.9809 -0.5171 -0.7811
    2MOL   H156  398   6.284   0.303   1.534  1.3629 -0.6670  0.5322
    2MOL   H157  399   6.304   0.437   1.424 -1.5474 -0.3213 -0.2733
    2MOL   C158  400   6.782   0.214   1.613 -0.3505  0.4518 -0.5747
    2MOL   C159  401   6.813   0.261   1.759 -0.0915 -0.0359  0.2407
    2MOL   C160  402   6.854   0.141   1.848 -0.3920 -0.0790 -0.7510
    2MOL   O161  403   6.783   0.101   1.939  0.2794  0.2758 -0.4589
    2MOL   O162  404   6.980   0.105   1.816 -0.0798  0.0225 -0.3070
    2MOL   C163  405   7.041   7.927   1.884 -0.1406 -0.3714 -0.3576
    2MOL   H164  406   6.751   0.109   1.613 -0.4421  0.4693 -2.4131
    2MOL   H165  407   6.880   0.215   1.566  0.0600  2.0153  0.2697
    2MOL   H166  408   6.718   0.292   1.801 -0.3250 -0.7702  0.2582
    2MOL   H167  409   7.021   7.829   1.841  0.4824 -0.1970 -1.0613
    2MOL   H168  410   7.026   7.915   1.991 -0.8489  2.6840 -0.0618
    2MOL   H169  411   7.147   0.017   1.869 -0.4115  0.9953 -0.2415
    2MOL   C170  412   6.908   0.387   1.767  0.8357 -0.2005  0.1477
    2MOL   C171  413   6.941   0.446   1.907 -0.6707  0.3636 -0.0491
    2MOL   C172  414   7.057   0.364   1.976 -0.6467 -0.4409  0.1044
    2MOL   O173  415   7.039   0.313   2.086  0.2158 -0.8994 -0.4407
    2MOL   O174  416   7.181   0.369   1.911 -0.2142  0.4545  0.3696
    2MOL   C175  417   7.278   0.275   1.950  0.6244  0.1679 -0.3927
    2MOL   H176  418   7.005   0.361   1.724  1.3519  1.7805  0.0788
    2MOL   H177  419   6.881   0.472   1.704 -1.8716  0.0632  1.5962
    2MOL   H178  420   6.859   0.426   1.976 -0.5917  1.8417  0.5026
    2MOL   H179  421   7.329   0.291   2.045 -0.0323  0.6974 -0.1199
    2MOL   H180  422   7.356   0.262   1.875 -0.7387 -0.1029 -1.7901
    2MOL   H181  423   7.236   0.175   1.956  0.4038  0.3153  0.7466
    2MOL   C182  424   6.983   0.593   1.910 -0.2641  0.1301 -0.4891
    2MOL   C183  425   6.987   0.654   2.053 -0.4698 -0.7802 -0.4055
    2MOL   C184  426   7.090   0.768   2.069 -0.2614  0.0646 -0.1609
    2MOL   O185  427   7.105   0.853   1.979  0.1459 -0.3220 -0.1675
    2MOL   O186  428   7.158   0.759   2.186  0.2156  0.0854 -0.7890
    2MOL   C187  429   7.250   0.857   2.219  0.2873  0.3674 -0.7847
    2MOL   H188  430   7.076   0.619   1.859 -0.2435  0.3469 -0.3391
    2MOL   H189  431   6.914   0.652   1.850  0.1847  1.7406  0.5643
    2MOL   H190  432   7.036   0.576   2.111  0.8685 -0.0096 -0.4765
    2MOL   H191  433   7.194   0.937   2.268 -0.2007 -1.8659  2.4555
    2MOL   H192  434   7.310   0.897   2.137  2.7086 -1.7561 -0.1197
    2MOL   H193  435   7.328   0.821   2.286 -0.7999  0.1203  0.3615
    2MOL   C194  436   6.846   0.679   2.107 -0.5419 -0.0173  0.3538
    2MOL   C195  437   6.843   0.744   2.250 -0.5749  0.0371  0.2858
    2MOL   C196  438   6.704   0.799   2.290  0.5310 -0.4625 -0.0914
    2MOL   O197  439   6.602   0.797   2.214  0.1523  0.3145  0.6091
    2MOL   O198  440   6.704   0.854   2.405 -0.9743  0.3964 -0.2221
    2MOL   C199  441   6.593   0.927   2.446 -0.0488 -0.4300  0.9267
    2MOL   H200  442   6.800   0.752   2.041 -0.2381  1.0659  1.3118
    2MOL   H201  443   6.783   0.591   2.100 -1.6924  0.8019  0.2679
    2MOL   H202  444   6.905   0.832   2.240  0.1258 -0.5875 -0.9957
    2MOL   H203  445   6.596   0.930   2.555  0.5141 -0.3499  0.9070
    2MOL   H204  446   6.500   0.873   2.426  1.2567 -3.0629  1.8619
    2MOL   H205  447   6.591   1.026   2.399  1.3822 -1.5557 -1.6203
    2MOL   C206  448   6.922   0.656   2.359 -0.6795  0.2383  0.0955
    2MOL   C207  449   6.841   0.566   2.453  0.4321  0.2706 -0.4811
    2MOL   C208  450   6.754   0.461   2.380  0.2745 -0.4496  0.2155
    2MOL   O209  451   6.630   0.451   2.407 -0.7486 -0.3907 -0.3177
    2MOL   O210  452   6.818   0.384   2.295 -0.1699  0.0403  0.0149
    2MOL   C211  453   6.751   0.263   2.247  0.3708  0.4184  1.1481
    2MOL   H212  454   7.019   0.614   2.331 -1.1172 -0.0761 -0.9924
    2MOL   H213  455   6.945   0.746   2.416 -0.3670  0.0849  0.2121
    2MOL   H214  456   6.773   0.634   2.503 -1.2045 -0.7495 -1.2842
    2MOL   H215  457   6.713   0.286   2.147  0.8654  1.1165  1.1193
    2MOL   H216  458   6.665   0.223   2.301  0.2686  1.0714  1.4659
    2MOL   H217  459   6.826   0.185   2.235 -1.3929 -0.9513 -1.6652
    2MOL   C218  460   6.937   0.501   2.559 -0.0979  0.3123 -0.2951
    2MOL   C219  461   6.953   0.585   2.685  0.1627  0.4343  0.3481
    2MOL   C220  462   6.845   0.577   2.793  0.4220  0.7180 -0.4934
    2MOL   O221  463   6.753   0.500   2.784  0.1403 -0.3430 -0.4448
    2MOL   O222  464   6.875   0.646   2.895  0.4282  0.1263  0.4389
    2MOL   C223  465   6.780   0.653   3.003 -0.0213  0.2281  0.1068
    2MOL   H224  466   6.929   0.393   2.575  0.5059  0.1475 -1.0398
    2MOL   H225  467   7.036   0.494   2.513  0.4334  0.4317  0.7918
    2MOL   H226  468   6.936   0.687   2.653 -0.2444  0.5402  0.8930
    2MOL   H227  469   6.680   0.660   2.960  0.6904  0.7957 -1.4681
    2MOL   H228  470   6.796   0.739   3.068 -1.1502  1.7017 -1.5147
    2MOL   H229  471   6.781   0.578   3.082  1.8431 -0.4991 -0.5814
    2MOL   C230  472   7.097   0.580   2.746 -0.1388  0.5875 -0.2541
    2MOL   C231  473   7.174   0.451   2.781 -0.3158 -0.0506 -0.7532
    2MOL   C232  474   7.313   0.470   2.831  0.3300  0.4332 -0.6704
    2MOL   O233  475   7.384   0.562   2.792 -0.3160  0.4055  0.6496
    2MOL   O234  476   7.343   0.370   2.905 -0.2230 -0.3219  0.3086
    2MOL   C235  477   7.457   0.392   2.988  0.2860  0.0433  0.1185
    2MOL   H236  478   7.160   0.638   2.679  2.3018 -3.1623 -1.3516
    2MOL   H237  479   7.116   0.643   2.833 -0.0762  0.6936 -0.3441
    2MOL   H238  480   7.187   0.387   2.694  1.3646  0.9782 -1.2787
    2MOL   H239  481   7.425   0.361   3.087  0.7829  0.3843  0.3871
    2MOL   H240  482   7.485   0.497   3.000  0.6863 -0.0301 -0.1635
    2MOL   H241  483   7.535   0.319   2.968 -1.9251 -3.1031  2.4637
    2MOL   H242  484   7.116   0.403   2.860  2.2452  0.5002  1.5003
    3MOL     C1  485   4.751   1.046   1.837  1.1537  0.3223  0.6372
    3MOL     C2  486   4.745   0.976   1.697 -0.5856 -0.8896 -0.9516
    3MOL     C3  487   4.613   0.917   1.661  0.0486 -1.0042 -0.0754
    3MOL     O4  488   4.605   0.812   1.595  0.6080  0.0794  0.0930
    3MOL     O5  489   4.506   0.996   1.688  0.0403  0.6883  0.0664
    3MOL     C6  490   4.376   0.946   1.659  0.2746  0.5235  0.1586
    3MOL     H7  491   4.698   1.141   1.830  0.4189 -0.0810  0.6180
    3MOL     H8  492   4.851   1.061   1.878  1.3127  0.1840  0.3022
    3MOL     H9  493   4.813   0.891   1.706  0.2027 -0.1497  0.3324
    3MOL    H10  494   4.385   0.924   1.553  2.0398  1.8532  0.0056
    3MOL    H11  495   4.295   1.016   1.678 -0.6624 -0.1421 -1.3259
    3MOL    H12  496   4.363   0.860   1.724 -1.2932  1.4401  1.1125
    3MOL    H13  497   4.690   0.993   1.911  1.2334 -2.5386 -1.2709
    3MOL    C14  498   4.811   1.064   1.580 -0.4279  0.7884  0.0621
    3MOL    C15  499   4.931   1.151   1.600 -0.4847  1.1377 -0.6523
    3MOL    C16  500   5.054   1.064   1.592 -0.5507  0.2909 -0.0258
    3MOL    O17  501   5.116   1.032   1.691 -0.1335 -0.7365  0.0488
    3MOL    O18  502   5.090   1.022   1.469  0.5364 -0.3872 -0.5951
    3MOL    C19  503   5.200   0.924   1.465 -0.2143  0.3146 -0.2646
    3MOL    H20  504   4.819   0.997   1.495 -0.0204 -0.0867  0.7751
    3MOL    H21  505   4.728   1.130   1.554 -1.8068 -1.1314 -0.4783
    3MOL    H22  506   4.930   1.181   1.705 -1.8199 -1.2802  0.0596
    3MOL    H23  507   5.224   0.891   1.364 -1.5669  1.6158 -1.0343
    3MOL    H24  508   5.170   0.834   1.519  0.5780 -0.8616 -1.7590
    3MOL    H25  509   5.290   0.963   1.514 -0.1233 -1.0756  0.7055
    3MOL    C26  510   4.940   1.279   1.506 -0.3479  1.4394  0.0321
    3MOL    C27  511   4.836   1.384   1.536  0.8167  0.2353  0.0321
    3MOL    C28  512   4.812   1.428   1.686  0.4957 -0.6254 -0.7120
    3MOL    O29  513   4.700   1.414   1.736  0.3916  0.7497  0.1634
    3MOL    O30  514   4.927   1.468   1.747  0.2010  0.4165 -0.1151
    3MOL    C31  515   4.921   1.502   1.891 -0.1775 -0.0821  0.3153
    3MOL    H32  516   5.041   1.317   1.510  0.8888 -1.5052 -1.3990
    3MOL    H33  517   4.923   1.246   1.403 -0.4121 -2.0878  1.0898
    3MOL    H34  518   4.739   1.349   1.498  0.1120  1.4733  0.6679
    3MOL    H35  519   5.022   1.531   1.922  0.9625 -1.2054 -2.1481
    3MOL    H36  520   4.878   1.412   1.935  1.4434 -2.1583 -2.1343
    3MOL    H37  521   4.851   1.582   1.914  0.3697  1.2111 -2.2950
    3MOL    C38  522   4.867   1.508   1.444 -0.1127  0.3995  1.1966
    3MOL    C39  523   4.752   1.542   1.350 -0.4213  0.1253 -0.2311
    3MOL    C40  524   4.739   1.421   1.253 -0.1235 -0.4346  0.2333
    3MOL    O41  525   4.641   1.347   1.262 -0.2342  0.2826 -1.2075
    3MOL    O42  526   4.836   1.415   1.166 -0.0158  0.1654  0.4960
    3MOL    C43  527   4.850   1.286   1.099 -0.6847  0.0359 -0.4018
    3MOL    H44  528   4.875   1.592   1.513  1.8010  0.2455  1.1820
    3MOL    H45  529   4.964   1.499   1.396  0.1809  2.7936  1.3063
    3MOL    H46  530   4.769   1.622   1.278 -2.3299  0.5739 -0.2015
    3MOL    H47  531   4.884   1.221   1.180 -1.0422  2.6799  1.9486
    3MOL    H48  532   4.929   1.292   1.024 -1.3555  1.0253 -1.0395
    3MOL    H49  533   4.759   1.246   1.053 -0.2712  0.1417 -1.3286
    3MOL    C50  534   4.614   1.571   1.418 -0.4398  0.0511  0.2163
    3MOL    C51  535   4.610   1.709   1.482 -0.1624  0.6031 -0.3839
    3MOL    C52  536   4.622   1.816   1.378  0.6400 -0.0753 -0.2653
    3MOL    O53  537   4.611   1.787   1.257  0.5547 -0.7578 -0.5452
    3MOL    O54  538   4.656   1.937   1.427  0.0630 -0.4677 -0.3130
    3MOL    C55  539   4.643   2.051   1.341 -0.1202 -0.8572  0.5270
    3MOL    H56  540   4.540   1.564   1.337  1.9146 -0.7342 -1.9402
    3MOL    H57  541   4.581   1.499   1.493  1.6372 -1.4946 -0.3058
    3MOL    H58  542   4.700   1.724   1.541  1.1620 -0.1980 -2.1679
    3MOL    H59  543   4.543   2.094   1.344  1.4650  2.9927  0.5415
    3MOL    H60  544   4.661   2.047   1.234 -1.8674  2.8801  0.0111
    3MOL    H61  545   4.708   2.132   1.373 -0.0750 -0.8570  0.4320
    3MOL    C62  546   4.502   1.740   1.587 -0.4600  0.2323  0.4712
    3MOL    C63  547   4.354   1.727   1.546  0.8283  0.2804 -0.1334
    3MOL    C64  548   4.254   1.677   1.654  0.0214 -0.1823  0.5370
    3MOL    O65  549   4.182   1.570   1.643  0.7195  0.9356  0.0097
    3MOL    O66  550   4.239   1.776   1.750  0.4663  0.2726  0.3697
    3MOL    C67  551   4.129   1.768   1.843 -0.0581  0.0074 -0.4632
    3MOL    H68  552   4.517   1.662   1.662 -1.4615 -0.4131  0.0158
    3MOL    H69  553   4.528   1.836   1.632  0.3310 -1.1426  3.0649
    3MOL    H70  554   4.346   1.645   1.474 -0.3716  0.4122 -0.1474
    3MOL    H71  555   4.069   1.858   1.834 -1.1956 -0.5527  1.2938
    3MOL    H72  556   4.176   1.757   1.941  0.3514  1.9210 -0.4362
    3MOL    H73  557   4.067   1.679   1.834  0.5123 -0.3148 -1.2795
    3MOL    C74  558   4.303   1.852   1.473  0.3460 -0.0726 -0.1081
    3MOL    C75  559   4.156   1.858   1.424  0.3477 -0.5085 -0.0348
    3MOL    C76  560   4.116   1.999   1.387 -0.0902 -0.0131 -0.6001
    3MOL    O77  561   4.010   2.050   1.429 -0.3235  0.1043  0.1061
    3MOL    O78  562   4.200   2.066   1.310  0.9107  0.0938 -0.0601
    3MOL    C79  563   4.184   2.207   1.283 -0.2137  0.4984  0.5336
    3MOL    H80  564   4.309   1.931   1.549 -3.4392 -1.2620  1.5513
    3MOL    H81  565   4.360   1.877   1.383 -0.6650 -1.7015 -1.2238
    3MOL    H82  566   4.097   1.847   1.515  0.0149 -0.5427 -0.2537
    3MOL    H83  567   4.191   2.257   1.379  1.3943 -1.0657  1.2653
    3MOL    H84  568   4.089   2.231   1.236 -0.3232  2.7974  1.8425
    3MOL    H85  569   4.266   2.242   1.220  0.0476 -0.0465  0.5659
    3MOL    C86  570   4.105   1.747   1.329  0.0695 -0.7373  0.3873
    3MOL    C87  571   3.955   1.735   1.289  0.2825 -0.3285 -0.2130
    3MOL    C88  572   3.925   1.674   1.145 -0.5434  0.1364  0.2419
    3MOL    O89  573   3.826   1.710   1.085  0.5964  0.0279  0.2894
    3MOL    O90  574   4.011   1.572   1.110 -0.3848  0.1816  0.1787
    3MOL    C91  575   3.976   1.515   0.986 -0.8009  0.1931 -0.3837
    3MOL    H92  576   4.164   1.763   1.238 -1.2412  1.6119 -0.0794
    3MOL    H93  577   4.141   1.650   1.363 -1.3682 -1.3134  0.2897
    3MOL    H94  578   3.914   1.836   1.285 -0.2534 -0.4528  1.9544
    3MOL    H95  579   3.945   1.588   0.912 -0.1868 -1.0585 -1.8989
    3MOL    H96  580   3.896   1.445   1.012 -0.5548  0.5499  1.3873
    3MOL    H97  581   4.061   1.454   0.956 -1.8648 -1.3506 -0.3610
    3MOL    C98  582   3.876   1.669   1.405 -0.5996  0.3254  0.2578
    3MOL    C99  583   3.720   1.653   1.383 -0.5907 -0.0822  0.5751
    3MOL   C100  584   3.665   1.517   1.401  1.4671  0.1021  0.3745
    3MOL   O101  585   3.594   1.481   1.497  0.5749 -0.0472  0.3982
    3MOL   O102  586   3.694   1.440   1.300 -0.3007 -0.5049 -0.8178
    3MOL   C103  587   3.610   1.322   1.277  0.1824  0.1992  0.0498
    3MOL   H104  588   3.938   1.579   1.418  0.7908  1.1459 -0.5600
    3MOL   H105  589   3.894   1.723   1.497  1.0303 -1.4743  1.0428
    3MOL   H106  590   3.687   1.680   1.283 -0.6991  0.1738  0.6799
    3MOL   H107  591   3.509   1.318   1.318  0.4921  2.3644  1.0950
    3MOL   H108  592   3.667   1.234   1.309  0.8412  0.3244 -0.7723
    3MOL   H109  593   3.599   1.305   1.170 -1.7958 -0.7559  0.3833
    3MOL   C110  594   3.640   1.755   1.471 -0.3543  0.7233 -0.4212
    3MOL   C111  595   3.667   1.909   1.439 -0.0537  0.6409 -0.4790
    3MOL   C112  596   3.639   1.950   1.295 -0.2414 -0.1453 -0.6282
    3MOL   O113  597   3.530   1.926   1.242  0.1194 -0.2006  0.1147
    3MOL   O114  598   3.748   2.002   1.232 -0.1111 -0.3814  0.5403
    3MOL   C115  599   3.734   2.074   1.106 -0.3289 -0.3830  0.9467
    3MOL   H116  600   3.534   1.730   1.472  0.1249 -1.3734  1.1948
    3MOL   H117  601   3.651   1.733   1.577  0.6326 -1.9347 -1.0248
    3MOL   H118  602   3.767   1.940   1.469  0.7782 -0.5108 -1.9901
    3MOL   H119  603   3.696   2.007   1.029  0.4135  1.3939 -0.9926
    3MOL   H120  604   3.827   2.111   1.064 -0.6366 -2.4029 -1.6350
    3MOL   H121  605   3.674   2.164   1.118  1.2468  1.1889 -2.4390
    3MOL   C122  606   3.576   1.992   1.524  0.1505  0.4874  0.3871
    3MOL   C123  607   3.585   1.978   1.675  0.2360  0.6174  0.4905
    3MOL   C124  608   3.727   1.993   1.721 -0.2769  1.0791  0.1862
    3MOL   O125  609   3.778   1.895   1.783  0.1859 -0.2040 -0.4681
    3MOL   O126  610   3.786   2.109   1.690  0.3297 -0.6502 -0.5486
    3MOL   C127  611   3.918   2.134   1.737  0.6943  0.4308  1.0182
    3MOL   H128  612   3.601   2.093   1.492 -1.1325  0.1886 -1.6798
    3MOL   H129  613   3.470   1.973   1.505  0.5224 -0.1256 -1.1336
    3MOL   H130  614   3.552   1.876   1.698 -2.2092  0.7186 -2.2544
    3MOL   H131  615   3.926   2.116   1.844  0.3644  1.9566  1.3137
    3MOL   H132  616   3.931   2.242   1.730  1.1220  0.2241 -1.9291
    3MOL   H133  617   3.995   2.084   1.678  0.7588  1.7113 -0.0140
    3MOL   C134  618   3.487   2.075   1.740  0.0050  0.9631  0.0249
    3MOL   C135  619   3.505   2.220   1.748  0.2355 -0.3504 -0.7359
    3MOL   C136  620   3.456   2.304   1.632  0.4673 -0.3685  0.0919
    3MOL   O137  621   3.524   2.385   1.572 -0.1690 -1.0830  0.1562
    3MOL   O138  622   3.321   2.275   1.597  0.5004 -0.1844 -0.1070
    3MOL   C139  623   3.264   2.345   1.481  0.0019  0.6581  0.0342
    3MOL   H140  624   3.399   2.055   1.680  0.2930  2.8427 -1.0817
    3MOL   H141  625   3.478   2.040   1.843 -0.1688  2.1867  0.4401
    3MOL   H142  626   3.613   2.240   1.752 -0.1287  1.3366  3.1941
    3MOL   H143  627   3.352   2.359   1.418 -0.3601  0.4830 -0.5016
    3MOL   H144  628   3.230   2.440   1.524 -0.2768  0.1372  0.9781
    3MOL   H145  629   3.186   2.285   1.435 -0.2874 -0.4993  1.9660
    3MOL   C146  630   3.446   2.270   1.886  0.1316 -0.4661 -0.0920
    3MOL   C147  631   3.496   2.414   1.917  1.0491 -0.8608  0.9685
    3MOL   C148  632   3.397   2.529   1.878  0.7092  0.0959 -0.1923
    3MOL   O149  633   3.275   2.516   1.891 -0.1381 -0.4645 -0.0605
    3MOL   O150  634   3.462   2.624   1.823 -0.6007  0.2987 -0.2383
    3MOL   C151  635   3.400   2.748   1.793  0.0599  0.1318 -0.1635
    3MOL   H152  636   3.337   2.275   1.889  0.1223 -0.9361  0.4094
    3MOL   H153  637   3.476   2.201   1.965 -0.8357 -1.1303 -0.2882
    3MOL   H154  638   3.582   2.428   1.851  0.9211 -2.7136  0.3589
    3MOL   H155  639   3.449   2.838   1.830  0.0085  0.6391 -1.3445
    3MOL   H156  640   3.298   2.751   1.832 -0.3005 -0.4920 -1.0411
    3MOL   H157  641   3.385   2.764   1.687  0.4584  2.3384  0.0961
    3MOL   C158  642   3.547   2.428   2.058 -0.6336 -0.0076 -0.0987
    3MOL   C159  643   3.702   2.412   2.063  0.4064 -0.2897 -0.2140
    3MOL   C160  644   3.784   2.522   1.986  0.5114  0.2365  1.0921
    3MOL   O161  645   3.870   2.483   1.909 -0.1113  0.4796 -0.2677
    3MOL   O162  646   3.756   2.641   2.020 -0.4501  0.6026 -0.4733
    3MOL   C163  647   3.824   2.751   1.958  0.0013  0.0692  0.3972
    3MOL   H164  648   3.531   2.529   2.096  0.1860  0.5091 -1.1123
    3MOL   H165  649   3.504   2.358   2.129 -0.3918  0.2869  0.3422
    3MOL   H166  650   3.716   2.321   2.005  2.6229 -0.0710 -0.0724
    3MOL   H167  651   3.930   2.728   1.952 -0.2779 -1.6332  1.5121
    3MOL   H168  652   3.803   2.834   2.024  0.3177 -0.3530  1.0323
    3MOL   H169  653   3.778   2.779   1.863 -0.4383  1.8022  1.0996
    3MOL   C170  654   3.760   2.410   2.209  0.7296 -0.3215 -0.5852
    3MOL   C171  655   3.912   2.361   2.229 -0.0176 -0.3260  0.5037
    3MOL   C172  656   3.948   2.383   2.374  0.1940 -0.9091 -1.0160
    3MOL   O173  657   4.041   2.455   2.408 -0.2424  0.1919 -0.1054
    3MOL   O174  658   3.860   2.329   2.460 -1.2719  0.7878 -0.2849
    3MOL   C175  659   3.883   2.348   2.598 -0.1921 -0.0517  0.1534
    3MOL   H176  660   3.754   2.511   2.247 -1.4661 -1.0857  1.2053
    3MOL   H177  661   3.702   2.350   2.279  1.4168  0.6527  0.8186
    3MOL   H178  662   3.987   2.413   2.168  0.5869 -0.3972  1.1863
    3MOL   H179  663   3.821   2.290   2.666  0.2409 -2.3916 -1.3808
    3MOL   H180  664   3.877   2.452   2.629  0.2037 -0.5359  1.9143
    3MOL   H181  665   3.985   2.327   2.630 -0.0038  1.4582  0.5717
    3MOL   C182  666   3.924   2.212   2.190 -0.3926 -0.3913 -0.5676
    3MOL   C183  667   4.072   2.168   2.163 -0.3198 -0.4183 -0.0430
    3MOL   C184  668   4.069   2.015   2.137  0.5537  0.3077  0.2421
    3MOL   O185  669   4.049   1.979   2.022  0.2190  0.7411  0.0527
    3MOL   O186  670   4.083   1.934   2.242  0.2734 -0.6468  0.0618
    3MOL   C187  671   4.098   1.797   2.219  0.6107  0.2344  0.2410
    3MOL   H188  672   3.889   2.142   2.265 -1.6506 -0.1731 -0.9403
    3MOL   H189  673   3.863   2.196   2.102  0.4217 -1.0969 -1.0016
    3MOL   H190  674   4.130   2.180   2.254 -0.2480 -0.2113 -0.1147
    3MOL   H191  675   4.183   1.780   2.154 -0.5682 -0.2573 -1.2062
    3MOL   H192  676   4.007   1.753   2.178  0.0879  0.9151  0.6603
    3MOL   H193  677   4.125   1.732   2.301 -0.0210 -0.9598 -0.4845
    3MOL   C194  678   4.142   2.243   2.043  0.3634 -0.1071  0.1496
    3MOL   C195  679   4.276   2.187   2.007  0.4913 -0.3820  1.0066
    3MOL   C196  680   4.307   2.212   1.858 -0.0420 -0.4553  0.4888
    3MOL   O197  681   4.301   2.114   1.785 -0.3922  0.0457  0.3687
    3MOL   O198  682   4.305   2.341   1.816  0.9303  0.1786  0.3887
    3MOL   C199  683   4.317   2.368   1.677  0.3222  0.1785  0.0814
    3MOL   H200  684   4.064   2.246   1.967 -1.3460 -0.5398  1.8405
    3MOL   H201  685   4.150   2.346   2.077 -0.6072 -0.3238  1.0578
    3MOL   H202  686   4.279   2.078   2.021 -0.1914 -0.5958 -0.5002
    3MOL   H203  687   4.325   2.475   1.657 -3.1048  0.0587 -2.4465
    3MOL   H204  688   4.230   2.323   1.629 -0.8359  2.1657  0.2965
    3MOL   H205  689   4.402   2.319   1.630  0.6951  0.3861  0.5337
    3MOL   C206  690   4.380   2.234   2.110 -1.1262 -0.6703 -0.2123
    3MOL   C207  691   4.495   2.134   2.137  0.5245  0.0616  0.4692
    3MOL   C208  692   4.618   2.215   2.186  0.1611  0.5034 -1.0287
    3MOL   O209  693   4.722   2.219   2.120 -0.0451 -0.2680  0.6129
    3MOL   O210  694   4.592   2.286   2.291 -0.4743 -0.1100  0.5691
    3MOL   C211  695   4.690   2.370   2.340 -0.6044 -0.3271  0.8184
    3MOL   H212  696   4.418   2.333   2.085 -1.2735 -0.7457 -0.7446
    3MOL   H213  697   4.331   2.238   2.207  0.1387 -2.3014  0.5256
    3MOL   H214  698   4.509   2.093   2.037  0.2083  0.0358  0.4331
    3MOL   H215  699   4.749   2.423   2.265 -0.1894  1.5849  2.4590
    3MOL   H216  700   4.751   2.303   2.401  0.1669  0.4027  0.8602
    3MOL   H217  701   4.632   2.447   2.391 -0.9721  0.1382 -0.2797
    3MOL   C218  702   4.456   2.017   2.234 -0.7897  0.2134  0.3738
    3MOL   C219  703   4.537   1.883   2.216  0.2691  0.4764  0.1805
    3MOL   C220  704   4.504   1.777   2.322 -0.0333  0.3879 -1.1282
    3MOL   O221  705   4.543   1.663   2.300 -0.8121  0.3876 -0.0055
    3MOL   O222  706   4.433   1.810   2.425 -0.1955 -0.0452 -0.8080
    3MOL   C223  707   4.393   1.709   2.518  0.4518  0.1321 -0.4151
    3MOL   H224  708   4.451   2.053   2.337  0.8364 -0.4131  0.6904
    3MOL   H225  709   4.355   1.994   2.201 -1.2574  1.2283  1.0647
    3MOL   H226  710   4.645   1.899   2.222  0.7011 -2.6107  1.6326
    3MOL   H227  711   4.479   1.662   2.565  0.4046  0.3243 -0.1364
    3MOL   H228  712   4.337   1.632   2.466  0.5834 -0.7610  0.7379
    3MOL   H229  713   4.338   1.747   2.604 -0.2501 -0.4194 -0.6212
    3MOL   C230  714   4.509   1.824   2.081  0.9179  0.1778 -0.4065
    3MOL   C231  715   4.627   1.746   2.020 -0.2687  0.6585 -0.4921
    3MOL   C232  716   4.736   1.838   1.950  0.4377  0.1448  0.0620
    3MOL   O233  717   4.757   1.827   1.830 -0.2008 -0.1389  0.6947
    3MOL   O234  718   4.802   1.918   2.037 -0.2262 -0.9237 -0.0065
    3MOL   C235  719   4.910   1.998   1.991  0.7301  0.6952  0.0629
    3MOL   H236  720   4.430   1.749   2.089  0.5508  0.1777 -3.6254
    3MOL   H237  721   4.479   1.886   1.998  1.0422 -0.3758 -0.8696
    3MOL   H238  722   4.593   1.672   1.948  1.7838 -0.0172 -0.8133
    3MOL   H239  723   4.882   2.047   1.897  0.9782  0.7848  0.0363
    3MOL   H240  724   4.991   1.926   1.995  0.4086  0.2543 -1.1275
    3MOL   H241  725   4.928   2.068   2.072  4.3149 -2.3443  1.9977
    3MOL   H242  726   4.680   1.690   2.097 -2.2165  0.5945  0.8370
    4MOL     C1  727   3.946   3.939   6.022  0.2650  0.2961 -0.0331
    4MOL     C2  728   3.863   3.810   6.006  0.2126  0.2098  0.3200
    4MOL     C3  729   3.951   3.677   6.018 -0.5758 -0.6606 -0.4380
    4MOL     O4  730   3.918   3.594   6.099 -0.1397  0.1391 -0.3616
    4MOL     O5  731   4.049   3.655   5.927  0.1124  0.5511  0.2753
    4MOL     C6  732   4.125   3.537   5.931 -0.2312 -0.2315 -0.6522
    4MOL     H7  733   3.885   4.027   6.039  0.9738  0.5247  1.3397
    4MOL     H8  734   4.012   3.957   5.936  0.4336 -1.4448 -0.2902
    4MOL     H9  735   3.824   3.798   5.905  0.9714 -0.4190  0.0970
    4MOL    H10  736   4.204   3.526   6.005  1.3513  0.1131 -2.2330
    4MOL    H11  737   4.187   3.530   5.841 -0.6860  2.6803 -1.2519
    4MOL    H12  738   4.056   3.454   5.944  1.3862 -1.5765 -0.5004
    4MOL    H13  739   4.013   3.919   6.105  2.0150 -2.3886 -1.9748
    4MOL    C14  740   3.737   3.820   6.100 -0.3760 -0.1809  0.1070
    4MOL    C15  741   3.614   3.740   6.063  0.1630 -0.1880 -0.4522
    4MOL    C16  742   3.510   3.726   6.173  0.0877 -0.1308 -0.3977
    4MOL    O17  743   3.482   3.822   6.244  0.0981 -0.3944 -0.8125
    4MOL    O18  744   3.466   3.606   6.174 -0.3780  0.8292 -0.0347
    4MOL    C19  745   3.396   3.554   6.284 -0.5586  0.5516 -0.5599
    4MOL    H20  746   3.764   3.785   6.199 -2.1478  0.5340  0.8612
    4MOL    H21  747   3.713   3.925   6.117  0.0576 -0.0165 -0.2705
    4MOL    H22  748   3.643   3.637   6.047  0.3161 -0.1658 -0.3193
    4MOL    H23  749   3.365   3.633   6.353  1.9126  1.1991 -0.1573
    4MOL    H24  750   3.460   3.490   6.344 -0.2519  0.9514 -0.4597
    4MOL    H25  751   3.308   3.499   6.250  1.3717 -3.3046  0.5502
    4MOL    C26  752   3.554   3.794   5.929 -0.5473 -0.6202 -0.8956
    4MOL    C27  753   3.433   3.716   5.874  0.4547 -0.0658  0.1865
    4MOL    C28  754   3.392   3.788   5.750  0.8128  0.3695  0.4541
    4MOL    O29  755   3.454   3.773   5.642 -1.3367  0.0558 -0.2177
    4MOL    O30  756   3.280   3.855   5.763 -0.0254  0.0406 -0.0849
    4MOL    C31  757   3.242   3.935   5.653  0.6641 -0.1071  0.5641
    4MOL    H32  758   3.524   3.898   5.936  0.7258 -0.3375  0.5751
    4MOL    H33  759   3.625   3.794   5.846  0.0365 -1.9298 -0.4208
    4MOL    H34  760   3.362   3.706   5.957  1.4812  0.4471  1.1458
    4MOL    H35  761   3.329   3.968   5.596  0.2759  0.2436  0.1739
    4MOL    H36  762   3.185   4.014   5.703 -0.4173 -0.2125 -0.5058
    4MOL    H37  763   3.179   3.892   5.576  0.1337  1.6118  0.0115
    4MOL    C38  764   3.465   3.570   5.828 -0.2686 -0.0991 -0.1143
    4MOL    C39  765   3.338   3.483   5.809 -0.4922  0.7510  0.3875
    4MOL    C40  766   3.280   3.479   5.665 -0.0937 -0.1789 -0.2232
    4MOL    O41  767   3.177   3.540   5.642  0.2842  0.1730 -0.5241
    4MOL    O42  768   3.356   3.410   5.583  0.1429  0.4712 -0.0951
    4MOL    C43  769   3.317   3.415   5.442 -0.1705 -0.7047  0.4182
    4MOL    H44  770   3.524   3.557   5.737 -0.0375 -1.1965  0.1756
    4MOL    H45  771   3.524   3.519   5.905  0.5857  0.5590 -0.3324
    4MOL    H46  772   3.255   3.525   5.866 -0.6256 -0.2245  0.9279
    4MOL    H47  773   3.210   3.399   5.432 -0.2719 -0.1202  0.5816
    4MOL    H48  774   3.366   3.345   5.375 -0.0382 -0.6933  0.5028
    4MOL    H49  775   3.337   3.515   5.402 -0.7274 -1.5539 -2.1045
    4MOL    C50  776   3.353   3.338   5.867 -0.3265  0.0791  0.0628
    4MOL    C51  777   3.291   3.318   6.013 -0.4018  0.3054  0.1923
    4MOL    C52  778   3.139   3.331   6.013  0.0112  0.0145  0.1144
    4MOL    O53  779   3.068   3.269   5.933  0.1445  0.0656 -0.4470
    4MOL    O54  780   3.090   3.409   6.105 -0.1437 -0.5601  0.2595
    4MOL    C55  781   2.950   3.421   6.138 -0.2619  0.5069 -0.0126
    4MOL    H56  782   3.316   3.257   5.804 -1.3173  0.0457  0.6742
    4MOL    H57  783   3.460   3.314   5.868 -0.4877 -0.6247  1.7370
    4MOL    H58  784   3.345   3.388   6.077  2.1428 -0.6744 -0.8187
    4MOL    H59  785   2.941   3.488   6.224  2.5358  0.0699  0.6819
    4MOL    H60  786   2.896   3.327   6.151 -0.6969  0.9331  1.3494
    4MOL    H61  787   2.901   3.464   6.051 -1.5148 -2.2542 -0.7169
    4MOL    C62  788   3.325   3.181   6.080  0.5464 -0.4111 -0.3234
    4MOL    C63  789   3.272   3.049   6.027  0.1525  1.2882  0.3582
    4MOL    C64  790   3.354   3.017   5.906 -0.2694  0.1298  0.2117
    4MOL    O65  791   3.312   2.967   5.807  0.6127 -0.3860  0.0197
    4MOL    O66  792   3.478   3.046   5.928 -0.1482  0.4687 -0.6070
    4MOL    C67  793   3.565   3.025   5.816 -0.7790  0.5218 -0.1212
    4MOL    H68  794   3.432   3.174   6.100  0.5163 -0.6723 -0.2561
    4MOL    H69  795   3.287   3.194   6.181  1.3806  2.6872 -0.3612
    4MOL    H70  796   3.170   3.059   5.989  0.6964  0.4844 -1.3349
    4MOL    H71  797   3.559   2.921   5.783  0.7747 -0.1988  1.7387
    4MOL    H72  798   3.667   3.042   5.850 -0.7850 -0.4730  0.4303
    4MOL    H73  799   3.552   3.094   5.733 -2.0520  0.8803  0.3518
    4MOL    C74  800   3.267   2.931   6.131  0.2318  0.0006  0.1557
    4MOL    C75  801   3.213   2.789   6.091 -0.2698 -1.1285  0.9976
    4MOL    C76  802   3.233   2.680   6.200  0.1050  0.2640  0.3082
    4MOL    O77  803   3.247   2.709   6.319 -0.6598 -0.1800  0.3052
    4MOL    O78  804   3.219   2.562   6.146  0.2166 -0.8224 -0.1728
    4MOL    C79  805   3.218   2.452   6.238  0.1352 -0.3855  0.3987
    4MOL    H80  806   3.368   2.924   6.174 -0.1253  0.1212  1.0208
    4MOL    H81  807   3.204   2.964   6.214  0.3305 -2.1374  1.1145
    4MOL    H82  808   3.265   2.745   6.006 -1.1247  0.8961 -0.6319
    4MOL    H83  809   3.121   2.449   6.287  0.1437 -0.7098  0.3918
    4MOL    H84  810   3.296   2.461   6.314  0.9292  0.3867 -0.4857
    4MOL    H85  811   3.229   2.366   6.173 -1.2012 -1.2045  1.2291
    4MOL    C86  812   3.064   2.793   6.041  0.4465 -0.0351 -0.1015
    4MOL    C87  813   2.959   2.845   6.154 -0.0381  0.0799 -0.7525
    4MOL    C88  814   2.920   2.989   6.123 -0.3582  0.7599 -0.1753
    4MOL    O89  815   2.954   3.082   6.189 -0.2617 -0.1312  0.3424
    4MOL    O90  816   2.831   2.991   6.034 -0.1207 -0.2386  0.9213
    4MOL    C91  817   2.766   3.116   5.998 -0.4774  0.6250  0.6303
    4MOL    H92  818   3.061   2.853   5.951  0.4170  1.9105  1.1630
    4MOL    H93  819   3.028   2.695   6.008  1.3600 -0.4870  0.2409
    4MOL    H94  820   3.012   2.852   6.248  0.4406  0.2154 -1.0300
    4MOL    H95  821   2.837   3.196   5.975 -1.2256  1.4994  1.3309
    4MOL    H96  822   2.715   3.147   6.089 -0.5542 -0.1307  0.8439
    4MOL    H97  823   2.696   3.104   5.915  1.8471 -1.9157 -1.0609
    4MOL    C98  824   2.843   2.750   6.175  0.3568 -0.1853  0.2503
    4MOL    C99  825   2.865   2.623   6.260 -0.7309 -0.3775 -0.1399
    4MOL   C100  826   2.914   2.666   6.400 -0.1789 -0.0006 -0.1461
    4MOL   O101  827   2.869   2.765   6.464  0.3554  0.1497  0.1546
    4MOL   O102  828   3.006   2.588   6.445 -0.7043 -0.0700 -0.3317
    4MOL   C103  829   3.076   2.617   6.564 -0.4581  1.1994 -0.3197
    4MOL   H104  830   2.753   2.797   6.215  1.2339  0.6767  1.2396
    4MOL   H105  831   2.810   2.721   6.075 -0.4657 -0.8846  0.7177
    4MOL   H106  832   2.944   2.564   6.213 -0.7749 -1.2383  0.8493
    4MOL   H107  833   3.096   2.723   6.579  0.5226  0.5923  3.1664
    4MOL   H108  834   3.173   2.570   6.547 -1.0104  0.1889 -0.7255
    4MOL   H109  835   3.023   2.586   6.655  0.3886 -0.7086 -0.4650
    4MOL   C110  836   2.738   2.541   6.274  0.5142  0.0380 -0.3767
    4MOL   C111  837   2.688   2.471   6.143 -0.0880  0.8773 -0.2693
    4MOL   C112  838   2.793   2.368   6.095  0.5108  0.3417 -0.5410
    4MOL   O113  839   2.880   2.389   6.008 -0.1254  0.5719  0.2135
    4MOL   O114  840   2.787   2.247   6.166  0.0176  0.2720  0.5775
    4MOL   C115  841   2.879   2.147   6.124 -0.0604 -0.8864 -0.0881
    4MOL   H116  842   2.743   2.476   6.361 -3.1856  0.5170  0.2820
    4MOL   H117  843   2.654   2.606   6.300  0.1386 -0.9764  0.9881
    4MOL   H118  844   2.695   2.546   6.064 -2.2459  1.2450 -0.1402
    4MOL   H119  845   2.863   2.063   6.192 -0.3914 -1.6081 -1.0456
    4MOL   H120  846   2.983   2.179   6.134  0.0753 -1.1436 -0.6330
    4MOL   H121  847   2.860   2.123   6.019  1.2606  1.4795 -0.9109
    4MOL   C122  848   2.551   2.401   6.171 -0.2974 -0.6464  0.1489
    4MOL   C123  849   2.429   2.488   6.181 -0.0202  1.2908  0.4976
    4MOL   C124  850   2.423   2.603   6.079 -0.1820 -0.3034  0.1017
    4MOL   O125  851   2.405   2.590   5.959 -0.1419 -0.4631 -0.2250
    4MOL   O126  852   2.464   2.720   6.127  0.3242  0.2468 -0.4261
    4MOL   C127  853   2.488   2.834   6.041  0.2555 -0.0675  0.2994
    4MOL   H128  854   2.542   2.320   6.099  1.1125  0.8786 -1.7693
    4MOL   H129  855   2.559   2.352   6.269 -4.6001 -1.7745  0.0471
    4MOL   H130  856   2.439   2.529   6.282 -0.2235  0.7942  0.7198
    4MOL   H131  857   2.426   2.827   5.952  0.1870  1.8083  0.1944
    4MOL   H132  858   2.596   2.843   6.028  0.5800 -2.7745  0.7445
    4MOL   H133  859   2.466   2.928   6.091  0.4916  0.8569 -1.3129
    4MOL   C134  860   2.295   2.394   6.174 -1.0583  0.2971 -0.5746
    4MOL   C135  861   2.153   2.462   6.175 -0.8098 -0.2915 -0.4636
    4MOL   C136  862   2.049   2.357   6.158  0.1169  0.1133 -0.1059
    4MOL   O137  863   1.984   2.347   6.048  0.6807  0.8633 -0.5723
    4MOL   O138  864   2.040   2.271   6.266 -0.6161  0.1408  0.3033
    4MOL   C139  865   1.961   2.156   6.258 -0.2142 -0.0431 -0.0352
    4MOL   H140  866   2.303   2.325   6.089 -3.7889  0.4841 -1.0212
    4MOL   H141  867   2.291   2.317   6.251 -0.2249 -0.9962 -1.7900
    4MOL   H142  868   2.150   2.519   6.082 -1.5061 -0.9796 -0.8704
    4MOL   H143  869   1.879   2.159   6.186  0.6950 -0.6446 -1.1080
    4MOL   H144  870   1.895   2.156   6.345 -1.3316  2.0205 -0.8537
    4MOL   H145  871   2.019   2.064   6.251  0.4011  0.4597 -1.6468
    4MOL   C146  872   2.125   2.560   6.295  0.3083  0.4298  0.7917
    4MOL   C147  873   2.096   2.709   6.249  0.0111 -0.3766  0.1679
    4MOL   C148  874   1.954   2.710   6.184 -0.3822  0.2721 -0.8265
    4MOL   O149  875   1.858   2.736   6.256 -0.1792  0.1390  0.0946
    4MOL   O150  876   1.946   2.665   6.059 -0.1640 -0.3614  0.4742
    4MOL   C151  877   1.824   2.642   5.998 -0.4000  0.3667 -0.2271
    4MOL   H152  878   2.048   2.532   6.366 -1.9762  1.8390 -1.0729
    4MOL   H153  879   2.215   2.570   6.357 -0.0019  3.0233  0.8781
    4MOL   H154  880   2.167   2.733   6.170 -0.4863 -0.7185 -0.3878
    4MOL   H155  881   1.858   2.584   5.912  2.0591  0.2195  0.8003
    4MOL   H156  882   1.761   2.728   5.976  0.5122  1.3400  0.8696
    4MOL   H157  883   1.775   2.564   6.057 -0.3650  1.2869  1.0319
    4MOL   C158  884   2.116   2.814   6.360  1.0824 -0.9159  0.6803
    4MOL   C159  885   2.125   2.958   6.304 -0.3550  0.0680 -0.0399
    4MOL   C160  886   2.034   3.052   6.382 -0.2660 -0.5632  0.6847
    4MOL   O161  887   2.019   3.049   6.507  0.0782  0.5538  0.4025
    4MOL   O162  888   1.971   3.136   6.301  0.3427  0.0313 -0.0119
    4MOL   C163  889   1.877   3.233   6.341 -0.2747 -0.0953  0.6054
    4MOL   H164  890   2.029   2.802   6.425  0.3367  2.3440  0.3756
    4MOL   H165  891   2.201   2.782   6.420  1.6117 -1.1802 -0.2165
    4MOL   H166  892   2.088   2.964   6.201  0.7847  1.1835 -0.4025
    4MOL   H167  893   1.926   3.306   6.406 -0.0619 -0.3601  0.7424
    4MOL   H168  894   1.793   3.191   6.398  0.2865 -1.1237  0.6764
    4MOL   H169  895   1.821   3.269   6.254  0.4363  0.4591  0.3711
    4MOL   C170  896   2.277   3.011   6.322 -0.0589  0.1759  0.2600
    4MOL   C171  897   2.314   3.147   6.268  0.1032 -1.2064  0.2307
    4MOL   C172  898   2.458   3.184   6.295  0.1703 -0.3848  0.8929
    4MOL   O173  899   2.550   3.104   6.323 -0.1884  0.5050 -0.0728
    4MOL   O174  900   2.485   3.317   6.282  0.0865  0.2653  0.1097
    4MOL   C175  901   2.612   3.363   6.329 -0.1838  0.0051 -0.0341
    4MOL   H176  902   2.295   3.006   6.429  0.6513 -1.4014  0.0801
    4MOL   H177  903   2.339   2.939   6.268  3.3153  3.1071  0.0942
    4MOL   H178  904   2.267   3.228   6.323  0.4647  0.3689 -1.7078
    4MOL   H179  905   2.611   3.472   6.327  2.4246  0.0447 -2.6194
    4MOL   H180  906   2.697   3.325   6.273 -1.4603 -0.9142 -1.3658
    4MOL   H181  907   2.610   3.324   6.431 -0.4040  0.8029  0.2721
    4MOL   C182  908   2.291   3.153   6.113  0.4037  0.4458 -0.3150
    4MOL   C183  909   2.179   3.242   6.066 -0.1755  0.5658  0.6264
    4MOL   C184  910   2.182   3.386   6.124  0.5122  0.9714  0.0325
    4MOL   O185  911   2.104   3.419   6.216 -0.4203 -0.2961  0.4178
    4MOL   O186  912   2.287   3.461   6.088  0.1181  0.7583 -0.2698
    4MOL   C187  913   2.308   3.596   6.133  0.2085 -0.7574 -0.6033
    4MOL   H188  914   2.379   3.184   6.057  1.3021 -0.6055  0.4829
    4MOL   H189  915   2.278   3.053   6.071  0.2795  0.1373  0.4533
    4MOL   H190  916   2.099   3.191   6.120 -0.1762  0.0734  0.1641
    4MOL   H191  917   2.310   3.617   6.240  1.6549  0.8518 -0.9396
    4MOL   H192  918   2.232   3.659   6.087  2.4997  3.8794  1.6991
    4MOL   H193  919   2.406   3.622   6.096  2.4276 -4.2499  2.4053
    4MOL   C194  920   2.169   3.237   5.909  0.0672  0.1829  0.3857
    4MOL   C195  921   2.039   3.283   5.843  0.0572  0.2831  0.0880
    4MOL   C196  922   1.916   3.224   5.917 -0.0127 -0.0665  0.1256
    4MOL   O197  923   1.812   3.292   5.930  0.2147  0.2776 -0.2379
    4MOL   O198  924   1.933   3.096   5.960  0.2024 -0.3127  0.1637
    4MOL   C199  925   1.822   3.027   6.021  0.4381 -0.0652 -0.2410
    4MOL   H200  926   2.244   3.304   5.867 -0.0823 -0.3350 -0.7201
    4MOL   H201  927   2.201   3.139   5.874 -2.5434 -1.2280  1.7942
    4MOL   H202  928   2.047   3.232   5.747  2.1624  0.3665  0.1969
    4MOL   H203  929   1.739   3.040   5.951 -0.5928 -1.5353  0.6752
    4MOL   H204  930   1.792   3.075   6.114  0.2722 -0.4229 -0.1119
    4MOL   H205  931   1.844   2.921   6.029 -0.0786 -0.1107  0.7585
    4MOL   C206  932   2.031   3.437   5.814 -0.8013  0.1978  0.7046
    4MOL   C207  933   1.906   3.498   5.741  0.4704 -0.0969  0.3357
    4MOL   C208  934   1.919   3.649   5.700 -0.1108 -0.0479  0.5883
    4MOL   O209  935   2.030   3.700   5.684  0.3047 -0.0477 -0.1565
    4MOL   O210  936   1.792   3.713   5.680 -1.0550  0.1085 -0.0853
    4MOL   C211  937   1.785   3.854   5.656 -0.3078 -0.1931 -0.5899
    4MOL   H212  938   2.032   3.479   5.914 -0.3235  0.8819  0.4204
    4MOL   H213  939   2.122   3.463   5.760 -0.5746 -0.5285  0.7318
    4MOL   H214  940   1.826   3.509   5.814 -1.2660 -1.6567 -1.2862
    4MOL   H215  941   1.861   3.871   5.579  0.3717 -2.7751 -0.5466
    4MOL   H216  942   1.821   3.917   5.737  1.5487  0.1790 -1.6569
    4MOL   H217  943   1.693   3.894   5.614 -0.4006 -0.6762 -0.8557
    4MOL   C218  944   1.841   3.412   5.624  0.2000  0.5186 -0.0823
    4MOL   C219  945   1.927   3.400   5.500  0.1198  0.9476  0.1959
    4MOL   C220  946   2.010   3.264   5.487 -0.0813  0.1279  0.0286
    4MOL   O221  947   2.133   3.265   5.487 -0.5575 -0.7274  0.2645
    4MOL   O222  948   1.940   3.160   5.472  0.0291 -0.4124  0.0952
    4MOL   C223  949   1.996   3.032   5.512  0.2132  0.4661  0.6991
    4MOL   H224  950   1.801   3.315   5.651  1.6663 -0.1088 -0.0732
    4MOL   H225  951   1.751   3.457   5.584 -0.8289 -0.4783  1.0927
    4MOL   H226  952   2.014   3.465   5.515  0.1839  0.9463 -0.1606
    4MOL   H227  953   2.087   2.994   5.464  0.0551  0.2778  0.5473
    4MOL   H228  954   1.919   2.956   5.503  0.1005  0.4917  1.4108
    4MOL   H229  955   2.019   3.041   5.618  0.5927 -1.7516  0.8310
    4MOL   C230  956   1.847   3.439   5.371 -0.4397  0.2271 -0.2091
    4MOL   C231  957   1.849   3.592   5.336 -0.0855  0.2466  0.6913
    4MOL   C232  958   1.983   3.655   5.294 -0.2892 -0.1581  0.7696
    4MOL   O233  959   2.083   3.584   5.296  0.3963  0.2489 -0.2625
    4MOL   O234  960   1.965   3.784   5.277 -0.5951  0.2563  0.6723
    4MOL   C235  961   2.074   3.865   5.233  0.5454  0.1737  0.4568
    4MOL   H236  962   1.885   3.371   5.294 -0.4082 -1.7874  1.5596
    4MOL   H237  963   1.746   3.399   5.377  0.5210 -1.8787  2.8225
    4MOL   H238  964   1.818   3.648   5.425 -0.2987  0.2155  0.6372
    4MOL   H239  965   2.128   3.891   5.324  1.9413 -3.0887  0.6360
    4MOL   H240  966   2.034   3.952   5.181 -0.0741 -0.4996 -0.2108
    4MOL   H241  967   2.147   3.811   5.173  0.7717 -0.3616  1.2024
    4MOL   H242  968   1.777   3.610   5.257  0.0819 -0.0592  0.4725
    5MOL     C1  969   0.971   1.451   5.754  0.0403 -0.3822  0.7283
    5MOL     C2  970   0.828   1.401   5.714  0.5411 -0.5026 -0.1231
    5MOL     C3  971   0.722   1.445   5.820  0.7055 -0.5430 -0.1781
    5MOL     O4  972   0.734   1.549   5.882 -0.2551 -0.1164  0.3063
    5MOL     O5  973   0.623   1.355   5.821  0.3141 -0.0273 -0.1015
    5MOL     C6  974   0.518   1.375   5.911 -0.1850 -0.0581  0.4185
    5MOL     H7  975   0.983   1.559   5.746 -0.6896 -0.4066 -1.0473
    5MOL     H8  976   1.041   1.410   5.681 -1.2455  0.6832 -1.1842
    5MOL     H9  977   0.823   1.294   5.693  1.2918 -0.5440 -0.0830
    5MOL    H10  978   0.560   1.403   6.008 -1.2681  3.5317 -0.0628
    5MOL    H11  979   0.459   1.284   5.921 -1.3784  0.8155  1.5189
    5MOL    H12  980   0.472   1.459   5.859  1.4940  0.6905  0.1335
    5MOL    H13  981   1.000   1.407   5.849  0.8695 -0.8399  0.2636
    5MOL    C14  982   0.790   1.458   5.575  0.4290 -0.2079  0.5205
    5MOL    C15  983   0.645   1.432   5.518  0.6712  0.0301 -0.3501
    5MOL    C16  984   0.617   1.526   5.399 -0.3043  0.2931 -0.3165
    5MOL    O17  985   0.547   1.628   5.414  0.2534 -0.1024 -0.0751
    5MOL    O18  986   0.677   1.492   5.286 -0.2498 -0.1885  0.0137
    5MOL    C19  987   0.658   1.567   5.170  0.1525  0.2216  0.1244
    5MOL    H20  988   0.803   1.566   5.580 -1.3619 -0.0312  1.8600
    5MOL    H21  989   0.867   1.418   5.509 -2.7996 -2.6608 -1.9593
    5MOL    H22  990   0.567   1.450   5.592  1.3599  2.5990 -0.2072
    5MOL    H23  991   0.728   1.536   5.093 -1.3288  0.1023 -1.2089
    5MOL    H24  992   0.673   1.673   5.188 -0.3705  0.0522  1.6078
    5MOL    H25  993   0.555   1.560   5.135  0.1280  0.8854  0.0518
    5MOL    C26  994   0.627   1.285   5.482  0.5400 -0.1544  0.0420
    5MOL    C27  995   0.487   1.237   5.435  0.3314  0.1364  0.4349
    5MOL    C28  996   0.452   1.265   5.284  0.3597 -0.1126  0.1104
    5MOL    O29  997   0.478   1.188   5.196  0.2641 -0.4670 -0.0336
    5MOL    O30  998   0.391   1.384   5.262  0.2253  0.1538 -0.3007
    5MOL    C31  999   0.326   1.414   5.140 -0.0637 -0.0405  0.5473
    5MOL    H32 1000   0.696   1.240   5.411  1.9427  1.7660  0.1707
    5MOL    H33 1001   0.662   1.225   5.566  0.4699 -0.4271 -0.1232
    5MOL    H34 1002   0.417   1.290   5.500 -0.7082 -0.2876 -0.3403
    5MOL    H35 1003   0.249   1.342   5.115 -0.8183  1.3034 -1.1245
    5MOL    H36 1004   0.403   1.411   5.063  1.1563  1.1953  1.6680
    5MOL    H37 1005   0.277   1.512   5.144  1.2981  0.6006  2.5005
    5MOL    C38 1006   0.482   1.083   5.460  0.3624 -0.0234  0.0173
    5MOL    C39 1007   0.444   1.055   5.610  0.4197 -0.0851  1.1056
    5MOL    C40 1008   0.300   1.094   5.640  0.6894  0.3504  0.2683
    5MOL    O41 1009   0.200   1.050   5.585 -0.4953 -0.0871  0.2094
    5MOL    O42 1010   0.291   1.193   5.733 -0.6280  0.0114  0.0389
    5MOL    C43 1011   0.168   1.238   5.776  1.3605  0.3296  0.7130
    5MOL    H44 1012   0.408   1.033   5.398  0.7024  0.4653 -0.7802
    5MOL    H45 1013   0.573   1.035   5.425  0.0544 -1.2122  0.8413
    5MOL    H46 1014   0.518   1.115   5.663  0.7349 -0.5042  1.1488
    5MOL    H47 1015   0.081   1.223   5.712  0.9716 -0.0787  1.3357
    5MOL    H48 1016   0.166   1.347   5.770 -0.0923  0.2681 -0.2765
    5MOL    H49 1017   0.145   1.208   5.878  2.0965 -0.2637  0.7048
    5MOL    C50 1018   0.455   0.903   5.628  1.1097  0.5246 -0.2383
    5MOL    C51 1019   0.428   0.856   5.772 -0.3774 -0.2780  0.3515
    5MOL    C52 1020   0.434   0.700   5.763  0.0314 -0.4685  0.0943
    5MOL    O53 1021   0.333   0.631   5.786  0.0908  0.1420 -0.4200
    5MOL    O54 1022   0.551   0.650   5.728 -0.0451 -0.5922 -0.4888
    5MOL    C55 1023   0.563   0.508   5.728 -0.1280  0.2294 -0.3993
    5MOL    H56 1024   0.398   0.849   5.553  1.8767 -0.4054 -0.1616
    5MOL    H57 1025   0.553   0.879   5.589  0.7124  0.7299 -1.3728
    5MOL    H58 1026   0.332   0.873   5.819  0.5865  0.9404  1.9503
    5MOL    H59 1027   0.661   0.465   5.709 -1.0726 -2.3351  0.3953
    5MOL    H60 1028   0.492   0.464   5.658 -0.6234  0.5195 -0.0841
    5MOL    H61 1029   0.543   0.475   5.829  1.6189 -1.5282 -0.5857
    5MOL    C62 1030   0.538   0.904   5.874 -0.0215  0.1295  0.1123
    5MOL    C63 1031   0.517   0.889   6.027 -0.2227 -0.3883  0.2118
    5MOL    C64 1032   0.402   0.976   6.070  0.3401  0.1138 -0.2844
    5MOL    O65 1033   0.421   1.087   6.120 -0.2381  0.2627  0.2629
    5MOL    O66 1034   0.282   0.927   6.049 -0.1941  0.0504  0.1707
    5MOL    C67 1035   0.168   0.996   6.105  0.7719  0.3190  0.7172
    5MOL    H68 1036   0.628   0.852   5.842 -0.2368  0.7938 -1.6612
    5MOL    H69 1037   0.567   1.009   5.864  2.9593 -0.4906  1.6427
    5MOL    H70 1038   0.605   0.932   6.076 -0.8622  0.2712  0.8138
    5MOL    H71 1039   0.169   1.104   6.090 -0.8422  0.3067  0.4548
    5MOL    H72 1040   0.162   0.980   6.213 -0.9905 -0.3348  0.5446
    5MOL    H73 1041   0.073   0.954   6.072  1.3271 -0.1708 -0.2722
    5MOL    C74 1042   0.509   0.745   6.075  0.2065 -0.2114 -0.1046
    5MOL    C75 1043   0.583   0.718   6.209  0.9547  0.1593  0.4590
    5MOL    C76 1044   0.505   0.749   6.337 -0.9682  0.4912  0.5101
    5MOL    O77 1045   0.563   0.819   6.425  0.6601 -0.2104  0.2427
    5MOL    O78 1046   0.379   0.709   6.332 -0.2544  0.1440 -0.0849
    5MOL    C79 1047   0.304   0.724   6.449 -0.6494  0.0699 -0.2602
    5MOL    H80 1048   0.403   0.723   6.089  0.4628 -1.1290  0.4079
    5MOL    H81 1049   0.521   0.661   6.008 -2.3937 -1.3569  0.7905
    5MOL    H82 1050   0.667   0.788   6.217  1.0679  0.1285 -0.4144
    5MOL    H83 1051   0.260   0.821   6.472  0.2814  0.8161 -1.5698
    5MOL    H84 1052   0.371   0.690   6.529  1.9349  3.2827 -0.9351
    5MOL    H85 1053   0.218   0.659   6.462 -1.8352  1.1802 -2.2366
    5MOL    C86 1054   0.645   0.572   6.216  0.8720 -0.2904 -0.5515
    5MOL    C87 1055   0.736   0.532   6.101  0.5191 -0.4336  0.2692
    5MOL    C88 1056   0.854   0.625   6.092 -0.3907  0.5419 -0.2892
    5MOL    O89 1057   0.882   0.693   5.994 -0.5059  0.2935  0.2609
    5MOL    O90 1058   0.925   0.622   6.211 -0.6418 -0.8113  1.1140
    5MOL    C91 1059   1.047   0.700   6.207 -0.9166 -0.4313  0.3774
    5MOL    H92 1060   0.704   0.554   6.305  0.0720 -1.4250 -0.2443
    5MOL    H93 1061   0.559   0.506   6.220  0.4289  0.3100 -0.0102
    5MOL    H94 1062   0.675   0.546   6.011  2.1769  0.8758 -0.6685
    5MOL    H95 1063   1.097   0.674   6.113  0.5965  0.2907  0.9739
    5MOL    H96 1064   1.111   0.683   6.294 -2.0948  2.9284  1.9698
    5MOL    H97 1065   1.040   0.807   6.221  1.4806  0.1421 -2.3116
    5MOL    C98 1066   0.777   0.384   6.105 -0.0551  0.2438  0.4847
    5MOL    C99 1067   0.825   0.323   5.968  0.0178  0.0076 -0.0383
    5MOL   C100 1068   0.977   0.352   5.938  0.1639 -0.0728  0.4786
    5MOL   O101 1069   1.070   0.310   6.008 -0.2839 -0.2729  0.7135
    5MOL   O102 1070   0.992   0.424   5.823  0.5428  0.9596 -0.0539
    5MOL   C103 1071   1.126   0.476   5.790  0.1364  0.5554  0.0142
    5MOL   H104 1072   0.850   0.361   6.182  0.4394 -1.4094 -0.4606
    5MOL   H105 1073   0.679   0.341   6.126  0.2659 -0.7397  0.0013
    5MOL   H106 1074   0.767   0.367   5.888 -3.4235  0.0302  2.3547
    5MOL   H107 1075   1.162   0.533   5.876  0.5246  0.7435 -0.2692
    5MOL   H108 1076   1.115   0.546   5.707  0.5333 -0.0101 -0.5147
    5MOL   H109 1077   1.184   0.390   5.757 -0.9168 -0.3512  0.5156
    5MOL   C110 1078   0.798   0.173   5.972 -0.1573 -0.5474 -0.4800
    5MOL   C111 1079   0.842   0.103   5.845  0.2499 -0.3977 -0.1907
    5MOL   C112 1080   0.838   7.881   5.864 -0.4370  0.5563 -0.1693
    5MOL   O113 1081   0.937   7.808   5.876 -0.0216 -0.5132 -0.1754
    5MOL   O114 1082   0.710   7.839   5.866 -0.3260 -0.6706 -0.2997
    5MOL   C115 1083   0.678   7.705   5.899  0.4471 -1.0348 -0.1754
    5MOL   H116 1084   0.842   0.133   6.063 -0.1108  0.1380 -0.2016
    5MOL   H117 1085   0.692   0.155   5.992  0.3356 -2.2392  0.7440
    5MOL   H118 1086   0.949   0.122   5.838 -0.0017  0.7378 -1.0728
    5MOL   H119 1087   0.576   7.682   5.869  0.1563  1.8451 -1.5622
    5MOL   H120 1088   0.683   7.708   6.008 -1.9122  0.5068 -0.0699
    5MOL   H121 1089   0.742   7.633   5.848  0.1196 -1.1705 -0.3942
    5MOL   C122 1090   0.768   0.145   5.719 -0.1660  0.1077  0.1765
    5MOL   C123 1091   0.861   0.134   5.601  0.0341 -0.4987 -0.4418
    5MOL   C124 1092   0.886   7.921   5.559  0.3640 -0.3441 -0.6594
    5MOL   O125 1093   0.799   7.857   5.504 -0.4536  0.1431 -0.5673
    5MOL   O126 1094   1.015   7.883   5.575  0.3948 -0.0452  0.4623
    5MOL   C127 1095   1.053   7.748   5.550 -0.1729 -0.1859  0.1955
    5MOL   H128 1096   0.675   0.094   5.696 -0.1445  0.7199 -1.3453
    5MOL   H129 1097   0.736   0.250   5.722  0.2541  0.3113 -1.9895
    5MOL   H130 1098   0.959   0.171   5.630 -0.6715  2.1164 -1.3025
    5MOL   H131 1099   0.997   7.733   5.458 -1.5080  3.8732  0.2483
    5MOL   H132 1100   1.029   7.685   5.635  0.5173 -0.0689  0.4837
    5MOL   H133 1101   1.160   7.734   5.535 -0.3534  0.6858 -2.1616
    5MOL   C134 1102   0.821   0.212   5.478 -0.2472  0.6100  0.0461
    5MOL   C135 1103   0.882   0.360   5.478 -0.1171  0.2644 -0.5512
    5MOL   C136 1104   1.036   0.355   5.440 -0.2520  0.7625 -0.2898
    5MOL   O137 1105   1.127   0.329   5.520 -0.2510 -0.7704 -0.1872
    5MOL   O138 1106   1.049   0.346   5.302 -0.0370  0.0022  0.2919
    5MOL   C139 1107   1.179   0.329   5.251  0.0503 -0.4673  0.5946
    5MOL   H140 1108   0.846   0.152   5.391 -1.3491  1.4499 -0.8625
    5MOL   H141 1109   0.712   0.217   5.483 -0.4589  0.0450 -3.2588
    5MOL   H142 1110   0.873   0.391   5.582 -1.6706 -0.8582 -0.3439
    5MOL   H143 1111   1.184   0.302   5.145 -0.6413 -0.4692  0.5622
    5MOL   H144 1112   1.216   0.242   5.306 -0.7861 -1.2566 -0.0575
    5MOL   H145 1113   1.238   0.417   5.276 -0.8177  0.6425 -1.1548
    5MOL   C146 1114   0.793   0.451   5.392 -0.8634  0.7618  0.1247
    5MOL   C147 1115   0.848   0.598   5.378 -0.2022  1.0273  0.2608
    5MOL   C148 1116   0.767   0.670   5.261 -0.4311 -0.0937 -0.4134
    5MOL   O149 1117   0.823   0.701   5.158  0.9766  0.5984 -0.1304
    5MOL   O150 1118   0.641   0.689   5.289  1.1848 -0.4063 -0.2043
    5MOL   C151 1119   0.560   0.741   5.184 -0.1834 -0.0002 -0.2893
    5MOL   H152 1120   0.802   0.400   5.296 -0.3000  0.9819  0.0596
    5MOL   H153 1121   0.691   0.447   5.429 -0.9226  1.0729 -0.0025
    5MOL   H154 1122   0.948   0.583   5.339 -1.8457 -1.8625 -3.1679
    5MOL   H155 1123   0.592   0.838   5.146 -1.1264  0.6458  0.5282
    5MOL   H156 1124   0.457   0.743   5.219  0.5620  0.1057  1.9563
    5MOL   H157 1125   0.568   0.673   5.099 -0.7359 -0.3329 -0.0786
    5MOL   C158 1126   0.826   0.669   5.526  0.1228 -0.3483 -0.0333
    5MOL   C159 1127   0.928   0.780   5.546 -0.6703  0.4224  0.3402
    5MOL   C160 1128   0.881   0.906   5.475 -0.4466  0.6574  0.0552
    5MOL   O161 1129   0.803   0.984   5.529 -0.7270 -0.2011  0.1668
    5MOL   O162 1130   0.926   0.911   5.350 -0.1599  0.4425  0.9298
    5MOL   C163 1131   0.879   1.013   5.264 -0.5977  0.6242 -0.8781
    5MOL   H164 1132   0.723   0.703   5.536 -0.1000 -0.4205 -1.8024
    5MOL   H165 1133   0.836   0.589   5.599 -0.7869  0.0241  0.5041
    5MOL   H166 1134   1.021   0.748   5.499 -0.5842 -0.4027  1.0712
    5MOL   H167 1135   0.912   1.117   5.276 -0.6896  0.6091 -0.4918
    5MOL   H168 1136   0.771   1.014   5.254 -0.6922 -0.1154  0.0326
    5MOL   H169 1137   0.925   0.991   5.168 -0.5698  1.3487 -1.0381
    5MOL   C170 1138   0.953   0.803   5.694 -0.2195 -0.5766  0.6965
    5MOL   C171 1139   1.041   0.919   5.738 -0.4853 -0.3957 -0.5168
    5MOL   C172 1140   1.022   0.961   5.880  0.2235  0.1927 -0.5000
    5MOL   O173 1141   1.099   0.942   5.971 -0.9646 -0.6199 -0.1937
    5MOL   O174 1142   0.903   1.026   5.889  0.5891  0.5407  0.3393
    5MOL   C175 1143   0.857   1.069   6.016 -0.0146  0.4860  0.0599
    5MOL   H176 1144   0.856   0.817   5.742  0.3740  0.6634  1.5828
    5MOL   H177 1145   1.001   0.720   5.745  0.0126  0.2220  1.8142
    5MOL   H178 1146   1.010   1.015   5.695  0.5562  0.6282  0.9652
    5MOL   H179 1147   0.870   0.988   6.088  2.4176 -1.0417 -1.9925
    5MOL   H180 1148   0.754   1.104   6.010 -0.3109  0.3094  3.1367
    5MOL   H181 1149   0.917   1.152   6.051  0.3728 -0.3258  1.3746
    5MOL   C182 1150   1.191   0.896   5.697  0.0044 -0.0716 -0.2338
    5MOL   C183 1151   1.226   0.951   5.557 -0.1072 -0.1224 -0.0848
    5MOL   C184 1152   1.187   1.097   5.546 -1.1765  0.0497 -0.1684
    5MOL   O185 1153   1.198   1.172   5.642  0.7141  0.1781  0.2998
    5MOL   O186 1154   1.159   1.135   5.421 -0.0613  0.2973 -0.1176
    5MOL   C187 1155   1.151   1.275   5.388 -0.1182  0.5647  0.2786
    5MOL   H188 1156   1.255   0.955   5.763  0.5607  0.4939 -1.2611
    5MOL   H189 1157   1.226   0.794   5.710  2.5694  0.7903  0.0618
    5MOL   H190 1158   1.155   0.905   5.488 -1.4203  2.5582 -0.6147
    5MOL   H191 1159   1.167   1.308   5.285 -0.5116  1.1247  0.4006
    5MOL   H192 1160   1.227   1.328   5.445  0.2178 -0.1451  0.4942
    5MOL   H193 1161   1.055   1.311   5.424 -0.0748 -1.0841  2.1513
    5MOL   C194 1162   1.365   0.916   5.503  0.3020  0.5716 -0.0541
    5MOL   C195 1163   1.387   0.804   5.394 -0.2990  0.3449 -0.5124
    5MOL   C196 1164   1.355   0.664   5.454 -0.2025  0.2003  0.6320
    5MOL   O197 1165   1.247   0.611   5.440  0.1939  0.3061  0.6004
    5MOL   O198 1166   1.465   0.618   5.515 -0.3700 -0.7362 -0.1589
    5MOL   C199 1167   1.455   0.493   5.575  0.3889  0.5632 -0.1961
    5MOL   H200 1168   1.390   1.016   5.467 -1.9658  2.8537  4.1838
    5MOL   H201 1169   1.437   0.902   5.584  0.2785  0.1473 -0.1058
    5MOL   H202 1170   1.496   0.810   5.382 -0.0576  3.8603  2.6011
    5MOL   H203 1171   1.352   0.459   5.590  0.3825  0.5743 -0.2146
    5MOL   H204 1172   1.505   0.488   5.672 -0.1082  1.5877  0.1155
    5MOL   H205 1173   1.515   0.427   5.512 -0.6123  1.5414 -2.2092
    5MOL   C206 1174   1.313   0.816   5.257 -0.7803  0.5324 -0.2231
    5MOL   C207 1175   1.309   0.945   5.174 -0.0817  0.5944 -0.2847
    5MOL   C208 1176   1.451   1.005   5.162 -0.3695  0.4855  0.2974
    5MOL   O209 1177   1.486   1.101   5.226  0.1001  0.6162 -0.0041
    5MOL   O210 1178   1.530   0.929   5.093 -0.1280 -0.9548  0.0665
    5MOL   C211 1179   1.663   0.972   5.075  0.7786  0.0968  0.3703
    5MOL   H212 1180   1.355   0.739   5.193 -0.9080  0.1672  0.1325
    5MOL   H213 1181   1.208   0.797   5.280 -0.3101 -0.0856  1.4701
    5MOL   H214 1182   1.250   1.020   5.226 -2.3548 -0.2221 -1.6007
    5MOL   H215 1183   1.709   0.884   5.029  2.5077  1.9753 -1.5691
    5MOL   H216 1184   1.721   1.013   5.158 -1.4379 -1.2417  2.6573
    5MOL   H217 1185   1.662   1.055   5.004  0.0408 -0.9336 -0.8503
    5MOL   C218 1186   1.241   0.920   5.038  0.5074  0.4920  0.7533
    5MOL   C219 1187   1.238   1.033   4.936 -0.1357 -0.5468  0.1915
    5MOL   C220 1188   1.189   0.981   4.797  0.1037  0.5647 -0.5924
    5MOL   O221 1189   1.237   1.018   4.690  0.7053  0.0160  0.1729
    5MOL   O222 1190   1.100   0.883   4.804  0.6216  0.0510  0.1839
    5MOL   C223 1191   1.051   0.835   4.683  0.0787  0.3788 -0.0206
    5MOL   H224 1192   1.300   0.840   4.992  0.1420 -1.4364  3.4584
    5MOL   H225 1193   1.142   0.881   5.063 -0.3710  3.1848  1.5911
    5MOL   H226 1194   1.335   1.081   4.929 -1.1594  1.6805  0.9595
    5MOL   H227 1195   1.013   0.928   4.641  1.0503 -0.7505 -3.6269
    5MOL   H228 1196   0.972   0.761   4.697 -2.0333  3.1832  3.5993
    5MOL   H229 1197   1.135   0.807   4.619  0.0892  1.2154 -0.3812
    5MOL   C230 1198   1.140   1.141   4.984 -0.1679 -0.1023  0.1201
    5MOL   C231 1199   1.161   1.289   4.943 -0.0807  0.4140 -0.1058
    5MOL   C232 1200   1.085   1.327   4.811 -0.0985  0.4034 -0.3465
    5MOL   O233 1201   1.146   1.324   4.706 -0.2846 -0.6402 -0.6978
    5MOL   O234 1202   0.973   1.375   4.837 -0.0759 -0.0737  0.2236
    5MOL   C235 1203   0.892   1.437   4.741  0.2377 -0.3062  0.0602
    5MOL   H236 1204   1.037   1.109   4.969 -0.6720  2.1774 -1.5202
    5MOL   H237 1205   1.147   1.143   5.093 -0.5525  0.9218  0.1359
    5MOL   H238 1206   1.267   1.300   4.920  0.2836 -1.8211  0.3664
    5MOL   H239 1207   0.865   1.356   4.674  2.8768 -1.6081  0.5035
    5MOL   H240 1208   0.948   1.517   4.693 -0.0748  1.2078  2.1172
    5MOL   H241 1209   0.798   1.479   4.779  1.5731  1.2565  1.7081
    5MOL   H242 1210   1.124   1.357   5.020 -4.6464 -1.3964 -0.5618
    6MOL     C1 1211   2.771   0.792   5.865 -0.1625  0.1248 -1.0329
    6MOL     C2 1212   2.792   0.757   6.014 -0.2088  0.1548 -0.2659
    6MOL     C3 1213   2.852   0.881   6.084  0.0791  0.5933  0.2337
    6MOL     O4 1214   2.823   0.990   6.041 -0.0544  0.0828 -0.2139
    6MOL     O5 1215   2.920   0.853   6.196  1.1042 -0.3267 -0.0697
    6MOL     C6 1216   2.958   0.968   6.270  0.7176 -0.6280  0.6168
    6MOL     H7 1217   2.705   0.719   5.817  0.1653  0.6884 -2.3502
    6MOL     H8 1218   2.870   0.805   5.820 -0.0036  2.0725 -0.1605
    6MOL     H9 1219   2.863   0.675   6.008 -0.7809 -0.2742 -1.4358
    6MOL    H10 1220   3.011   0.923   6.354  1.8811 -3.2798 -1.5066
    6MOL    H11 1221   2.866   1.016   6.306 -0.5740 -2.5501 -0.0649
    6MOL    H12 1222   3.028   1.031   6.215 -0.2587 -1.2953 -1.4402
    6MOL    H13 1223   2.701   0.873   5.849 -0.7979 -0.0622  0.7024
    6MOL    C14 1224   2.666   0.711   6.086  0.0525  0.1183  0.4880
    6MOL    C15 1225   2.693   0.623   6.216 -0.4568 -0.1320  0.4275
    6MOL    C16 1226   2.562   0.606   6.299 -0.2652 -0.7576  0.2057
    6MOL    O17 1227   2.462   0.555   6.250 -0.2432  0.2890 -0.2721
    6MOL    O18 1228   2.572   0.665   6.429 -0.0896 -0.0041  0.0911
    6MOL    C19 1229   2.454   0.658   6.505  0.7467 -0.0021 -0.6189
    6MOL    H20 1230   2.584   0.782   6.093 -0.3616 -0.3480  0.3824
    6MOL    H21 1231   2.629   0.639   6.013 -1.2398 -0.0883  1.3302
    6MOL    H22 1232   2.772   0.665   6.278 -0.5180  0.4479  0.1216
    6MOL    H23 1233   2.458   0.700   6.605  0.6513  0.9607 -1.0122
    6MOL    H24 1234   2.416   0.556   6.520  3.8707 -0.9450  1.2279
    6MOL    H25 1235   2.379   0.724   6.461  1.2577  0.4548 -0.8075
    6MOL    C26 1236   2.734   0.482   6.172 -0.1958  0.2979 -0.8641
    6MOL    C27 1237   2.780   0.375   6.277 -0.3807 -0.2495  0.0554
    6MOL    C28 1238   2.805   0.246   6.214  0.2043  0.7912  0.1466
    6MOL    O29 1239   2.729   0.151   6.227  0.0593  0.3610 -0.0982
    6MOL    O30 1240   2.919   0.237   6.153 -0.2237  0.6387  0.0054
    6MOL    C31 1241   2.970   0.111   6.097 -0.1074 -0.1313 -0.0076
    6MOL    H32 1242   2.655   0.430   6.117  0.9696 -0.3812 -1.9033
    6MOL    H33 1243   2.811   0.483   6.095 -0.1828  0.6543 -0.8459
    6MOL    H34 1244   2.700   0.357   6.349  0.8618  2.2228  2.1669
    6MOL    H35 1245   2.930   0.019   6.141 -0.1227 -0.6304 -1.0544
    6MOL    H36 1246   3.077   0.104   6.112  0.1927  2.0539 -0.9953
    6MOL    H37 1247   2.929   0.100   5.997  1.7083 -0.1398 -0.7671
    6MOL    C38 1248   2.883   0.439   6.371  0.2213 -0.2168  0.0343
    6MOL    C39 1249   2.973   0.343   6.458  0.1050  0.1745 -0.1652
    6MOL    C40 1250   3.100   0.418   6.522  0.3010 -0.8765  0.7240
    6MOL    O41 1251   3.202   0.355   6.565 -0.1757  0.5610  0.3076
    6MOL    O42 1252   3.091   0.553   6.515  0.3333 -0.4714 -0.1392
    6MOL    C43 1253   3.185   0.629   6.583  0.3388  0.1690 -0.3577
    6MOL    H44 1254   2.951   0.503   6.314  0.0582  0.2628  0.3749
    6MOL    H45 1255   2.834   0.503   6.444  1.7454 -1.0505  1.8413
    6MOL    H46 1256   3.007   0.264   6.391 -1.0038  0.3868 -0.9912
    6MOL    H47 1257   3.284   0.627   6.536 -0.0950  1.9341 -1.3745
    6MOL    H48 1258   3.200   0.604   6.688 -1.0396  0.7875 -0.0051
    6MOL    H49 1259   3.143   0.729   6.574 -0.0777 -0.0805 -1.2340
    6MOL    C50 1260   2.886   0.273   6.575 -0.0759  0.0364 -0.2048
    6MOL    C51 1261   2.946   0.135   6.621  0.7162  0.1083  0.0803
    6MOL    C52 1262   2.876   0.082   6.747  0.9029 -0.0941  0.2685
    6MOL    O53 1263   2.936   0.059   6.853  0.3328 -0.0397  0.6540
    6MOL    O54 1264   2.745   0.067   6.730 -0.1980  0.4805  0.3161
    6MOL    C55 1265   2.668   0.024   6.839 -0.2415 -0.2651 -0.5261
    6MOL    H56 1266   2.877   0.339   6.662 -1.4688 -1.1206  0.5588
    6MOL    H57 1267   2.787   0.250   6.537  0.0733 -0.5184 -0.2661
    6MOL    H58 1268   3.044   0.174   6.650 -0.7991  2.7321  1.9521
    6MOL    H59 1269   2.566   0.029   6.800  0.4380 -0.7804 -2.4450
    6MOL    H60 1270   2.671   0.106   6.911  1.6106 -0.4916 -0.3259
    6MOL    H61 1271   2.696   7.859   6.878 -1.8646 -0.1768  0.9139
    6MOL    C62 1272   2.935   0.037   6.506  0.2076 -0.1894  0.0727
    6MOL    C63 1273   3.032   7.858   6.504  0.8146  0.4432  0.4152
    6MOL    C64 1274   3.182   7.914   6.498  0.4670  0.0756  0.3744
    6MOL    O65 1275   3.273   7.880   6.569 -0.2675 -0.1088  0.5881
    6MOL    O66 1276   3.186   0.060   6.394 -0.5103  0.4321 -0.1391
    6MOL    C67 1277   3.312   0.118   6.352 -0.4293 -0.0469 -0.7359
    6MOL    H68 1278   2.835   7.926   6.507  0.3051 -0.4112  2.4301
    6MOL    H69 1279   2.927   0.094   6.413  1.1448 -0.9009 -0.4440
    6MOL    H70 1280   3.009   7.813   6.407  1.0817  0.3565  0.3898
    6MOL    H71 1281   3.321   0.123   6.244 -0.8198  1.3440 -0.7076
    6MOL    H72 1282   3.401   0.063   6.380  0.8503  2.6322  0.6698
    6MOL    H73 1283   3.321   0.215   6.401  1.1672 -0.3973 -0.3325
    6MOL    C74 1284   3.023   7.746   6.606  0.2209  0.2210 -0.5367
    6MOL    C75 1285   2.886   7.680   6.618 -0.0902  0.0501  0.5728
    6MOL    C76 1286   2.833   7.625   6.485 -0.6354  0.4278 -0.1825
    6MOL    O77 1287   2.718   7.653   6.456  0.3445  0.5332  0.2248
    6MOL    O78 1288   2.912   7.545   6.415 -1.1493  0.2101 -0.0613
    6MOL    C79 1289   2.863   7.485   6.293 -0.3386 -0.4070  0.2914
    6MOL    H80 1290   3.094   7.667   6.578 -0.2821 -1.1077  1.7736
    6MOL    H81 1291   3.055   7.778   6.705 -0.8600  3.2391 -1.1154
    6MOL    H82 1292   2.817   7.753   6.660 -0.0984  0.2728  0.1704
    6MOL    H83 1293   2.912   7.518   6.201 -0.2415 -0.7589  0.2134
    6MOL    H84 1294   2.758   7.508   6.278  0.4764  2.6299 -1.0006
    6MOL    H85 1295   2.884   7.378   6.305 -1.0284 -0.7561 -1.3938
    6MOL    C86 1296   2.909   7.571   6.720  0.5978 -0.7504  0.2700
    6MOL    C87 1297   2.771   7.505   6.759 -0.0813 -0.0130  0.3663
    6MOL    C88 1298   2.764   7.350   6.725 -0.2327  0.7304 -0.6853
    6MOL    O89 1299   2.764   7.260   6.808  0.5775 -0.4836  0.3249
    6MOL    O90 1300   2.741   7.323   6.595 -0.4760  0.5888 -0.2178
    6MOL    C91 1301   2.737   7.187   6.556  0.0929  1.2589  0.1507
    6MOL    H92 1302   2.988   7.499   6.700 -0.3610 -1.5703 -0.5817
    6MOL    H93 1303   2.941   7.623   6.811  1.4805  1.5199 -1.2661
    6MOL    H94 1304   2.690   7.557   6.710  0.4724  0.9386  0.4454
    6MOL    H95 1305   2.767   7.121   6.637  1.9433  0.8242 -0.8736
    6MOL    H96 1306   2.806   7.159   6.477  0.4032 -2.0408  1.5352
    6MOL    H97 1307   2.634   7.158   6.538  0.1416  1.1340  0.0809
    6MOL    C98 1308   2.733   7.531   6.908  0.2857 -0.0672  0.2432
    6MOL    C99 1309   2.587   7.507   6.944 -0.9558 -0.2312 -0.2299
    6MOL   C100 1310   2.592   7.459   7.093  0.2383 -0.4892  0.2950
    6MOL   O101 1311   2.566   7.539   7.189 -0.1596  0.4857  1.0764
    6MOL   O102 1312   2.629   7.328   7.101 -0.1229 -0.1278 -0.0441
    6MOL   C103 1313   2.651   7.267   7.222 -0.3604 -0.2588  0.0769
    6MOL   H104 1314   2.808   7.477   6.965  0.5984  0.8382  0.6961
    6MOL   H105 1315   2.750   7.638   6.923  1.5024 -0.5425  2.3922
    6MOL   H106 1316   2.559   7.418   6.888 -4.3876  0.7569 -0.1523
    6MOL   H107 1317   2.728   7.192   7.203 -0.6304 -0.6611  0.5553
    6MOL   H108 1318   2.563   7.220   7.265 -0.8277  0.7141  0.1968
    6MOL   H109 1319   2.711   7.323   7.294 -0.6151 -0.4023  0.4015
    6MOL   C110 1320   2.482   7.613   6.901 -0.0124 -0.4648 -0.5131
    6MOL   C111 1321   2.381   7.558   6.801  0.0845 -0.2156 -0.7089
    6MOL   C112 1322   2.259   7.488   6.874  0.2545 -0.4407  1.0212
    6MOL   O113 1323   2.230   7.368   6.855 -0.1537 -0.3704 -0.1038
    6MOL   O114 1324   2.188   7.576   6.944 -0.2629 -0.5414 -0.5044
    6MOL   C115 1325   2.052   7.552   6.966  0.3631  0.2584 -0.5494
    6MOL   H116 1326   2.436   7.628   6.999  0.6775 -0.2687 -0.2150
    6MOL   H117 1327   2.539   7.693   6.856  0.1041  0.2769  0.9335
    6MOL   H118 1328   2.430   7.479   6.745  2.0040  0.1202  0.4478
    6MOL   H119 1329   2.010   7.651   6.983  0.9163  0.2980  0.6651
    6MOL   H120 1330   2.037   7.495   7.058 -0.5114  0.8859 -0.2960
    6MOL   H121 1331   2.000   7.500   6.886  1.2204 -1.7036  0.1376
    6MOL   C122 1332   2.324   7.668   6.705  0.0977  0.7527 -0.9731
    6MOL   C123 1333   2.241   7.622   6.581  0.8281  0.6739 -0.3116
    6MOL   C124 1334   2.300   7.497   6.512 -0.1681 -0.2006 -0.0347
    6MOL   O125 1335   2.237   7.396   6.510  0.1914  0.1236  0.0648
    6MOL   O126 1336   2.430   7.514   6.464 -0.1753 -0.1295 -0.2613
    6MOL   C127 1337   2.482   7.408   6.397 -0.0261 -0.2406 -0.1430
    6MOL   H128 1338   2.280   7.743   6.770 -1.1359  1.7587 -2.8975
    6MOL   H129 1339   2.412   7.716   6.660  0.3601 -1.0877 -2.4949
    6MOL   H130 1340   2.242   7.699   6.504  0.0064  2.2595  1.2055
    6MOL   H131 1341   2.521   7.328   6.461  2.0228  0.6833 -0.1754
    6MOL   H132 1342   2.569   7.447   6.343 -0.7103 -0.1400 -1.1863
    6MOL   H133 1343   2.411   7.364   6.327 -1.1646 -0.2905  1.0297
    6MOL   C134 1344   2.088   7.601   6.607 -0.3907 -0.4618  0.3148
    6MOL   C135 1345   2.007   7.724   6.644 -0.8049  0.1588 -1.1192
    6MOL   C136 1346   2.025   7.837   6.542 -0.1312 -0.3785  0.2019
    6MOL   O137 1347   2.066   7.818   6.425 -0.1910 -0.5403 -0.3672
    6MOL   O138 1348   1.994   0.021   6.597 -0.3607  0.0607 -0.2799
    6MOL   C139 1349   2.020   0.140   6.531 -0.4417 -0.5025 -0.1068
    6MOL   H140 1350   2.039   7.572   6.514  0.0810  0.3835 -0.2068
    6MOL   H141 1351   2.075   7.516   6.674 -2.0236  0.5479  1.3127
    6MOL   H142 1352   2.048   7.766   6.736 -4.7581  2.1669 -0.2030
    6MOL   H143 1353   1.931   0.152   6.469 -0.7335  1.8602  0.7042
    6MOL   H144 1354   2.102   0.132   6.460  0.5190 -2.5024  1.1719
    6MOL   H145 1355   2.035   0.226   6.596 -1.6918  0.2085 -0.7329
    6MOL   C146 1356   1.861   7.687   6.681 -0.7730 -0.1432 -0.6316
    6MOL   C147 1357   1.761   7.659   6.562  0.3350 -0.0093  0.2030
    6MOL   C148 1358   1.781   7.537   6.471 -0.1993 -0.1343  0.4426
    6MOL   O149 1359   1.779   7.540   6.346  0.2930  0.3247  0.3108
    6MOL   O150 1360   1.807   7.436   6.548  0.0805  0.6143 -0.5777
    6MOL   C151 1361   1.842   7.313   6.495  0.7571 -0.6949  0.0683
    6MOL   H152 1362   1.879   7.599   6.743  2.1455  1.4935  0.9788
    6MOL   H153 1363   1.821   7.767   6.743  0.6223 -0.3796  0.6072
    6MOL   H154 1364   1.761   7.748   6.500 -0.3205 -0.5956 -0.6537
    6MOL   H155 1365   1.879   7.247   6.573  2.7400 -0.2525 -0.4746
    6MOL   H156 1366   1.930   7.314   6.430  1.4591 -2.2894  0.9723
    6MOL   H157 1367   1.756   7.267   6.446 -0.6585  0.6717  1.2133
    6MOL   C158 1368   1.613   7.649   6.615  0.3526 -0.2393  0.3200
    6MOL   C159 1369   1.500   7.639   6.506  0.3098 -0.1372  0.5438
    6MOL   C160 1370   1.360   7.623   6.567 -0.7331 -0.2324  0.1951
    6MOL   O161 1371   1.313   7.702   6.646  0.8785 -0.2105  0.3260
    6MOL   O162 1372   1.310   7.507   6.530 -0.4586 -0.4394 -0.2835
    6MOL   C163 1373   1.183   7.466   6.566  0.0138  0.3522  0.3339
    6MOL   H164 1374   1.603   7.572   6.692 -3.0835 -0.4503 -0.2732
    6MOL   H165 1375   1.591   7.735   6.678  0.6531  0.5780 -0.6934
    6MOL   H166 1376   1.510   7.552   6.440 -0.0131 -1.1512  1.7992
    6MOL   H167 1377   1.133   7.551   6.612 -0.9255  0.1307 -0.2611
    6MOL   H168 1378   1.180   7.373   6.623 -0.9929 -0.0545 -0.3759
    6MOL   H169 1379   1.127   7.448   6.474  1.1782 -1.6093 -0.0208
    6MOL   C170 1380   1.497   7.763   6.420 -0.0044 -0.2061 -0.1651
    6MOL   C171 1381   1.384   7.768   6.314  0.2844 -0.0399 -0.4857
    6MOL   C172 1382   1.313   7.899   6.294  0.1506 -0.1082  0.2019
    6MOL   O173 1383   1.366   0.073   6.327  0.3076 -0.0206 -0.4795
    6MOL   O174 1384   1.201   7.884   6.228  0.1475  0.2937 -0.2517
    6MOL   C175 1385   1.134   0.063   6.185 -0.6599  0.3179  0.9237
    6MOL   H176 1386   1.492   7.849   6.487 -0.9664 -1.2632  1.1464
    6MOL   H177 1387   1.595   7.767   6.373  0.2351 -1.0027  0.2648
    6MOL   H178 1388   1.305   7.697   6.338  1.6551 -1.1890  0.7370
    6MOL   H179 1389   1.041   0.072   6.242 -0.3424 -1.7338  1.7913
    6MOL   H180 1390   1.103   0.065   6.080  2.1180  1.0285  0.0888
    6MOL   H181 1391   1.190   0.156   6.199 -0.8028  0.6763 -0.7978
    6MOL   C182 1392   1.447   7.738   6.177  0.5229 -0.0934 -0.4703
    6MOL   C183 1393   1.467   7.585   6.153  0.0099  0.1658  0.0452
    6MOL   C184 1394   1.319   7.519   6.143 -0.4133  0.1886 -0.4659
    6MOL   O185 1395   1.281   7.431   6.218 -0.4816 -0.0878 -0.3010
    6MOL   O186 1396   1.249   7.584   6.051 -0.1269 -0.1925  0.0608
    6MOL   C187 1397   1.113   7.558   6.028  0.2930  0.4845  0.3642
    6MOL   H188 1398   1.393   7.779   6.092 -0.6545  2.9033  1.6388
    6MOL   H189 1399   1.544   7.785   6.167  0.6320  0.3692  2.2526
    6MOL   H190 1400   1.514   7.544   6.242  2.5710  2.2541 -0.2891
    6MOL   H191 1401   1.080   7.614   5.941  1.1432 -0.6329 -0.6937
    6MOL   H192 1402   1.058   7.602   6.112  0.2862 -1.4652  1.4045
    6MOL   H193 1403   1.096   7.451   6.035 -2.1525  1.0100  3.7628
    6MOL   C194 1404   1.555   7.566   6.029  0.4110  0.7394  0.6934
    6MOL   C195 1405   1.644   7.437   6.028 -0.0138  0.0687 -0.7921
    6MOL   C196 1406   1.558   7.314   5.997 -0.7252  0.0148 -0.2183
    6MOL   O197 1407   1.543   7.222   6.071 -0.4175 -0.2983  0.0293
    6MOL   O198 1408   1.501   7.325   5.875 -0.3346  0.2072  0.1028
    6MOL   C199 1409   1.431   7.214   5.826  0.0325  0.0262  0.2620
    6MOL   H200 1410   1.502   7.553   5.935  0.3461  0.6092  0.7484
    6MOL   H201 1411   1.619   7.653   6.012 -0.5752  1.1146 -1.2013
    6MOL   H202 1412   1.674   7.427   6.132  2.2502 -1.6866 -1.5496
    6MOL   H203 1413   1.392   7.231   5.725  0.6441  0.2921  0.0721
    6MOL   H204 1414   1.341   7.196   5.885  0.0439  1.3259  0.6985
    6MOL   H205 1415   1.497   7.128   5.819  1.8279  1.4272 -0.5658
    6MOL   C206 1416   1.772   7.444   5.924  0.2334 -0.0503 -0.0976
    6MOL   C207 1417   1.883   7.334   5.936 -0.2107  0.0048 -0.1587
    6MOL   C208 1418   1.946   7.333   6.078 -0.1710 -0.0524 -0.3542
    6MOL   O209 1419   1.885   7.274   6.168 -0.0558  0.0762 -0.2252
    6MOL   O210 1420   2.057   7.410   6.093 -0.3967 -0.2061  0.3394
    6MOL   C211 1421   2.098   7.437   6.230 -0.4200  1.1102  0.9384
    6MOL   H212 1422   1.722   7.464   5.829 -0.9459  1.4395  0.8060
    6MOL   H213 1423   1.819   7.542   5.935 -1.7273  1.0192 -0.9697
    6MOL   H214 1424   1.963   7.379   5.878 -1.3233  0.6925 -1.1746
    6MOL   H215 1425   2.156   7.529   6.218  2.0683 -0.4203  0.7669
    6MOL   H216 1426   2.167   7.367   6.278  2.2438  3.8344  1.2903
    6MOL   H217 1427   2.012   7.445   6.296 -0.3234  0.9088  1.0861
    6MOL   C218 1428   1.850   7.187   5.882  0.5720 -0.2679 -0.1774
    6MOL   C219 1429   1.962   7.104   5.825  0.4383  0.7612  0.0979
    6MOL   C220 1430   1.914   6.967   5.796  0.8534  0.1159 -0.6782
    6MOL   O221 1431   1.946   6.868   5.861 -0.2582 -0.7195 -0.3363
    6MOL   O222 1432   1.832   6.961   5.690 -0.2625 -0.3853  0.0580
    6MOL   C223 1433   1.796   6.839   5.625 -0.7012  1.1153  0.1064
    6MOL   H224 1434   1.804   7.135   5.966  0.8502  1.7913  1.2973
    6MOL   H225 1435   1.768   7.188   5.810  1.9475 -0.7740 -1.7915
    6MOL   H226 1436   2.025   7.089   5.912  0.9171 -2.8211 -0.7753
    6MOL   H227 1437   1.713   6.790   5.675  0.0137 -0.5040 -0.2540
    6MOL   H228 1438   1.867   6.758   5.607 -0.1566  1.5854  0.0896
    6MOL   H229 1439   1.748   6.853   5.529 -1.1909 -0.9258  0.0416
    6MOL   C230 1440   2.040   7.172   5.705 -0.6575  0.3921 -0.5710
    6MOL   C231 1441   2.154   7.085   5.635 -0.0848 -0.1952 -0.3018
    6MOL   C232 1442   2.283   7.059   5.715 -0.2551  0.4248 -0.2254
    6MOL   O233 1443   2.390   7.028   5.658  0.1967  0.0968 -0.1507
    6MOL   O234 1444   2.266   7.076   5.844 -0.9496 -0.0047  0.0108
    6MOL   C235 1445   2.363   7.027   5.931 -0.0388 -0.2483  0.2322
    6MOL   H236 1446   1.971   7.194   5.624  2.5570 -0.2794 -3.6305
    6MOL   H237 1447   2.088   7.267   5.727  1.1948 -0.8776  1.1310
    6MOL   H238 1448   2.204   7.131   5.550 -1.1636  2.3249  0.3693
    6MOL   H239 1449   2.459   7.074   5.914  0.4392 -1.2893  0.0022
    6MOL   H240 1450   2.378   6.920   5.917 -0.1069 -0.4751  1.7586
    6MOL   H241 1451   2.332   7.054   6.032  1.2182  1.7290  0.1216
    6MOL   H242 1452   2.121   6.985   5.610  0.0030 -0.2229 -0.3097
    7MOL     C1 1453   6.167   2.470   1.984  0.2358  0.5682 -0.2021
    7MOL     C2 1454   6.172   2.536   2.118 -0.3776 -0.5278 -0.3043
    7MOL     C3 1455   6.137   2.433   2.222  0.0319  0.4697  0.6439
    7MOL     O4 1456   6.214   2.369   2.289 -0.0115 -0.3549  0.1212
    7MOL     O5 1457   6.007   2.410   2.210 -0.0515  0.5858 -0.1667
    7MOL     C6 1458   5.950   2.304   2.289  0.2667  0.9097  0.3064
    7MOL     H7 1459   6.175   2.544   1.905  2.1440 -0.1810 -0.7316
    7MOL     H8 1460   6.067   2.429   1.966  0.1943  0.6513 -0.1592
    7MOL     H9 1461   6.094   2.612   2.114  1.3858  1.2929 -1.1569
    7MOL    H10 1462   5.941   2.212   2.231  1.7469 -0.4850  2.2340
    7MOL    H11 1463   5.853   2.339   2.325  1.0225  2.2055  1.1228
    7MOL    H12 1464   6.010   2.273   2.375  1.5807 -0.6627 -1.1339
    7MOL    H13 1465   6.239   2.388   1.978 -0.6089 -0.1701 -0.3445
    7MOL    C14 1466   6.299   2.609   2.141 -0.2416  0.4713  0.0292
    7MOL    C15 1467   6.337   2.732   2.057 -0.2771  0.5509  0.2586
    7MOL    C16 1468   6.234   2.841   2.060 -0.2515  0.6585  0.2412
    7MOL    O17 1469   6.174   2.874   2.161 -0.6258 -0.4368  0.5520
    7MOL    O18 1470   6.212   2.894   1.940 -0.0881 -0.3570 -0.0497
    7MOL    C19 1471   6.138   3.014   1.929 -0.1145 -0.0402 -0.3446
    7MOL    H20 1472   6.306   2.643   2.245 -1.3729 -0.4972  0.4338
    7MOL    H21 1473   6.365   2.524   2.129 -1.0188 -0.2408  0.7303
    7MOL    H22 1474   6.337   2.699   1.953 -1.0568 -1.5768  0.9003
    7MOL    H23 1475   6.125   3.043   1.825 -1.8598  1.7897  0.3578
    7MOL    H24 1476   6.196   3.099   1.965  2.5461 -0.0654 -4.3238
    7MOL    H25 1477   6.042   3.005   1.980  0.4387 -2.0735  0.3810
    7MOL    C26 1478   6.478   2.780   2.091  0.3797  0.5344 -0.2493
    7MOL    C27 1479   6.547   2.871   1.989 -0.6117  0.3395  0.5556
    7MOL    C28 1480   6.675   2.939   2.044  0.5408  0.4915 -0.0705
    7MOL    O29 1481   6.754   2.879   2.115  0.2550 -0.0637  0.1576
    7MOL    O30 1482   6.702   3.053   1.978 -0.0058 -0.0160  0.0277
    7MOL    C31 1483   6.826   3.111   2.004  0.3529  0.6445  0.3421
    7MOL    H32 1484   6.466   2.823   2.191 -2.8574  0.0784 -0.3949
    7MOL    H33 1485   6.540   2.691   2.099 -0.0269  0.2993  0.2750
    7MOL    H34 1486   6.479   2.945   1.948 -1.6052 -1.1886 -0.6171
    7MOL    H35 1487   6.900   3.052   1.949  0.1727  0.4291  0.3291
    7MOL    H36 1488   6.861   3.109   2.107 -1.6850 -3.9612  1.1002
    7MOL    H37 1489   6.833   3.210   1.959  0.6292  0.6417  0.3781
    7MOL    C38 1490   6.589   2.773   1.872 -0.1885 -0.5087 -0.5303
    7MOL    C39 1491   6.602   2.851   1.737 -0.3002 -0.4477 -0.6875
    7MOL    C40 1492   6.709   2.796   1.652 -0.3457  0.1567  0.1657
    7MOL    O41 1493   6.755   2.683   1.654  0.0025  0.2311  0.5886
    7MOL    O42 1494   6.751   2.887   1.571 -0.4017  0.0909  0.5106
    7MOL    C43 1495   6.847   2.866   1.464  0.5749  0.0217  0.5006
    7MOL    H44 1496   6.688   2.732   1.894 -0.5419 -0.5808  0.9795
    7MOL    H45 1497   6.517   2.693   1.859 -0.5655  0.1310 -2.5214
    7MOL    H46 1498   6.641   2.949   1.764  0.0758 -0.8785  0.3434
    7MOL    H47 1499   6.938   2.920   1.489  0.8897 -1.2650  2.2447
    7MOL    H48 1500   6.795   2.901   1.375 -0.0097  2.8914  1.8907
    7MOL    H49 1501   6.867   2.761   1.442  1.2411  0.2669 -0.0764
    7MOL    C50 1502   6.465   2.869   1.664  0.5928 -0.2791 -0.1107
    7MOL    C51 1503   6.442   2.997   1.582 -0.6514  0.6160  0.2014
    7MOL    C52 1504   6.324   2.979   1.484  0.2135 -0.0332 -0.2932
    7MOL    O53 1505   6.330   2.967   1.365 -0.4667  0.3175  0.4624
    7MOL    O54 1506   6.204   2.971   1.561 -0.2840 -0.8487  0.3195
    7MOL    C55 1507   6.094   2.927   1.488  0.5226  0.0517  0.1234
    7MOL    H56 1508   6.448   2.779   1.604 -1.7634 -0.4609  0.7835
    7MOL    H57 1509   6.380   2.858   1.731 -2.7558  1.6468 -3.8026
    7MOL    H58 1510   6.529   3.001   1.516 -1.1267  1.6311 -0.3804
    7MOL    H59 1511   6.121   2.848   1.417  2.1200  2.0864 -1.6314
    7MOL    H60 1512   6.036   3.000   1.432 -0.2437  0.6288  1.6533
    7MOL    H61 1513   6.012   2.879   1.541  1.1238 -0.2041  0.8291
    7MOL    C62 1514   6.424   3.127   1.662  0.2949  0.6463  0.7907
    7MOL    C63 1515   6.422   3.257   1.573  0.3521 -0.2480 -0.0669
    7MOL    C64 1516   6.279   3.313   1.589 -0.7510 -0.4811 -1.4289
    7MOL    O65 1517   6.196   3.291   1.502  0.7115  0.1337 -0.4120
    7MOL    O66 1518   6.266   3.384   1.703  0.1887  0.2265  0.0456
    7MOL    C67 1519   6.134   3.411   1.745 -0.1699  0.7689 -0.2636
    7MOL    H68 1520   6.340   3.116   1.731  0.1115 -0.1812  0.4487
    7MOL    H69 1521   6.503   3.139   1.736  1.3606 -2.8511  0.3117
    7MOL    H70 1522   6.436   3.228   1.469 -2.1371 -0.7722 -0.3035
    7MOL    H71 1523   6.130   3.455   1.844 -0.3851  1.1581 -0.4414
    7MOL    H72 1524   6.072   3.322   1.751  0.7741  0.1876  1.1934
    7MOL    H73 1525   6.088   3.480   1.674  0.7332 -0.9982 -2.6614
    7MOL    C74 1526   6.532   3.365   1.592  0.7966 -0.2799 -0.1401
    7MOL    C75 1527   6.548   3.464   1.484  0.3990 -0.0670  0.6079
    7MOL    C76 1528   6.590   3.607   1.529  0.1561  0.0448  0.7158
    7MOL    O77 1529   6.526   3.704   1.485  0.6597  0.4687 -0.1626
    7MOL    O78 1530   6.704   3.613   1.594  0.3653  0.2716 -0.0702
    7MOL    C79 1531   6.761   3.739   1.628 -0.4471  0.7755 -0.1190
    7MOL    H80 1532   6.521   3.422   1.684 -0.6185 -0.8089  0.0228
    7MOL    H81 1533   6.624   3.309   1.610 -0.8376 -2.3005  2.2508
    7MOL    H82 1534   6.449   3.480   1.440 -0.5280 -1.0260  2.2747
    7MOL    H83 1535   6.687   3.813   1.659 -0.6881  1.2303 -1.7260
    7MOL    H84 1536   6.828   3.786   1.555 -1.8443  1.1849 -1.1573
    7MOL    H85 1537   6.822   3.733   1.718 -0.1982 -0.4446 -0.3604
    7MOL    C86 1538   6.620   3.426   1.352  0.0495  0.2662  0.5775
    7MOL    C87 1539   6.777   3.419   1.357 -0.2224 -0.4803  0.7077
    7MOL    C88 1540   6.820   3.290   1.421 -0.7645  0.7373 -0.4065
    7MOL    O89 1541   6.810   3.182   1.363  0.6805  0.0150  0.1796
    7MOL    O90 1542   6.862   3.302   1.558 -0.2929  0.1948 -0.0788
    7MOL    C91 1543   6.924   3.197   1.619  0.0670 -0.6264  0.0754
    7MOL    H92 1544   6.576   3.336   1.308 -1.2671  1.0892  0.1898
    7MOL    H93 1545   6.603   3.514   1.290 -0.4887  0.1029  0.4923
    7MOL    H94 1546   6.832   3.498   1.410  0.6759 -1.3757  1.1220
    7MOL    H95 1547   7.030   3.222   1.629 -0.7681  2.9638  0.6802
    7MOL    H96 1548   6.926   3.100   1.569 -0.7376  0.5282 -2.2676
    7MOL    H97 1549   6.882   3.188   1.719  1.0119  0.9515  0.6263
    7MOL    C98 1550   6.843   3.437   1.215 -0.4115  0.0532 -0.0762
    7MOL    C99 1551   6.994   3.473   1.204  0.3461 -0.1674 -0.8266
    7MOL   C100 1552   7.036   3.624   1.246  0.1289 -0.9184  0.7280
    7MOL   O101 1553   7.070   3.696   1.154 -0.7091 -0.0905 -0.2351
    7MOL   O102 1554   7.041   3.647   1.378 -0.4330  0.2124 -0.6355
    7MOL   C103 1555   7.064   3.782   1.418  0.2936  0.0581  0.1952
    7MOL   H104 1556   6.819   3.353   1.149 -0.3875  2.0956 -2.7410
    7MOL   H105 1557   6.778   3.503   1.158 -0.0178  0.8002  0.3287
    7MOL   H106 1558   7.018   3.470   1.098  1.2074 -1.1582 -0.6099
    7MOL   H107 1559   7.042   3.806   1.522 -0.2666  1.5004 -0.2523
    7MOL   H108 1560   6.998   3.854   1.370 -0.1965 -0.7713 -0.3923
    7MOL   H109 1561   7.168   3.810   1.403  0.2320  0.3656  0.3349
    7MOL   C110 1562   7.084   3.362   1.267  0.4157 -0.6262  0.2351
    7MOL   C111 1563   7.225   3.364   1.207  0.5082  0.3529  0.2377
    7MOL   C112 1564   7.320   3.331   1.320  0.4470 -0.3221  0.3563
    7MOL   O113 1565   7.289   3.280   1.428 -0.1504 -0.3874  0.1001
    7MOL   O114 1566   7.454   3.373   1.282 -0.2802 -0.1999 -0.8380
    7MOL   C115 1567   7.550   3.345   1.381 -0.4709 -0.4757 -1.2420
    7MOL   H116 1568   7.088   3.371   1.375 -1.4958  0.8383  0.2007
    7MOL   H117 1569   7.038   3.267   1.237  0.1573 -0.5326  0.3376
    7MOL   H118 1570   7.246   3.466   1.174  0.4421 -0.4015 -2.3089
    7MOL   H119 1571   7.639   3.406   1.364  0.1238 -0.2346  2.4242
    7MOL   H120 1572   7.591   3.245   1.392  0.4454 -0.0924 -1.1207
    7MOL   H121 1573   7.514   3.377   1.479 -0.4360 -1.2327 -0.9743
    7MOL   C122 1574   7.239   3.269   1.088 -0.3882  0.3642 -0.5166
    7MOL   C123 1575   7.368   3.283   0.997  0.4903 -0.2413 -0.1490
    7MOL   C124 1576   7.431   3.153   0.981 -0.1107 -0.6142  0.0925
    7MOL   O125 1577   7.536   3.133   1.042 -0.6410  0.1702  0.6362
    7MOL   O126 1578   7.353   3.063   0.921  0.3274  0.3936  0.1790
    7MOL   C127 1579   7.414   2.942   0.877  0.1240 -0.3437  0.6363
    7MOL   H128 1580   7.213   3.167   1.116  1.6448 -0.2273 -0.6674
    7MOL   H129 1581   7.160   3.305   1.022  0.1195  1.8541 -0.3223
    7MOL   H130 1582   7.436   3.342   1.058 -2.2176  3.3995 -0.5172
    7MOL   H131 1583   7.353   2.900   0.797  2.1466 -1.7637 -0.1986
    7MOL   H132 1584   7.405   2.874   0.961 -2.0071  0.4605  1.0797
    7MOL   H133 1585   7.513   2.957   0.834  0.7664 -0.4727  2.0538
    7MOL   C134 1586   7.350   3.362   0.867  0.2021 -0.5672  0.5016
    7MOL   C135 1587   7.334   3.516   0.881 -0.5689  0.2360  0.4399
    7MOL   C136 1588   7.460   3.581   0.954 -1.0596  0.4675  0.5367
    7MOL   O137 1589   7.440   3.655   1.050 -0.1919 -0.3307 -0.3179
    7MOL   O138 1590   7.583   3.546   0.899  0.0650  0.0049  0.4549
    7MOL   C139 1591   7.700   3.608   0.946  0.3225 -0.1034  0.1868
    7MOL   H140 1592   7.446   3.353   0.816  0.2314 -1.6442  0.7373
    7MOL   H141 1593   7.280   3.316   0.798 -0.7626 -1.1519  1.8485
    7MOL   H142 1594   7.248   3.551   0.938  0.4473  3.6923 -0.0625
    7MOL   H143 1595   7.726   3.594   1.051 -0.1099 -0.6067  0.2266
    7MOL   H144 1596   7.679   3.714   0.932 -1.6923 -0.4573  0.3862
    7MOL   H145 1597   7.789   3.579   0.891 -1.0851 -1.6283 -1.3397
    7MOL   C146 1598   7.326   3.583   0.743 -0.9891 -0.2921  0.2518
    7MOL   C147 1599   7.202   3.561   0.657  0.1461  0.3234  0.8410
    7MOL   C148 1600   7.067   3.587   0.733 -0.2925  0.1714  0.5291
    7MOL   O149 1601   7.030   3.701   0.755 -0.1925 -0.8621  0.2940
    7MOL   O150 1602   7.006   3.474   0.763  0.2986 -0.1899  0.5414
    7MOL   C151 1603   6.886   3.475   0.832 -0.1830 -0.6069  0.8181
    7MOL   H152 1604   7.328   3.691   0.753 -1.0051 -0.2749  0.0755
    7MOL   H153 1605   7.410   3.558   0.678 -0.7488  0.1216  0.4044
    7MOL   H154 1606   7.201   3.460   0.615 -1.7158 -0.1666  2.0203
    7MOL   H155 1607   6.801   3.510   0.773  0.1297 -1.0801  0.0788
    7MOL   H156 1608   6.888   3.520   0.931 -3.0140  0.3181  0.5003
    7MOL   H157 1609   6.863   3.371   0.856 -0.4368 -0.5199  0.9539
    7MOL   C158 1610   7.212   3.651   0.532 -0.3993  0.0722  0.1238
    7MOL   C159 1611   7.124   3.619   0.411  0.0753 -0.3470 -0.0857
    7MOL   C160 1612   7.115   3.751   0.327  0.0037  0.1316 -0.1317
    7MOL   O161 1613   7.009   3.816   0.329  0.3626  0.6965 -0.0702
    7MOL   O162 1614   7.228   3.787   0.263 -0.6099 -0.4295 -0.0583
    7MOL   C163 1615   7.231   3.897   0.171 -0.3710  0.5574 -0.4772
    7MOL   H164 1616   7.201   3.755   0.563  1.8568  0.2802  0.2702
    7MOL   H165 1617   7.317   3.647   0.505 -0.3091 -0.8303  0.5654
    7MOL   H166 1618   7.024   3.598   0.450  0.0167  0.4699  0.2065
    7MOL   H167 1619   7.129   3.935   0.157 -0.3781  0.4563 -0.6936
    7MOL   H168 1620   7.272   3.869   0.074 -2.2793  1.9739 -1.7432
    7MOL   H169 1621   7.284   3.982   0.213 -0.1722 -0.1100  0.6414
    7MOL   C170 1622   7.180   3.488   0.333 -0.0146  0.3172 -0.0390
    7MOL   C171 1623   7.068   3.399   0.260 -0.5502 -0.9544  0.3186
    7MOL   C172 1624   6.975   3.317   0.356 -0.3883 -0.4969 -0.8584
    7MOL   O173 1625   6.974   3.193   0.359  0.0427 -0.2832 -0.0506
    7MOL   O174 1626   6.906   3.386   0.450 -0.0438 -1.0441  0.1246
    7MOL   C175 1627   6.826   3.317   0.545  0.0613 -0.1163  0.0208
    7MOL   H176 1628   7.263   3.514   0.268  0.1126  0.0927  0.0331
    7MOL   H177 1629   7.218   3.426   0.414 -0.9606  0.1558  0.2910
    7MOL   H178 1630   7.125   3.327   0.201  0.0403 -0.2844  0.0615
    7MOL   H179 1631   6.884   3.234   0.586  1.4225  1.4875  1.3860
    7MOL   H180 1632   6.728   3.292   0.503  0.1587 -0.9513  0.2803
    7MOL   H181 1633   6.798   3.390   0.621  0.2157 -0.3551  0.3058
    7MOL   C182 1634   7.001   3.478   0.138 -0.2058  0.5459 -0.0331
    7MOL   C183 1635   7.005   3.409   0.005  0.3538 -0.9459 -0.2516
    7MOL   C184 1636   6.899   3.300   7.931  0.2949 -0.0627  0.2891
    7MOL   O185 1637   6.927   3.183   7.920  0.1695  0.1666 -0.2707
    7MOL   O186 1638   6.763   3.336   7.931  0.2393 -0.6205  0.0207
    7MOL   C187 1639   6.655   3.248   7.913 -0.2095 -0.8478  0.5041
    7MOL   H188 1640   6.897   3.493   0.167  0.4772  0.9626  2.2804
    7MOL   H189 1641   7.052   3.574   0.131  0.6681  0.3209  2.7406
    7MOL   H190 1642   7.100   3.362   7.914  2.3681  1.9523  1.7172
    7MOL   H191 1643   6.638   3.194   0.072 -0.0815 -3.5173 -0.9992
    7MOL   H192 1644   6.686   3.181   7.833  1.4743 -0.8227  1.1072
    7MOL   H193 1645   6.560   3.298   7.893 -1.8483 -3.0173  2.7675
    7MOL   C194 1646   6.981   3.504   7.821 -0.4590 -0.3080  0.3872
    7MOL   C195 1647   7.111   3.580   7.773 -0.1932  0.6909  0.3660
    7MOL   C196 1648   7.234   3.495   7.740 -0.6309  1.0328  0.4682
    7MOL   O197 1649   7.323   3.477   7.823  0.1754 -0.2483 -0.5072
    7MOL   O198 1650   7.243   3.450   7.615 -0.5591 -0.3191 -1.3028
    7MOL   C199 1651   7.355   3.374   7.577 -0.6599  0.0961 -0.3377
    7MOL   H200 1652   6.950   3.450   7.732  0.3931 -1.3656  0.7250
    7MOL   H201 1653   6.912   3.585   7.845  1.5846  1.6809 -0.2652
    7MOL   H202 1654   7.139   3.647   7.854 -1.0518  1.1394  0.2985
    7MOL   H203 1655   7.331   3.311   7.490  0.9209  1.7350 -1.9970
    7MOL   H204 1656   7.383   3.303   7.654  0.7408  0.0491 -0.8749
    7MOL   H205 1657   7.442   3.436   7.558 -1.4710  0.8961 -1.5585
    7MOL   C206 1658   7.065   3.670   7.661 -0.7511 -0.4366  0.0833
    7MOL   C207 1659   7.177   3.769   7.595  0.3249 -0.1085  0.3444
    7MOL   C208 1660   7.261   3.713   7.474  0.3937  0.3613  0.9262
    7MOL   O209 1661   7.381   3.731   7.471  0.1519  0.5521  0.6215
    7MOL   O210 1662   7.185   3.652   7.374  0.2523  0.1787  0.0818
    7MOL   C211 1663   7.256   3.598   7.263 -0.3316  0.0325  0.0682
    7MOL   H212 1664   7.036   3.599   7.584  1.4444  0.2470 -1.4447
    7MOL   H213 1665   6.979   3.730   7.687  0.3344  1.2406 -0.1152
    7MOL   H214 1666   7.250   3.787   7.674  1.8813 -0.5021 -0.9658
    7MOL   H215 1667   7.335   3.531   7.297  0.3101  1.9457  2.5191
    7MOL   H216 1668   7.307   3.680   7.212 -0.9320 -0.6577 -1.6686
    7MOL   H217 1669   7.194   3.548   7.189  1.3798 -0.4558 -1.0829
    7MOL   C218 1670   7.112   3.905   7.548  0.1050  0.5391  0.0470
    7MOL   C219 1671   7.215   4.026   7.556 -0.8113  0.1501 -0.2052
    7MOL   C220 1672   7.197   4.128   7.442 -0.2627 -0.0563  0.6261
    7MOL   O221 1673   7.271   4.139   7.343 -0.1267 -0.1836 -0.6605
    7MOL   O222 1674   7.072   4.176   7.444 -0.2551 -0.1329 -0.8282
    7MOL   C223 1675   7.027   4.239   7.327  0.0915 -0.0585 -0.0222
    7MOL   H224 1676   7.077   3.901   7.445  1.1297  0.3043 -0.2982
    7MOL   H225 1677   7.036   3.937   7.620 -0.1890 -0.5037  0.2080
    7MOL   H226 1678   7.310   3.975   7.543 -1.4307 -1.3359  1.0363
    7MOL   H227 1679   6.919   4.253   7.334  0.2157  0.6114  0.5437
    7MOL   H228 1680   7.050   4.172   7.244 -2.1510 -0.3988 -0.4092
    7MOL   H229 1681   7.080   4.332   7.307  0.1979 -0.4389 -1.6310
    7MOL   C230 1682   7.215   4.093   7.694  0.2983  0.0593 -0.3239
    7MOL   C231 1683   7.360   4.151   7.720  0.6805  0.0396  0.4450
    7MOL   C232 1684   7.459   4.043   7.756 -0.7147  0.4584  0.5663
    7MOL   O233 1685   7.454   3.983   7.862 -0.3009  0.6148 -0.1510
    7MOL   O234 1686   7.541   4.013   7.651  0.0094 -0.1795  0.6181
    7MOL   C235 1687   7.619   3.896   7.656 -0.7789  0.1961 -0.4341
    7MOL   H236 1688   7.143   4.175   7.699 -0.4113 -0.5254 -0.9094
    7MOL   H237 1689   7.194   4.020   7.773 -1.2886 -0.1220 -0.9134
    7MOL   H238 1690   7.359   4.215   7.809  1.9372  2.3910 -1.1838
    7MOL   H239 1691   7.618   3.853   7.556 -0.0250 -0.1930 -0.2797
    7MOL   H240 1692   7.587   3.819   7.726 -0.1282 -0.5998 -1.0078
    7MOL   H241 1693   7.718   3.932   7.686 -0.8374 -0.9446  1.2306
    7MOL   H242 1694   7.393   4.219   7.641  0.6547 -0.4756 -0.0100
    8MOL     C1 1695   1.768   5.950   7.859  0.1315 -0.0778 -0.5011
    8MOL     C2 1696   1.782   6.100   7.863 -0.0928  0.3979 -0.4567
    8MOL     C3 1697   1.699   6.145   0.056  0.4687 -0.5872 -0.2116
    8MOL     O4 1698   1.610   6.231   0.042  0.1182 -0.3152 -0.0281
    8MOL     O5 1699   1.737   6.091   0.174  0.5160 -0.7780 -0.4893
    8MOL     C6 1700   1.673   6.130   0.295  0.8240 -0.5360 -0.7433
    8MOL     H7 1701   1.809   5.905   0.017 -1.1340  3.1234  1.6993
    8MOL     H8 1702   1.812   5.898   7.774 -0.7252 -1.2601 -0.2353
    8MOL     H9 1703   1.748   6.134   7.764  0.2756  2.8308  0.2183
    8MOL    H10 1704   1.728   6.192   0.366 -1.4785 -0.1750  0.7608
    8MOL    H11 1705   1.651   6.039   0.352  0.7021 -0.0120  0.0493
    8MOL    H12 1706   1.573   6.172   0.284 -0.8479 -4.1479 -0.1726
    8MOL    H13 1707   1.666   5.913   7.850 -0.0069  0.2200 -0.1543
    8MOL    C14 1708   1.931   6.143   7.870 -0.4157  0.1923  0.0987
    8MOL    C15 1709   1.956   6.278   7.808  0.0015  0.5533  0.5405
    8MOL    C16 1710   1.920   6.400   7.894  0.6874  0.4944  0.3458
    8MOL    O17 1711   1.832   6.481   7.866 -0.0173 -0.5008  0.2720
    8MOL    O18 1712   1.995   6.402   0.076 -0.3874 -0.6411 -0.1784
    8MOL    C19 1713   1.967   6.498   0.178  0.9569 -0.5990 -0.2874
    8MOL    H20 1714   1.968   6.125   0.038  2.0318 -1.1109 -0.9498
    8MOL    H21 1715   2.000   6.073   7.821  1.6494  0.7196  2.1513
    8MOL    H22 1716   1.882   6.273   7.728 -1.5114  0.7184  1.9022
    8MOL    H23 1717   2.017   6.468   0.271 -0.7804  1.2516  1.3021
    8MOL    H24 1718   1.858   6.494   0.186  0.7586  2.6828 -0.4171
    8MOL    H25 1719   2.001   6.596   0.143  0.0806  0.3562  1.4361
    8MOL    C26 1720   2.106   6.293   7.760 -0.3486 -0.0974 -0.7524
    8MOL    C27 1721   2.225   6.317   7.862 -0.3997 -0.2842  0.1394
    8MOL    C28 1722   2.243   6.212   0.036  0.2922  0.1066 -0.6838
    8MOL    O29 1723   2.256   6.242   0.157 -0.5851 -0.5259  0.0600
    8MOL    O30 1724   2.264   6.088   7.923  0.4608  0.2237  0.4551
    8MOL    C31 1725   2.287   5.989   0.091  0.2693  0.3471  0.3476
    8MOL    H32 1726   2.136   6.209   7.697  1.1630 -1.9780  2.3382
    8MOL    H33 1727   2.101   6.382   7.697 -0.8381  0.1715 -0.3342
    8MOL    H34 1728   2.206   6.412   7.912 -1.7876  0.0935 -1.0643
    8MOL    H35 1729   2.330   5.894   0.060  0.9605  0.9866 -0.6609
    8MOL    H36 1730   2.190   5.973   0.138  0.1750  0.3420  0.1492
    8MOL    H37 1731   2.355   6.031   0.164 -0.2484 -0.3518  1.2485
    8MOL    C38 1732   2.361   6.337   7.781  0.0288  0.9350 -0.3015
    8MOL    C39 1733   2.481   6.398   7.866 -0.7445  0.6589  0.1950
    8MOL    C40 1734   2.609   6.335   7.841  0.0876 -0.3893  0.3720
    8MOL    O41 1735   2.673   6.291   0.002  1.0548  0.2784  0.0201
    8MOL    O42 1736   2.640   6.322   7.710 -0.1660 -0.1737  0.4061
    8MOL    C43 1737   2.768   6.291   7.667 -0.1614  0.0381 -0.0721
    8MOL    H44 1738   2.384   6.236   7.747 -0.3253  0.3653  1.1028
    8MOL    H45 1739   2.353   6.400   7.693  0.3810  0.5592 -0.6011
    8MOL    H46 1740   2.460   6.379   0.038  0.4581 -1.6339  0.0416
    8MOL    H47 1741   2.752   6.268   7.562  0.7357 -2.8389  0.3806
    8MOL    H48 1742   2.811   6.197   7.703  0.5796  0.1525 -0.6686
    8MOL    H49 1743   2.830   6.377   7.689 -0.6678 -0.0419  1.7513
    8MOL    C50 1744   2.508   6.549   7.852  0.3193  0.2094  0.5468
    8MOL    C51 1745   2.381   6.628   7.889 -0.7896  0.3106  0.3129
    8MOL    C52 1746   2.342   6.639   0.107  0.6146  0.0582 -0.0043
    8MOL    O53 1747   2.242   6.579   0.154 -0.2090  0.1075  0.2308
    8MOL    O54 1748   2.416   6.721   0.177 -0.3158 -0.3539  0.1450
    8MOL    C55 1749   2.394   6.734   0.315  0.0880  0.1834 -0.3037
    8MOL    H56 1750   2.582   6.565   7.930 -0.3076 -0.6891  1.3322
    8MOL    H57 1751   2.553   6.578   7.757  0.0736  0.5511  0.5334
    8MOL    H58 1752   2.297   6.567   7.856  0.8246 -1.9508  0.2285
    8MOL    H59 1753   2.453   6.660   0.367 -0.4610  0.7737  1.1793
    8MOL    H60 1754   2.292   6.721   0.352  0.3157 -0.2698  0.1575
    8MOL    H61 1755   2.431   6.833   0.341 -3.2315  1.0132  1.6336
    8MOL    C62 1756   2.375   6.769   7.812  0.6176  0.0437  0.2016
    8MOL    C63 1757   2.341   6.752   7.662 -1.0373 -0.1376  0.6509
    8MOL    C64 1758   2.206   6.689   7.640  0.2759 -0.4197 -0.3334
    8MOL    O65 1759   2.189   6.594   7.569  0.1618 -0.3026  0.2945
    8MOL    O66 1760   2.114   6.768   7.698  0.2412  0.0826  0.2229
    8MOL    C67 1761   1.979   6.720   7.696  0.0886  0.2546  0.1576
    8MOL    H68 1762   2.304   6.831   7.867 -0.6002  0.3255 -1.6726
    8MOL    H69 1763   2.470   6.822   7.820 -0.1748  1.1970  2.3093
    8MOL    H70 1764   2.406   6.678   7.614 -0.8630 -0.8131  1.9144
    8MOL    H71 1765   1.946   6.739   7.798 -1.4977 -0.4052 -0.2107
    8MOL    H72 1766   1.972   6.611   7.686 -0.8330  0.3157  0.0534
    8MOL    H73 1767   1.924   6.767   7.615 -0.4811  2.8084  1.9529
    8MOL    C74 1768   2.357   6.880   7.573 -0.2104 -0.0047  0.6972
    8MOL    C75 1769   2.453   6.882   7.456  0.0531 -0.5241  0.4617
    8MOL    C76 1770   2.599   6.871   7.496 -0.6453 -0.2815  0.1330
    8MOL    O77 1771   2.674   6.952   7.446  1.1812 -0.1681 -0.1687
    8MOL    O78 1772   2.631   6.784   7.586 -0.2717  0.0920  0.2161
    8MOL    C79 1773   2.764   6.770   7.634  0.5557  0.1209  0.6972
    8MOL    H80 1774   2.263   6.913   7.530 -0.3396  3.5045  3.4383
    8MOL    H81 1775   2.375   6.969   7.633 -0.2968  0.7434 -0.3970
    8MOL    H82 1776   2.452   6.979   7.405  2.1479 -0.0424  1.2951
    8MOL    H83 1777   2.839   6.805   7.563  0.9132 -0.2841  0.8748
    8MOL    H84 1778   2.790   6.669   7.663 -0.8526 -0.8943 -1.3991
    8MOL    H85 1779   2.776   6.837   7.719 -0.3653  2.2117 -0.7592
    8MOL    C86 1780   2.415   6.764   7.363 -0.5990  0.0310 -0.3650
    8MOL    C87 1781   2.478   6.765   7.220  0.3241 -0.3674  0.8544
    8MOL    C88 1782   2.478   6.902   7.155  1.0111 -0.3081  0.1998
    8MOL    O89 1783   2.572   6.944   7.091 -0.2446 -0.2824  0.1197
    8MOL    O90 1784   2.357   6.965   7.161 -0.3425  0.2899 -0.1013
    8MOL    C91 1785   2.340   7.086   7.093 -1.1227 -0.1977  0.3086
    8MOL    H92 1786   2.442   6.671   7.413  0.8614  0.1767 -0.8626
    8MOL    H93 1787   2.306   6.753   7.356 -0.6782 -0.0467  0.8704
    8MOL    H94 1788   2.399   6.715   7.165  1.4316 -1.0962 -0.1019
    8MOL    H95 1789   2.343   7.067   6.985  1.1766  3.2508 -0.3064
    8MOL    H96 1790   2.414   7.157   7.129 -2.6526  2.2347 -1.1738
    8MOL    H97 1791   2.244   7.126   7.125 -1.5396  0.0401 -1.2028
    8MOL    C98 1792   2.605   6.682   7.206 -0.5398  0.5449 -0.5380
    8MOL    C99 1793   2.623   6.613   7.073  0.6425  0.3841 -0.2610
    8MOL   C100 1794   2.761   6.599   7.014  0.7315  0.0250 -0.0624
    8MOL   O101 1795   2.869   6.628   7.073  0.3903  0.5238  0.9156
    8MOL   O102 1796   2.744   6.566   6.883 -0.2886 -0.2882  0.4357
    8MOL   C103 1797   2.866   6.554   6.808 -0.0998  0.7274  0.3878
    8MOL   H104 1798   2.691   6.744   7.233  0.0257  0.1089 -1.3073
    8MOL   H105 1799   2.609   6.606   7.284  0.4459  2.0494  0.9339
    8MOL   H106 1800   2.589   6.685   6.999  2.1449 -0.0613 -1.3875
    8MOL   H107 1801   2.863   6.462   6.750  0.7628  1.8178 -1.4629
    8MOL   H108 1802   2.952   6.560   6.875 -1.9220  1.7804  2.6864
    8MOL   H109 1803   2.876   6.641   6.742  1.2956  0.7726  0.6395
    8MOL   C110 1804   2.534   6.486   7.063  0.2055 -0.5800  0.1042
    8MOL   C111 1805   2.591   6.354   7.119 -0.1630  0.3389 -0.5522
    8MOL   C112 1806   2.579   6.338   7.273  0.2852  0.8226  0.4144
    8MOL   O113 1807   2.679   6.347   7.344  0.4122 -0.0733 -0.3522
    8MOL   O114 1808   2.452   6.335   7.317 -0.6516  0.1763 -0.7156
    8MOL   C115 1809   2.439   6.322   7.459  0.6166  0.4507  0.0072
    8MOL   H116 1810   2.434   6.510   7.101  0.2810  2.7320 -1.6671
    8MOL   H117 1811   2.519   6.464   6.958 -0.6948 -0.7205  0.2535
    8MOL   H118 1812   2.699   6.353   7.100  0.0119 -0.7472  0.4837
    8MOL   H119 1813   2.332   6.302   7.469  0.3746  1.3492 -0.7543
    8MOL   H120 1814   2.467   6.408   7.520 -3.3514  0.4139  2.0276
    8MOL   H121 1815   2.501   6.239   7.495  1.7814  1.1676 -0.3131
    8MOL   C122 1816   2.532   6.232   7.042 -0.1431  0.1349  0.7550
    8MOL   C123 1817   2.632   6.140   6.972  0.2755  0.5210 -0.0111
    8MOL   C124 1818   2.709   6.057   7.075  0.0740 -0.5773  0.2231
    8MOL   O125 1819   2.694   5.938   7.086  0.2834  0.0267 -0.1588
    8MOL   O126 1820   2.789   6.130   7.150  0.5562 -0.1165 -0.1355
    8MOL   C127 1821   2.866   6.073   7.254  0.4492 -0.2154  0.0397
    8MOL   H128 1822   2.479   6.158   7.102  0.0233 -2.0174 -1.6394
    8MOL   H129 1823   2.460   6.265   6.967 -0.3943 -1.9525  0.0268
    8MOL   H130 1824   2.701   6.215   6.933 -0.1864  0.1374 -1.6099
    8MOL   H131 1825   2.842   5.968   7.271 -0.9128  0.0954  0.1032
    8MOL   H132 1826   2.856   6.135   7.343  0.2964 -0.6181  0.3020
    8MOL   H133 1827   2.970   6.064   7.221  0.5350  0.5836  0.0746
    8MOL   C134 1828   2.586   6.066   6.847 -0.4936  0.0203 -0.2574
    8MOL   C135 1829   2.688   6.021   6.738  0.6967 -0.2321  0.3331
    8MOL   C136 1830   2.749   6.144   6.676  0.5068  0.1404 -0.0927
    8MOL   O137 1831   2.838   6.202   6.743 -0.0776  0.8457 -0.2478
    8MOL   O138 1832   2.678   6.190   6.562 -0.1088 -0.5065 -0.1294
    8MOL   C139 1833   2.735   6.305   6.500 -0.5484 -0.0669  0.1042
    8MOL   H140 1834   2.538   5.975   6.883 -0.8195  0.4816  0.4701
    8MOL   H141 1835   2.503   6.120   6.803 -0.3908  2.5917  2.5767
    8MOL   H142 1836   2.638   5.974   6.654  0.5994  2.6888 -1.3006
    8MOL   H143 1837   2.687   6.334   6.406 -2.8590 -0.7647  1.0357
    8MOL   H144 1838   2.840   6.282   6.482 -0.6751 -0.3334 -0.3161
    8MOL   H145 1839   2.722   6.388   6.569  2.6114 -1.5200  2.5610
    8MOL   C146 1840   2.798   5.921   6.776  0.1315 -0.3678 -0.0725
    8MOL   C147 1841   2.745   5.776   6.803  0.1581  0.2077  1.3878
    8MOL   C148 1842   2.700   5.713   6.672 -0.1782 -0.0194 -0.2232
    8MOL   O149 1843   2.783   5.676   6.588  0.1887 -0.0914 -0.3929
    8MOL   O150 1844   2.569   5.707   6.652 -0.2402 -0.0541  0.0933
    8MOL   C151 1845   2.523   5.629   6.548  0.2992  0.5925  0.1580
    8MOL   H152 1846   2.876   5.919   6.699 -0.8052 -0.2057 -1.0419
    8MOL   H153 1847   2.848   5.960   6.864 -1.3487  0.1115  0.5562
    8MOL   H154 1848   2.657   5.786   6.867 -0.1593 -0.2642  1.0320
    8MOL   H155 1849   2.585   5.641   6.459  1.1673  1.0570  0.8153
    8MOL   H156 1850   2.418   5.641   6.522  0.2569 -0.5440 -0.2225
    8MOL   H157 1851   2.538   5.525   6.575 -0.8215  0.4975  0.4307
    8MOL   C158 1852   2.852   5.701   6.878 -0.1083  0.0502 -0.2388
    8MOL   C159 1853   2.828   5.551   6.908  0.9186  0.1456 -0.2984
    8MOL   C160 1854   2.946   5.480   6.973 -0.5785 -0.3012 -0.3076
    8MOL   O161 1855   3.051   5.541   7.003 -0.1612  0.6384  0.1935
    8MOL   O162 1856   2.915   5.351   6.995  0.1086 -0.7790 -0.0456
    8MOL   C163 1857   3.015   5.275   7.048  0.4482 -0.1289 -0.0053
    8MOL   H164 1858   2.942   5.713   6.817  0.0075 -0.5258 -0.1849
    8MOL   H165 1859   2.861   5.748   6.975  1.3615  1.3781 -0.9792
    8MOL   H166 1860   2.834   5.493   6.816  3.0904 -0.1257  0.0004
    8MOL   H167 1861   3.042   5.316   7.146 -1.4742  2.7573 -0.6239
    8MOL   H168 1862   3.097   5.256   6.978  1.2853  0.4505  0.8016
    8MOL   H169 1863   2.973   5.176   7.062  0.3233 -0.3476 -1.7894
    8MOL   C170 1864   2.688   5.521   6.970 -0.2864 -0.0099 -0.0807
    8MOL   C171 1865   2.657   5.600   7.102 -0.1675 -0.3450 -0.3635
    8MOL   C172 1866   2.507   5.638   7.096  0.3906  0.2008 -0.3867
    8MOL   O173 1867   2.473   5.754   7.080 -0.5794 -0.3948  0.2687
    8MOL   O174 1868   2.418   5.543   7.113  0.1606  0.1815  0.7687
    8MOL   C175 1869   2.279   5.573   7.134  0.5370  0.0982 -0.1728
    8MOL   H176 1870   2.615   5.552   6.895 -0.3658 -2.8290 -1.2643
    8MOL   H177 1871   2.682   5.412   6.981 -0.3174  0.1550  1.6445
    8MOL   H178 1872   2.715   5.692   7.104  0.3898 -0.6839 -1.1210
    8MOL   H179 1873   2.279   5.658   7.203 -1.1753 -0.0231 -0.0177
    8MOL   H180 1874   2.212   5.493   7.164 -0.7252  1.3236  0.3368
    8MOL   H181 1875   2.230   5.612   7.045  1.6127  0.3284 -0.6792
    8MOL   C182 1876   2.679   5.518   7.232 -0.9059 -0.4299 -0.1660
    8MOL   C183 1877   2.750   5.595   7.356  0.1451 -0.0711 -0.4597
    8MOL   C184 1878   2.903   5.597   7.336  0.4306 -0.5721 -0.6652
    8MOL   O185 1879   2.972   5.511   7.386  0.1689  0.0655  0.4409
    8MOL   O186 1880   2.958   5.699   7.278 -0.2351  0.0736 -0.1013
    8MOL   C187 1881   3.102   5.704   7.270 -0.2832 -0.2065 -0.3897
    8MOL   H188 1882   2.601   5.455   7.275 -0.7610 -1.4457 -1.3570
    8MOL   H189 1883   2.749   5.441   7.198 -0.4397  0.2494 -0.7598
    8MOL   H190 1884   2.738   5.528   7.441 -2.4897  1.7348  0.6608
    8MOL   H191 1885   3.153   5.616   7.229  0.9558 -0.6311  1.9908
    8MOL   H192 1886   3.142   5.696   7.371  0.0885  1.6609 -0.3664
    8MOL   H193 1887   3.144   5.794   7.224  1.8433 -0.0761  1.7290
    8MOL   C194 1888   2.681   5.728   7.393 -0.2911  0.0209 -0.2563
    8MOL   C195 1889   2.527   5.724   7.416 -0.6175 -0.2153  0.3585
    8MOL   C196 1890   2.501   5.617   7.525  0.4189  0.2290 -0.3233
    8MOL   O197 1891   2.473   5.505   7.492 -0.1697 -0.0491  0.5912
    8MOL   O198 1892   2.528   5.652   7.645 -0.1315 -0.2198  0.3090
    8MOL   C199 1893   2.475   5.577   7.753  0.2671 -0.2665 -0.1149
    8MOL   H200 1894   2.720   5.753   7.492 -1.5787 -0.0713  0.2844
    8MOL   H201 1895   2.714   5.804   7.322 -1.2914  1.5485  0.9041
    8MOL   H202 1896   2.470   5.690   7.330  2.0508 -0.0049 -1.5481
    8MOL   H203 1897   2.541   5.584   7.840  0.1089 -2.9737  0.2921
    8MOL   H204 1898   2.448   5.477   7.719 -3.3653  0.7982 -0.5406
    8MOL   H205 1899   2.380   5.618   7.785  1.5169  0.7011  2.5259
    8MOL   C206 1900   2.486   5.868   7.426  0.1296 -0.7345 -0.0433
    8MOL   C207 1901   2.331   5.878   7.404  0.5054  0.0680 -0.1137
    8MOL   C208 1902   2.268   5.913   7.543  0.7968 -0.1018 -0.7979
    8MOL   O209 1903   2.260   6.031   7.577 -0.1867  0.6268 -0.2443
    8MOL   O210 1904   2.227   5.807   7.615  0.1286 -0.1121 -0.2665
    8MOL   C211 1905   2.150   5.817   7.732 -0.3551 -0.3643  0.3629
    8MOL   H212 1906   2.502   5.915   7.523 -1.7293 -0.8846  0.3558
    8MOL   H213 1907   2.553   5.925   7.361  1.2791 -1.2168  0.7098
    8MOL   H214 1908   2.296   5.780   7.374 -0.8229  0.4478  0.1689
    8MOL   H215 1909   2.062   5.878   7.712 -1.0929 -2.0258 -1.5404
    8MOL   H216 1910   2.207   5.843   7.822 -0.3084 -0.5145  0.3763
    8MOL   H217 1911   2.110   5.717   7.747  1.3126 -1.4129 -1.8763
    8MOL   C218 1912   2.308   5.987   7.294 -0.5137  0.4608  0.1293
    8MOL   C219 1913   2.162   6.037   7.257 -0.3605  0.4666  0.3281
    8MOL   C220 1914   2.158   6.149   7.154  0.0399 -0.4635  0.1516
    8MOL   O221 1915   2.124   6.126   7.036  0.6893 -0.5104  0.0739
    8MOL   O222 1916   2.162   6.267   7.205  0.6983  0.1925  0.4296
    8MOL   C223 1917   2.179   6.383   7.122  0.6438  0.5707 -0.1758
    8MOL   H224 1918   2.369   6.075   7.315  0.0935 -0.3508  1.8614
    8MOL   H225 1919   2.347   5.950   7.199 -0.3160  0.4772  0.2047
    8MOL   H226 1920   2.128   6.092   7.345 -0.4769  1.7037 -0.4810
    8MOL   H227 1921   2.221   6.376   7.022  1.1705 -0.1619  0.0985
    8MOL   H228 1922   2.245   6.452   7.175 -0.8254  0.6683  1.6019
    8MOL   H229 1923   2.085   6.439   7.115 -0.8994 -1.7264  1.3270
    8MOL   C230 1924   2.075   5.916   7.239  0.6258  0.6379  0.2416
    8MOL   C231 1925   1.926   5.934   7.198 -0.4595 -0.7025  0.3251
    8MOL   C232 1926   1.835   5.995   7.305 -0.1893  0.4057 -0.4812
    8MOL   O233 1927   1.803   6.113   7.311 -0.7278 -0.3605 -0.6040
    8MOL   O234 1928   1.788   5.902   7.396  0.1598  0.3436  0.2646
    8MOL   C235 1929   1.729   5.944   7.519 -0.4900  0.0374  0.3503
    8MOL   H236 1930   2.123   5.851   7.166 -0.2216  0.0294  0.2205
    8MOL   H237 1931   2.082   5.847   7.323  1.4884 -0.5111 -0.7494
    8MOL   H238 1932   1.892   5.834   7.172  1.1793 -1.3008  0.4186
    8MOL   H239 1933   1.802   5.999   7.579 -1.7922  1.5092  0.6090
    8MOL   H240 1934   1.698   5.855   7.574  1.6057 -0.7617  0.2772
    8MOL   H241 1935   1.641   6.007   7.506 -1.1437 -0.8894  0.2354
    8MOL   H242 1936   1.921   5.988   7.104  0.7096 -0.9040  0.1420
    9MOL     C1 1937   2.560   6.952   1.446  0.7599  0.1758 -0.1427
    9MOL     C2 1938   2.660   7.068   1.460 -0.2202 -0.5010  0.9801
    9MOL     C3 1939   2.647   7.156   1.338 -0.8190  0.2739  0.1643
    9MOL     O4 1940   2.570   7.253   1.323  0.0650  0.0385 -0.1582
    9MOL     O5 1941   2.732   7.111   1.233  0.1181 -0.1706 -0.9586
    9MOL     C6 1942   2.751   7.190   1.122  0.0699  0.3401 -0.0369
    9MOL     H7 1943   2.560   6.877   1.525  1.6485 -2.0790 -2.1888
    9MOL     H8 1944   2.570   6.896   1.352  0.8607  2.0679 -1.2756
    9MOL     H9 1945   2.758   7.020   1.466  1.1758  1.7089 -2.8966
    9MOL    H10 1946   2.659   7.224   1.075 -0.6892  2.3060  2.7819
    9MOL    H11 1947   2.814   7.154   1.041  1.5515 -0.3363  1.3784
    9MOL    H12 1948   2.804   7.280   1.151  1.0268 -0.8801  2.1052
    9MOL    H13 1949   2.459   6.993   1.442  1.3335  1.7804  1.4831
    9MOL    C14 1950   2.634   7.138   1.593  0.5886 -0.4980  0.3419
    9MOL    C15 1951   2.673   7.062   1.728  0.3610 -0.0135  0.5676
    9MOL    C16 1952   2.824   7.057   1.754  0.2768  0.2832 -0.2030
    9MOL    O17 1953   2.874   7.120   1.847  0.6723  0.3326  0.2925
    9MOL    O18 1954   2.903   6.992   1.657  0.4418 -0.8181  0.8830
    9MOL    C19 1955   3.043   6.985   1.681  0.4701  0.4520 -0.2137
    9MOL    H20 1956   2.689   7.231   1.582  0.7118 -0.7763 -1.6959
    9MOL    H21 1957   2.531   7.173   1.590  0.3861 -1.1226 -0.0669
    9MOL    H22 1958   2.635   6.961   1.711  0.6043 -0.0459  0.2119
    9MOL    H23 1959   3.089   7.082   1.700  1.0788  0.3336 -1.0483
    9MOL    H24 1960   3.083   6.954   1.584  0.4944  0.5650 -0.2408
    9MOL    H25 1961   3.074   6.910   1.753 -2.2644 -1.4193 -0.9356
    9MOL    C26 1962   2.597   7.134   1.838  0.3985  0.2263  0.4278
    9MOL    C27 1963   2.590   7.042   1.971 -0.5057  0.0733 -0.1722
    9MOL    C28 1964   2.514   7.119   2.076  0.8601 -0.1483  0.5561
    9MOL    O29 1965   2.576   7.175   2.170  0.4280 -0.1914 -0.5208
    9MOL    O30 1966   2.378   7.112   2.065 -0.9974  0.2995 -0.1216
    9MOL    C31 1967   2.311   7.143   2.185  0.8412 -0.2618  0.0174
    9MOL    H32 1968   2.638   7.231   1.864 -1.9420  1.0811  1.0744
    9MOL    H33 1969   2.495   7.143   1.800  0.9553  0.6956 -0.9887
    9MOL    H34 1970   2.694   7.039   2.006 -0.3658  1.2497 -0.4396
    9MOL    H35 1971   2.323   7.244   2.225  1.9775 -0.7354  0.9190
    9MOL    H36 1972   2.354   7.079   2.263 -0.6697 -0.2814  0.8529
    9MOL    H37 1973   2.202   7.141   2.182  0.8615 -0.0896 -0.7488
    9MOL    C38 1974   2.547   6.894   1.941  0.5978  0.6369  0.2186
    9MOL    C39 1975   2.501   6.804   2.056  1.2024 -0.0471 -0.1068
    9MOL    C40 1976   2.372   6.721   2.022  0.9383  0.6550  0.1325
    9MOL    O41 1977   2.260   6.767   2.036  0.1171 -0.3985 -0.1525
    9MOL    O42 1978   2.397   6.595   1.976  0.2202 -0.3658 -0.2408
    9MOL    C43 1979   2.286   6.504   1.986 -0.8622  1.1145 -0.3032
    9MOL    H44 1980   2.463   6.920   1.876  0.1588 -0.1687  0.4601
    9MOL    H45 1981   2.617   6.840   1.879 -0.6278 -1.0437  0.2615
    9MOL    H46 1982   2.466   6.865   2.138  1.2507  0.5971 -0.5627
    9MOL    H47 1983   2.197   6.551   1.946  0.2359  1.8637 -1.9384
    9MOL    H48 1984   2.266   6.472   2.088 -2.3093  1.0102 -0.6113
    9MOL    H49 1985   2.304   6.418   1.921 -2.0133  1.2982 -0.8715
    9MOL    C50 1986   2.605   6.702   2.112  0.4939  0.4859 -0.5858
    9MOL    C51 1987   2.729   6.768   2.173 -0.7555  0.0500  0.1743
    9MOL    C52 1988   2.699   6.834   2.307  0.9301  0.3067 -0.0410
    9MOL    O53 1989   2.584   6.819   2.365 -0.2903 -0.1970 -0.4634
    9MOL    O54 1990   2.800   6.919   2.345  0.5039  0.0950  0.2301
    9MOL    C55 1991   2.770   7.004   2.458  0.3773  0.5382 -0.0508
    9MOL    H56 1992   2.556   6.629   2.178  2.9399 -1.3754 -0.7365
    9MOL    H57 1993   2.631   6.656   2.017  0.7651  0.9971 -0.7560
    9MOL    H58 1994   2.752   6.849   2.104 -2.6380  0.7261  0.2998
    9MOL    H59 1995   2.690   7.075   2.440 -0.0782  1.0796  3.5981
    9MOL    H60 1996   2.861   7.053   2.493  1.9465 -1.3105 -1.4140
    9MOL    H61 1997   2.735   6.933   2.534  0.0200  0.8448  0.0749
    9MOL    C62 1998   2.852   6.678   2.166  0.1070 -0.0560  0.3817
    9MOL    C63 1999   2.845   6.565   2.267 -0.9836 -1.2896 -0.1551
    9MOL    C64 2000   2.768   6.439   2.217  0.0493  0.8472  0.9561
    9MOL    O65 2001   2.667   6.400   2.271 -0.5235 -0.5296  0.2098
    9MOL    O66 2002   2.825   6.375   2.105 -0.1505 -0.7634 -0.0973
    9MOL    C67 2003   2.755   6.253   2.061  0.0392 -0.1595 -0.0826
    9MOL    H68 2004   2.860   6.632   2.067  0.5924 -1.2954  0.9881
    9MOL    H69 2005   2.946   6.731   2.180  0.2453 -0.6150  1.6099
    9MOL    H70 2006   2.791   6.599   2.354  2.2732  1.0572  1.0612
    9MOL    H71 2007   2.754   6.258   1.952 -1.4688  1.6551 -0.0211
    9MOL    H72 2008   2.649   6.257   2.087  0.0467  3.1253 -0.2792
    9MOL    H73 2009   2.792   6.163   2.109  1.1694  1.1433  1.5245
    9MOL    C74 2010   2.986   6.526   2.311 -0.7795  0.4696 -0.0312
    9MOL    C75 2011   3.053   6.587   2.432 -0.1571 -0.0227  0.5591
    9MOL    C76 2012   2.965   6.562   2.552 -0.8447 -0.3443 -0.7594
    9MOL    O77 2013   2.922   6.652   2.621 -0.2657  0.0425  0.0006
    9MOL    O78 2014   2.946   6.428   2.578 -0.4121 -0.1086 -0.9164
    9MOL    C79 2015   2.841   6.397   2.663 -0.4442 -0.1659  0.0571
    9MOL    H80 2016   2.985   6.418   2.327 -0.4094  0.5712  0.7105
    9MOL    H81 2017   3.055   6.526   2.226 -0.4268  0.5922  0.2546
    9MOL    H82 2018   3.058   6.695   2.417  0.8287 -0.2970 -1.0911
    9MOL    H83 2019   2.810   6.292   2.664 -0.1156 -0.2615  0.9199
    9MOL    H84 2020   2.756   6.461   2.642  1.3051  2.2059  0.0177
    9MOL    H85 2021   2.865   6.415   2.768  0.2161 -1.9474  0.2425
    9MOL    C86 2022   3.197   6.533   2.458  0.2571 -0.5993 -0.1721
    9MOL    C87 2023   3.275   6.584   2.581  0.2223 -0.1108  0.8263
    9MOL    C88 2024   3.407   6.514   2.589 -0.2297 -0.5084 -0.5495
    9MOL    O89 2025   3.441   6.451   2.689  0.1045  0.5327 -0.0737
    9MOL    O90 2026   3.482   6.526   2.475  0.0097 -0.7060  0.0660
    9MOL    C91 2027   3.615   6.462   2.476 -0.4208 -0.5606  0.3333
    9MOL    H92 2028   3.181   6.425   2.462  0.2928 -0.6348 -0.8288
    9MOL    H93 2029   3.258   6.559   2.371 -0.3757  0.4998 -0.2987
    9MOL    H94 2030   3.208   6.558   2.662 -2.8079 -0.4913 -1.7182
    9MOL    H95 2031   3.680   6.493   2.394  0.9240 -1.9214  0.8581
    9MOL    H96 2032   3.604   6.354   2.474 -0.9523 -0.5363  1.3747
    9MOL    H97 2033   3.664   6.486   2.570 -2.7349 -1.8661  1.9366
    9MOL    C98 2034   3.307   6.736   2.580  0.3646  0.2857  0.1193
    9MOL    C99 2035   3.253   6.814   2.707 -0.2580 -0.0574  1.0062
    9MOL   C100 2036   3.336   6.784   2.839  0.1035  0.1142 -0.1720
    9MOL   O101 2037   3.450   6.830   2.858 -0.3952 -0.0118 -0.4990
    9MOL   O102 2038   3.282   6.685   2.913  0.6620 -0.3786 -0.1328
    9MOL   C103 2039   3.336   6.656   3.042  0.3439 -0.2764 -0.4310
    9MOL   H104 2040   3.410   6.768   2.567  0.4677  0.7891  2.0389
    9MOL   H105 2041   3.265   6.778   2.489 -1.4278  0.2950  0.9226
    9MOL   H106 2042   3.151   6.784   2.728 -0.6393  1.0509  0.7265
    9MOL   H107 2043   3.262   6.641   3.120  2.4144 -2.2780  1.1952
    9MOL   H108 2044   3.406   6.730   3.081  0.1169 -0.7860  0.9571
    9MOL   H109 2045   3.388   6.560   3.042  3.0318  1.0230  4.1878
    9MOL   C110 2046   3.248   6.962   2.673  0.2532  0.2222  0.1050
    9MOL   C111 2047   3.161   7.043   2.773 -0.3876  0.5101 -0.0496
    9MOL   C112 2048   3.211   7.184   2.782  0.4393 -0.0669 -0.0284
    9MOL   O113 2049   3.145   7.277   2.739  0.2208  0.0868  0.2201
    9MOL   O114 2050   3.314   7.199   2.878  0.2456 -0.0998  0.4424
    9MOL   C115 2051   3.345   7.325   2.927 -0.8185 -0.5172 -0.4285
    9MOL   H116 2052   3.348   7.004   2.668  1.0042 -1.4009  1.1617
    9MOL   H117 2053   3.201   6.984   2.577 -0.8418  0.0202  0.5849
    9MOL   H118 2054   3.178   6.997   2.870  0.5777 -1.3606 -1.0635
    9MOL   H119 2055   3.400   7.382   2.852  0.6665 -0.1845  0.8612
    9MOL   H120 2056   3.419   7.298   3.003  3.2306  0.3807 -3.8603
    9MOL   H121 2057   3.263   7.371   2.981 -0.0818  1.7085 -1.1612
    9MOL   C122 2058   3.007   7.036   2.732  0.2253 -0.3835  0.8779
    9MOL   C123 2059   2.917   7.069   2.852  0.4757  0.3341 -0.3131
    9MOL   C124 2060   2.813   7.175   2.812  0.4310 -0.4331  0.4555
    9MOL   O125 2061   2.725   7.158   2.727 -0.0193  0.0410 -0.1862
    9MOL   O126 2062   2.842   7.290   2.878 -0.0529 -0.0020 -0.2677
    9MOL   C127 2063   2.747   7.401   2.857  0.0623  0.0315 -0.1862
    9MOL   H128 2064   2.983   7.113   2.658  5.5597 -1.2726 -2.0644
    9MOL   H129 2065   2.988   6.938   2.686  2.3093 -0.0008 -0.8838
    9MOL   H130 2066   2.979   7.113   2.930 -0.1887  1.0481 -0.1700
    9MOL   H131 2067   2.641   7.377   2.868 -0.1225 -0.6134 -2.9950
    9MOL   H132 2068   2.764   7.451   2.762  2.6901  0.4723  0.4990
    9MOL   H133 2069   2.767   7.480   2.929  1.3227 -0.5395  0.0942
    9MOL   C134 2070   2.844   6.946   2.904  0.6952 -0.0446  0.0109
    9MOL   C135 2071   2.942   6.852   2.981  0.2445 -0.3348 -0.4916
    9MOL   C136 2072   2.964   6.888   3.121 -0.2349 -0.2494  0.3179
    9MOL   O137 2073   3.075   6.866   3.175 -0.5027 -0.0777 -0.1539
    9MOL   O138 2074   2.860   6.934   3.184 -0.3788  0.2990 -0.7866
    9MOL   C139 2075   2.869   6.977   3.321  0.0265 -0.3123  0.4301
    9MOL   H140 2076   2.767   6.983   2.971 -0.5321 -1.1125 -0.7923
    9MOL   H141 2077   2.794   6.899   2.819 -0.9944  1.1249  0.3356
    9MOL   H142 2078   3.044   6.855   2.943  0.7105 -0.1038  0.7662
    9MOL   H143 2079   2.928   7.069   3.322  1.0149 -0.9439  0.2046
    9MOL   H144 2080   2.927   6.904   3.377  1.3656  1.1940  1.0782
    9MOL   H145 2081   2.768   6.995   3.357 -0.5877 -0.0050 -1.3922
    9MOL   C146 2082   2.895   6.702   2.969 -0.2420 -0.5841 -0.0445
    9MOL   C147 2083   2.760   6.667   3.034  0.3425  0.0705 -0.2353
    9MOL   C148 2084   2.646   6.679   2.930 -0.3817 -0.7967  0.4245
    9MOL   O149 2085   2.578   6.785   2.921 -0.2809 -0.1599  0.2564
    9MOL   O150 2086   2.621   6.569   2.855  0.1309 -0.5718 -0.1886
    9MOL   C151 2087   2.518   6.570   2.760 -0.3199 -1.0747 -0.2339
    9MOL   H152 2088   2.889   6.675   2.864 -1.6032 -0.9151  0.1083
    9MOL   H153 2089   2.980   6.646   3.009  1.2588  0.9990 -0.9777
    9MOL   H154 2090   2.728   6.731   3.116 -1.2154  0.3332 -1.0247
    9MOL   H155 2091   2.519   6.476   2.704 -1.0827 -1.0649 -0.2801
    9MOL   H156 2092   2.534   6.661   2.702  0.7850  0.7849  2.9087
    9MOL   H157 2093   2.418   6.579   2.803  0.0313 -0.1413  0.3799
    9MOL   C158 2094   2.767   6.531   3.117 -0.2360 -0.1614 -0.2092
    9MOL   C159 2095   2.825   6.532   3.259  0.1665 -0.2144 -0.1545
    9MOL   C160 2096   2.734   6.598   3.357 -0.7788 -0.1074  0.3737
    9MOL   O161 2097   2.757   6.710   3.408  0.1788 -0.2643  0.8336
    9MOL   O162 2098   2.615   6.536   3.370 -0.5143 -0.6365  0.1071
    9MOL   C163 2099   2.506   6.589   3.437  0.4352  0.2209  0.4713
    9MOL   H164 2100   2.669   6.485   3.114 -0.1573 -0.2780 -1.1565
    9MOL   H165 2101   2.819   6.464   3.048 -2.0791 -0.4175 -1.3714
    9MOL   H166 2102   2.919   6.588   3.252  0.7323 -1.3565 -1.9488
    9MOL   H167 2103   2.501   6.538   3.533 -0.2061 -1.4560 -0.4414
    9MOL   H168 2104   2.415   6.560   3.386  1.1146 -0.5500 -0.3160
    9MOL   H169 2105   2.510   6.698   3.447 -1.3416  0.5038 -1.7786
    9MOL   C170 2106   2.871   6.387   3.308  0.1202 -0.5678 -0.5176
    9MOL   C171 2107   2.989   6.374   3.403 -0.2506 -0.1657  0.0914
    9MOL   C172 2108   3.125   6.387   3.342  0.5301 -0.0637  0.3406
    9MOL   O173 2109   3.205   6.475   3.374  0.1609 -0.4674 -0.3710
    9MOL   O174 2110   3.144   6.286   3.253 -0.7211  0.6447 -0.2893
    9MOL   C175 2111   3.278   6.266   3.214 -0.6420  0.4708  0.5880
    9MOL   H176 2112   2.793   6.320   3.344  0.4905 -2.2630 -2.7747
    9MOL   H177 2113   2.898   6.320   3.227 -2.3179  0.1510 -1.9910
    9MOL   H178 2114   2.994   6.270   3.433  1.4056  1.0827  4.5768
    9MOL   H179 2115   3.323   6.224   3.303 -1.1541 -1.9088 -0.2588
    9MOL   H180 2116   3.330   6.360   3.192  0.4428 -0.6996 -2.0166
    9MOL   H181 2117   3.299   6.201   3.130  1.0441  1.9217 -0.1523
    9MOL   C182 2118   2.985   6.450   3.533  0.5041 -0.7472  0.0248
    9MOL   C183 2119   2.869   6.431   3.637 -0.0698 -0.3110  0.4996
    9MOL   C184 2120   2.846   6.285   3.662 -1.2110  0.2395 -0.5022
    9MOL   O185 2121   2.929   6.208   3.714 -0.4704  0.3139 -0.2434
    9MOL   O186 2122   2.734   6.244   3.610  0.4676  0.0333 -0.9964
    9MOL   C187 2123   2.694   6.107   3.609  0.3022 -0.7174  0.7915
    9MOL   H188 2124   3.076   6.439   3.592  1.7017  1.7897 -1.2568
    9MOL   H189 2125   2.983   6.556   3.507  0.3511 -0.9056 -0.6268
    9MOL   H190 2126   2.775   6.469   3.598 -0.0918 -2.3212 -1.5419
    9MOL   H191 2127   2.599   6.107   3.555  0.2202  3.0989  0.8016
    9MOL   H192 2128   2.690   6.065   3.710 -3.1916  1.0557  1.4518
    9MOL   H193 2129   2.762   6.049   3.546  1.6206  2.0369 -0.3917
    9MOL   C194 2130   2.903   6.504   3.769 -0.2114 -0.2481  0.4977
    9MOL   C195 2131   2.777   6.561   3.848  0.0070 -0.4641  0.1851
    9MOL   C196 2132   2.654   6.468   3.848 -0.0192 -0.0222  0.2921
    9MOL   O197 2133   2.551   6.508   3.798 -0.4222  0.2934 -0.2784
    9MOL   O198 2134   2.677   6.359   3.923  0.1831 -0.1179 -0.5636
    9MOL   C199 2135   2.573   6.265   3.950 -0.1020 -0.0995 -0.0809
    9MOL   H200 2136   2.955   6.426   3.825  0.7160  0.1937  0.2507
    9MOL   H201 2137   2.968   6.589   3.753 -0.9013 -0.0771 -1.6065
    9MOL   H202 2138   2.732   6.650   3.805  0.9752  0.2073  0.5630
    9MOL   H203 2139   2.515   6.295   4.037  0.1928 -0.0067  0.0846
    9MOL   H204 2140   2.625   6.170   3.966  1.5878  0.8433  0.1251
    9MOL   H205 2141   2.505   6.258   3.865 -0.1244 -1.6268  0.0453
    9MOL   C206 2142   2.818   6.591   3.999 -0.7394  0.0402 -0.3250
    9MOL   C207 2143   2.922   6.702   4.028  0.1776  0.3098  0.0662
    9MOL   C208 2144   2.901   6.827   3.940 -0.1010  0.8165 -0.3195
    9MOL   O209 2145   2.993   6.862   3.869  0.5366  0.4412  0.4827
    9MOL   O210 2146   2.782   6.885   3.955 -0.1631 -0.5297  0.3284
    9MOL   C211 2147   2.752   6.991   3.864 -0.0036  0.5630 -0.5061
    9MOL   H212 2148   2.722   6.607   4.049 -0.8305  0.7727 -0.7208
    9MOL   H213 2149   2.858   6.500   4.045 -2.2093 -0.2047  0.5092
    9MOL   H214 2150   3.024   6.665   4.017  0.4052  1.0129 -0.1675
    9MOL   H215 2151   2.659   7.040   3.894  0.7896  0.9760  1.3465
    9MOL   H216 2152   2.741   6.937   3.770 -0.8403  1.0655 -0.7039
    9MOL   H217 2153   2.831   7.065   3.857  1.6254 -0.9526  0.9862
    9MOL   C218 2154   2.913   6.742   4.173 -0.1072 -0.1177  0.4214
    9MOL   C219 2155   3.053   6.763   4.239 -0.0154 -0.8013 -0.0053
    9MOL   C220 2156   3.114   6.887   4.167 -0.2592 -0.2188  0.1919
    9MOL   O221 2157   3.065   6.997   4.196  0.0838 -0.1154  0.0252
    9MOL   O222 2158   3.224   6.865   4.089 -0.0088  0.5172  0.6407
    9MOL   C223 2159   3.306   6.963   4.049 -0.0641 -0.5196  0.0706
    9MOL   H224 2160   2.852   6.832   4.182  1.2974  0.5854  3.3467
    9MOL   H225 2161   2.860   6.665   4.230 -1.0491 -1.9334 -2.7394
    9MOL   H226 2162   3.105   6.673   4.208 -1.5909 -0.6053 -3.4175
    9MOL   H227 2163   3.367   6.944   3.961 -0.0480  0.5088 -0.1422
    9MOL   H228 2164   3.369   7.002   4.129  0.5999 -0.0067 -0.6880
    9MOL   H229 2165   3.245   7.046   4.013  0.4904  0.4208  1.2674
    9MOL   C230 2166   3.036   6.780   4.391 -0.0159  0.2807 -0.8188
    9MOL   C231 2167   3.175   6.778   4.473  0.1223  0.0090  0.7704
    9MOL   C232 2168   3.241   6.640   4.470 -0.3352 -0.6199  0.6273
    9MOL   O233 2169   3.304   6.601   4.374 -0.1090  0.5449  0.9572
    9MOL   O234 2170   3.207   6.572   4.574 -0.2113 -0.5268  0.3771
    9MOL   C235 2171   3.254   6.442   4.596  0.0230 -0.0528  0.2325
    9MOL   H236 2172   2.988   6.875   4.412 -0.1650  0.0180  0.0676
    9MOL   H237 2173   2.968   6.702   4.424  0.2653 -0.1945 -1.3441
    9MOL   H238 2174   3.172   6.804   4.578 -0.6095  2.5849  0.1377
    9MOL   H239 2175   3.271   6.441   4.703  1.5107  0.8132  0.0182
    9MOL   H240 2176   3.350   6.426   4.546  1.3198 -0.3023  2.7558
    9MOL   H241 2177   3.184   6.367   4.559  2.1844 -1.5296 -1.0057
    9MOL   H242 2178   3.235   6.858   4.432 -0.1287 -0.5816 -0.8051
   10MOL     C1 2179   2.091   4.979   6.179  0.0023 -0.1465 -0.3293
   10MOL     C2 2180   2.151   5.118   6.129  0.0052  0.2111 -0.1869
   10MOL     C3 2181   2.306   5.111   6.126  0.7598 -0.1862  0.2241
   10MOL     O4 2182   2.366   5.161   6.215 -0.4180  0.4542  0.2578
   10MOL     O5 2183   2.353   5.033   6.036  0.2733 -0.4372  0.4036
   10MOL     C6 2184   2.494   5.030   6.022  0.7489 -0.0862 -0.0464
   10MOL     H7 2185   2.129   4.954   6.278  1.9662  2.7335 -0.3054
   10MOL     H8 2186   2.135   4.906   6.111 -1.3053  0.1607 -1.5140
   10MOL     H9 2187   2.119   5.186   6.207  2.0929 -1.2746  2.0338
   10MOL    H10 2188   2.515   4.939   5.966  0.5609  0.7851 -1.5686
   10MOL    H11 2189   2.552   5.012   6.112 -0.4896 -3.5880  0.1321
   10MOL    H12 2190   2.533   5.113   5.961 -0.7836 -1.3083 -2.8061
   10MOL    H13 2191   1.982   4.974   6.179 -0.0402  0.6535  0.7673
   10MOL    C14 2192   2.093   5.153   5.991  0.1440  0.3729  0.0982
   10MOL    C15 2193   2.084   5.304   5.957  0.1048 -0.4242  0.3154
   10MOL    C16 2194   2.211   5.352   5.883  0.1639  0.2468  0.3921
   10MOL    O17 2195   2.244   5.305   5.776  0.2314 -0.4445  0.5587
   10MOL    O18 2196   2.270   5.449   5.944 -0.1299  0.6602  0.2380
   10MOL    C19 2197   2.407   5.482   5.903  0.0746  0.4971  0.7150
   10MOL    H20 2198   2.141   5.090   5.917  1.0640  0.1453  0.8921
   10MOL    H21 2199   1.989   5.119   5.985 -0.3717  1.5680  1.7264
   10MOL    H22 2200   2.069   5.347   6.057  1.7443 -1.9211  1.2375
   10MOL    H23 2201   2.461   5.422   5.976  2.1529  0.3332 -0.9262
   10MOL    H24 2202   2.427   5.587   5.925  0.2144  0.0224  3.0696
   10MOL    H25 2203   2.433   5.462   5.799 -0.8470 -2.1445  0.9463
   10MOL    C26 2204   1.963   5.345   5.871  0.3579 -0.2867 -0.7029
   10MOL    C27 2205   1.921   5.496   5.862 -0.3437 -0.3540 -0.2549
   10MOL    C28 2206   1.824   5.522   5.745  0.3361 -0.6561 -0.3357
   10MOL    O29 2207   1.841   5.611   5.661  0.3241 -0.3635  0.1290
   10MOL    O30 2208   1.719   5.442   5.753 -0.2234  0.4910  0.2419
   10MOL    C31 2209   1.612   5.459   5.656 -0.3304  0.2943 -0.1582
   10MOL    H32 2210   1.979   5.312   5.768 -1.5847  1.4494 -1.6026
   10MOL    H33 2211   1.886   5.277   5.907  1.1334 -1.7257 -1.7219
   10MOL    H34 2212   2.006   5.558   5.836  0.4209 -2.3994 -2.9095
   10MOL    H35 2213   1.626   5.401   5.565 -0.6334 -1.2589  0.7683
   10MOL    H36 2214   1.598   5.563   5.627 -1.4394  0.4779  0.9369
   10MOL    H37 2215   1.515   5.436   5.703 -0.2198  0.1437 -0.0015
   10MOL    C38 2216   1.870   5.542   6.006  0.1344  0.8344  1.6023
   10MOL    C39 2217   1.898   5.683   6.058  0.4050 -0.3703  0.3822
   10MOL    C40 2218   1.892   5.792   5.949  0.3248 -0.6293  0.7993
   10MOL    O41 2219   1.781   5.846   5.932 -0.7098 -0.0337  0.3123
   10MOL    O42 2220   1.999   5.798   5.868 -0.5006 -0.4511 -0.6772
   10MOL    C43 2221   1.996   5.910   5.781  0.1127 -0.1133  0.3026
   10MOL    H44 2222   1.761   5.536   6.014  0.0375  2.7124  1.8951
   10MOL    H45 2223   1.914   5.470   6.075 -1.4417 -1.6493  0.0883
   10MOL    H46 2224   2.003   5.670   6.083  0.2853 -1.0546  0.5404
   10MOL    H47 2225   2.085   5.896   5.719  0.3668  0.6136  0.4976
   10MOL    H48 2226   1.997   6.002   5.838  0.6412  0.8818 -1.2761
   10MOL    H49 2227   1.903   5.913   5.724  0.2833 -2.1330 -0.1348
   10MOL    C50 2228   1.817   5.710   6.182  0.3899 -0.0163 -0.2022
   10MOL    C51 2229   1.861   5.840   6.259 -0.0767 -0.1927  0.2077
   10MOL    C52 2230   1.757   5.894   6.358 -0.2394 -0.2591 -1.4955
   10MOL    O53 2231   1.661   5.833   6.400 -0.4030  0.0751  0.0672
   10MOL    O54 2232   1.790   6.015   6.402 -0.6050 -0.2015  0.5406
   10MOL    C55 2233   1.712   6.065   6.506  0.5243 -0.3689 -0.6973
   10MOL    H56 2234   1.713   5.723   6.153  1.0784  1.0535 -2.3116
   10MOL    H57 2235   1.818   5.618   6.241  1.3144 -0.3816 -0.7698
   10MOL    H58 2236   1.879   5.915   6.182  0.7233  0.7534  1.2902
   10MOL    H59 2237   1.611   6.025   6.501 -1.1032  3.1905  1.8474
   10MOL    H60 2238   1.696   6.172   6.495  0.2026 -0.1574  1.5167
   10MOL    H61 2239   1.749   6.060   6.609 -1.4927 -2.3912 -0.0140
   10MOL    C62 2240   2.002   5.823   6.326  0.8743  0.2211 -0.2810
   10MOL    C63 2241   2.003   5.722   6.450 -0.9854 -0.0400  0.1628
   10MOL    C64 2242   2.065   5.582   6.412  0.7443  0.0339 -1.0851
   10MOL    O65 2243   2.003   5.481   6.420 -0.2859  0.5273 -0.0772
   10MOL    O66 2244   2.187   5.600   6.358  0.2567  0.1324 -0.7871
   10MOL    C67 2245   2.267   5.482   6.338 -0.0093 -0.0552  0.8490
   10MOL    H68 2246   2.077   5.796   6.252  0.9992  0.9482 -0.4192
   10MOL    H69 2247   2.037   5.922   6.358  0.8781  0.1219  0.0256
   10MOL    H70 2248   1.896   5.714   6.468 -1.3102  0.7404 -1.3581
   10MOL    H71 2249   2.373   5.496   6.315 -0.1847 -0.0231  0.0360
   10MOL    H72 2250   2.221   5.431   6.254  2.8780 -0.9264 -0.2921
   10MOL    H73 2251   2.264   5.402   6.411  1.2591 -1.5395 -0.6760
   10MOL    C74 2252   2.076   5.791   6.562  0.2952 -0.3345 -0.1717
   10MOL    C75 2253   2.028   5.728   6.696 -0.8338  0.5574 -0.2506
   10MOL    C76 2254   2.136   5.735   6.802  0.0384 -0.2420  0.0961
   10MOL    O77 2255   2.208   5.634   6.830  0.0753  0.1414 -0.3534
   10MOL    O78 2256   2.156   5.859   6.838  0.0157 -0.6131  0.2983
   10MOL    C79 2257   2.281   5.892   6.890  0.8301 -0.1037  0.2481
   10MOL    H80 2258   2.184   5.776   6.555  0.3773  0.1750 -0.0024
   10MOL    H81 2259   2.039   5.893   6.569 -2.1305 -1.0146 -2.3047
   10MOL    H82 2260   2.021   5.621   6.677 -1.8268  0.0963  2.4717
   10MOL    H83 2261   2.369   5.841   6.850  0.6291  0.4236 -0.8865
   10MOL    H84 2262   2.270   5.876   6.997 -0.0424  0.5666  0.2595
   10MOL    H85 2263   2.292   5.995   6.858 -0.0353  0.1731  0.8143
   10MOL    C86 2264   1.894   5.787   6.760  0.3448 -0.1797  0.1041
   10MOL    C87 2265   1.843   5.724   6.895  0.7327 -0.0895 -0.9094
   10MOL    C88 2266   1.726   5.799   6.950  0.3156  0.2078 -0.1353
   10MOL    O89 2267   1.670   5.889   6.887  0.4748  0.1381  0.8058
   10MOL    O90 2268   1.676   5.745   7.060  0.2522  0.3274 -0.0161
   10MOL    C91 2269   1.568   5.802   7.129  0.7793 -0.4705 -0.2542
   10MOL    H92 2270   1.909   5.894   6.775 -1.8398  0.0666  0.5858
   10MOL    H93 2271   1.819   5.780   6.682  1.6915 -0.5082 -1.1949
   10MOL    H94 2272   1.920   5.736   6.970 -0.2003  2.2651 -0.2964
   10MOL    H95 2273   1.466   5.800   7.089  0.3339  1.4369  0.7364
   10MOL    H96 2274   1.584   5.909   7.126 -1.3987 -0.1455 -1.6547
   10MOL    H97 2275   1.558   5.773   7.233  1.8215  0.7958  0.1997
   10MOL    C98 2276   1.813   5.572   6.876 -0.7791  0.5932  0.4221
   10MOL    C99 2277   1.911   5.480   6.951 -0.2198  0.1657 -0.2446
   10MOL   C100 2278   1.900   5.495   7.098  0.1206  0.6184 -0.7021
   10MOL   O101 2279   1.987   5.544   7.166 -0.4944 -0.4498 -0.8318
   10MOL   O102 2280   1.778   5.461   7.149  0.1018  0.0097 -0.0848
   10MOL   C103 2281   1.738   5.514   7.274 -0.4225 -0.4483  0.6650
   10MOL   H104 2282   1.711   5.536   6.889 -1.1959  0.5320 -2.6434
   10MOL   H105 2283   1.812   5.534   6.774  1.4344 -2.7642  1.5747
   10MOL   H106 2284   2.014   5.510   6.932 -0.5991  0.6880 -1.5098
   10MOL   H107 2285   1.642   5.471   7.303 -0.6495 -1.4511 -1.4665
   10MOL   H108 2286   1.740   5.622   7.282 -2.5934 -0.0080 -3.3593
   10MOL   H109 2287   1.800   5.464   7.349 -0.9060 -1.2588  0.5336
   10MOL   C110 2288   1.892   5.331   6.906  1.0119  0.5696  0.6777
   10MOL   C111 2289   1.974   5.279   6.788  0.0678  0.9572 -0.5339
   10MOL   C112 2290   2.124   5.316   6.787  0.0259  0.2537  0.7997
   10MOL   O113 2291   2.176   5.352   6.684  0.7763 -0.1617  0.3577
   10MOL   O114 2292   2.180   5.318   6.903  0.0186 -0.3115 -0.2328
   10MOL   C115 2293   2.323   5.321   6.910 -0.1511 -0.4434  0.8511
   10MOL   H116 2294   1.914   5.264   6.990  0.1224  0.1489  0.5741
   10MOL   H117 2295   1.791   5.323   6.866  0.7859 -1.6480  1.6109
   10MOL   H118 2296   1.928   5.308   6.694  0.6025 -0.0038 -1.1092
   10MOL   H119 2297   2.367   5.311   7.009  1.2529 -2.0294  0.0872
   10MOL   H120 2298   2.345   5.411   6.853  0.5846 -0.6987  0.7290
   10MOL   H121 2299   2.354   5.234   6.851 -1.5154  0.0301 -0.5997
   10MOL   C122 2300   1.962   5.123   6.787  0.0378  0.4934  0.3052
   10MOL   C123 2301   1.991   5.056   6.662  0.2268  0.6172 -0.1821
   10MOL   C124 2302   2.128   4.987   6.660  0.3151 -0.1644  0.3288
   10MOL   O125 2303   2.199   4.997   6.757  0.1545  0.2858  0.3585
   10MOL   O126 2304   2.152   4.931   6.539 -0.5409 -0.3434  0.0998
   10MOL   C127 2305   2.257   4.847   6.517 -1.1100 -0.0823 -0.3961
   10MOL   H128 2306   2.015   5.082   6.873  0.1475 -0.7545 -0.3466
   10MOL   H129 2307   1.863   5.099   6.826  0.3173 -0.2676  0.5493
   10MOL   H130 2308   1.999   5.137   6.588 -2.3443  1.0284 -0.0539
   10MOL   H131 2309   2.322   4.883   6.437 -0.5689  1.1543  0.5787
   10MOL   H132 2310   2.226   4.746   6.490 -0.0864 -0.4133 -0.3838
   10MOL   H133 2311   2.330   4.841   6.598 -1.1627 -1.5313 -0.4336
   10MOL   C134 2312   1.880   4.964   6.618 -0.3533  0.0850 -0.3170
   10MOL   C135 2313   1.753   5.039   6.567 -0.1810 -0.1563  0.7764
   10MOL   C136 2314   1.760   5.060   6.412 -0.0815  1.1517 -0.3099
   10MOL   O137 2315   1.737   4.971   6.332  0.3985  0.3408  0.4279
   10MOL   O138 2316   1.787   5.197   6.386 -0.0253 -0.1207 -0.0077
   10MOL   C139 2317   1.822   5.230   6.252  0.7358 -0.4855  0.3230
   10MOL   H140 2318   1.920   4.895   6.544 -0.0589 -0.1909  0.0917
   10MOL   H141 2319   1.852   4.893   6.696 -1.0141 -0.6394 -1.2067
   10MOL   H142 2320   1.742   5.136   6.617 -0.7688  0.3282 -0.2684
   10MOL   H143 2321   1.825   5.339   6.243  1.8094 -0.3505  2.0684
   10MOL   H144 2322   1.747   5.194   6.182 -2.0486  2.8519  1.4097
   10MOL   H145 2323   1.919   5.192   6.221  0.3651 -0.4828 -0.8593
   10MOL   C146 2324   1.624   4.961   6.592  0.3013 -0.7519  0.6687
   10MOL   C147 2325   1.499   5.049   6.565 -0.3329 -0.4717 -0.2556
   10MOL   C148 2326   1.383   4.957   6.537  0.4285 -0.3195  0.2153
   10MOL   O149 2327   1.345   4.937   6.423 -0.2608  0.1175  0.3129
   10MOL   O150 2328   1.337   4.884   6.642 -0.3934 -0.8221  0.0180
   10MOL   C151 2329   1.232   4.793   6.631 -0.0198  0.5606 -0.1693
   10MOL   H152 2330   1.631   4.862   6.546  3.2752 -0.4405  0.3396
   10MOL   H153 2331   1.628   4.937   6.698 -1.7800  2.3498  1.4877
   10MOL   H154 2332   1.508   5.100   6.470  1.0979 -2.5433 -1.2929
   10MOL   H155 2333   1.136   4.841   6.612 -1.5755 -1.2197  2.8627
   10MOL   H156 2334   1.228   4.723   6.714  0.3157  2.9262  1.9059
   10MOL   H157 2335   1.252   4.731   6.543 -0.0057 -0.0183  0.2418
   10MOL   C158 2336   1.467   5.144   6.681 -0.1128  0.3856  0.5010
   10MOL   C159 2337   1.409   5.283   6.639  0.9279 -0.1420  0.0207
   10MOL   C160 2338   1.495   5.358   6.539 -0.4291 -0.9921 -0.1355
   10MOL   O161 2339   1.486   5.338   6.420  0.4249 -0.1654 -0.4467
   10MOL   O162 2340   1.583   5.433   6.605  0.4230 -0.5215  0.3198
   10MOL   C163 2341   1.679   5.499   6.522  0.3605  0.2106  0.0015
   10MOL   H164 2342   1.415   5.095   6.764  1.2531 -0.5342  0.8354
   10MOL   H165 2343   1.562   5.173   6.724  0.6483 -1.8901  0.4416
   10MOL   H166 2344   1.405   5.345   6.728 -1.5674 -0.2605  0.0117
   10MOL   H167 2345   1.720   5.437   6.442  0.2640  0.3393 -0.1484
   10MOL   H168 2346   1.767   5.527   6.581  1.3918 -0.4820 -1.1812
   10MOL   H169 2347   1.643   5.596   6.488 -1.3875 -0.8264 -1.1552
   10MOL   C170 2348   1.266   5.273   6.565  0.4484  0.2680  0.2784
   10MOL   C171 2349   1.153   5.247   6.658  0.7223 -0.5054 -1.2463
   10MOL   C172 2350   1.124   5.360   6.749  0.8450 -0.0246 -0.0688
   10MOL   O173 2351   1.133   5.482   6.724  0.3146  0.0552 -0.1670
   10MOL   O174 2352   1.097   5.309   6.869 -0.3140 -0.4740 -0.5911
   10MOL   C175 2353   1.070   5.399   6.973 -0.0141 -0.5641  0.2960
   10MOL   H176 2354   1.239   5.362   6.509 -2.1775  0.9863  2.5495
   10MOL   H177 2355   1.266   5.206   6.480 -1.1943 -1.6282  1.7354
   10MOL   H178 2356   1.183   5.169   6.727 -2.2733  1.4829  2.5224
   10MOL   H179 2357   1.150   5.442   7.034  0.7555 -2.4246  0.6330
   10MOL   H180 2358   1.026   5.343   7.055 -0.2933 -1.7591 -0.6600
   10MOL   H181 2359   0.999   5.470   6.930  0.0716 -0.5007  0.2572
   10MOL   C182 2360   1.026   5.202   6.590 -0.5284  0.1635 -0.0037
   10MOL   C183 2361   0.909   5.172   6.680  0.1630 -0.2110 -0.0849
   10MOL   C184 2362   0.783   5.176   6.600 -0.1300  0.0300 -0.4873
   10MOL   O185 2363   0.785   5.159   6.483 -0.0540  0.3959  1.0348
   10MOL   O186 2364   0.682   5.199   6.684 -0.5243 -0.3123  0.2540
   10MOL   C187 2365   0.560   5.244   6.627 -0.1956  0.4614 -0.4737
   10MOL   H188 2366   1.004   5.270   6.507 -0.7197  2.9553  2.2685
   10MOL   H189 2367   1.049   5.109   6.538  0.0995  0.9371 -1.1274
   10MOL   H190 2368   0.882   5.236   6.765 -0.2833  0.0773 -0.4409
   10MOL   H191 2369   0.538   5.169   6.550  0.5887  0.4648 -0.6990
   10MOL   H192 2370   0.578   5.344   6.587 -0.5109  1.4619  1.7866
   10MOL   H193 2371   0.471   5.245   6.690  0.6425 -1.2209  0.7674
   10MOL   C194 2372   0.922   5.026   6.752 -0.2836 -0.9688 -0.5403
   10MOL   C195 2373   0.810   4.974   6.851 -0.0793 -0.1067 -0.0065
   10MOL   C196 2374   0.816   4.825   6.860  0.0409  0.1468  0.3324
   10MOL   O197 2375   0.719   4.752   6.862 -0.0004  0.1484 -0.6126
   10MOL   O198 2376   0.940   4.776   6.876 -0.7078  0.6429 -0.1597
   10MOL   C199 2377   0.958   4.640   6.910 -0.1040  0.0307  0.2597
   10MOL   H200 2378   0.939   4.955   6.672 -0.1805 -1.1201 -0.3844
   10MOL   H201 2379   1.016   5.029   6.808 -1.4237 -2.8946  1.5833
   10MOL   H202 2380   0.710   5.005   6.821 -0.8520  0.5682  3.0529
   10MOL   H203 2381   0.910   4.579   6.834  2.1008  0.4927 -1.5434
   10MOL   H204 2382   0.920   4.611   7.008  0.2217 -1.7862 -0.1414
   10MOL   H205 2383   1.066   4.623   6.910  0.0923  1.2332 -1.5629
   10MOL   C206 2384   0.841   5.037   6.993  0.0946 -0.9176 -0.1756
   10MOL   C207 2385   0.705   5.077   7.057  0.1023 -0.6946  0.2330
   10MOL   C208 2386   0.640   4.964   7.132  0.4420  0.1144 -0.5527
   10MOL   O209 2387   0.699   4.874   7.188 -0.4388  0.3319 -0.4491
   10MOL   O210 2388   0.514   4.970   7.125  0.3080  0.0530 -0.0709
   10MOL   C211 2389   0.446   4.854   7.182  0.2679  0.0114 -0.6723
   10MOL   H212 2390   0.893   4.973   7.065  0.1677  0.4292  0.9943
   10MOL   H213 2391   0.899   5.129   6.987  1.3617 -1.7389 -0.5945
   10MOL   H214 2392   0.640   5.105   6.974  1.5468  2.0015 -0.0575
   10MOL   H215 2393   0.341   4.874   7.202  0.4075 -0.5149  0.6783
   10MOL   H216 2394   0.484   4.820   7.279  2.8944  0.9567 -1.3233
   10MOL   H217 2395   0.452   4.770   7.113 -1.1725  0.1892 -1.0259
   10MOL   C218 2396   0.710   5.211   7.132  0.2486 -0.2611  0.2235
   10MOL   C219 2397   0.638   5.326   7.065 -0.4806 -0.7267 -0.4783
   10MOL   C220 2398   0.489   5.316   7.066 -0.0042  0.4023  0.0955
   10MOL   O221 2399   0.421   5.399   7.128 -0.2308  0.2143 -1.3639
   10MOL   O222 2400   0.437   5.231   6.977 -0.2740 -0.3623 -0.4912
   10MOL   C223 2401   0.297   5.194   6.990 -0.0425  0.0358  0.1877
   10MOL   H224 2402   0.663   5.213   7.231 -1.6439 -0.6428 -0.6469
   10MOL   H225 2403   0.812   5.229   7.164  0.1616 -1.1317  1.0030
   10MOL   H226 2404   0.665   5.322   6.960 -2.0380 -1.8447 -0.8530
   10MOL   H227 2405   0.243   5.253   7.064  3.8205 -0.6815  3.7651
   10MOL   H228 2406   0.298   5.090   7.021  0.7534  0.4952  1.7551
   10MOL   H229 2407   0.246   5.198   6.894 -1.0308 -0.3118  0.6865
   10MOL   C230 2408   0.694   5.468   7.101 -0.0451  0.6618  0.5527
   10MOL   C231 2409   0.686   5.486   7.255  0.2381 -0.1932  0.6901
   10MOL   C232 2410   0.711   5.627   7.314 -0.2019  0.2560  0.3532
   10MOL   O233 2411   0.792   5.638   7.404  0.1023  0.2202  0.3201
   10MOL   O234 2412   0.634   5.725   7.264  0.0937 -0.2520  0.1960
   10MOL   C235 2413   0.638   5.859   7.307  0.0123 -0.2402 -0.8622
   10MOL   H236 2414   0.795   5.486   7.065  0.1434 -2.4911 -0.6933
   10MOL   H237 2415   0.631   5.538   7.045  2.8260  2.1882 -0.8616
   10MOL   H238 2416   0.752   5.414   7.304  0.3581 -0.7328 -0.2512
   10MOL   H239 2417   0.597   5.865   7.408  2.5411  1.1895  0.1468
   10MOL   H240 2418   0.594   5.920   7.228 -0.7541  0.8766  0.3958
   10MOL   H241 2419   0.739   5.900   7.320  1.1620 -3.6837  1.9575
   10MOL   H242 2420   0.590   5.456   7.295 -0.2875 -0.4585 -0.7480
   11MOL     C1 2421   6.166   5.231   4.760 -0.6890  0.9222  0.2936
   11MOL     C2 2422   6.091   5.136   4.663 -0.4787 -0.3186 -0.2941
   11MOL     C3 2423   5.957   5.188   4.603  0.4003  0.3051  0.2423
   11MOL     O4 2424   5.925   5.166   4.488  0.3911  0.0705 -0.2393
   11MOL     O5 2425   5.896   5.259   4.701  0.5043 -0.9664  0.1842
   11MOL     C6 2426   5.765   5.317   4.680  0.0463  0.5393  0.4598
   11MOL     H7 2427   6.108   5.315   4.797  1.1958  1.8506  1.2271
   11MOL     H8 2428   6.239   5.287   4.702  1.3023 -2.4116 -0.5570
   11MOL     H9 2429   6.046   5.059   4.725 -1.1158 -1.4627 -2.1394
   11MOL    H10 2430   5.777   5.422   4.652 -1.8235  0.6755  0.0775
   11MOL    H11 2431   5.707   5.310   4.772  0.4939  0.7669  0.7565
   11MOL    H12 2432   5.701   5.272   4.603  2.9017  0.8041 -2.1485
   11MOL    H13 2433   6.211   5.179   4.845 -0.9102 -1.8847 -1.2407
   11MOL    C14 2434   6.188   5.071   4.555  0.6078  0.0624  0.1350
   11MOL    C15 2435   6.289   4.965   4.592 -0.2853  0.0970 -0.6140
   11MOL    C16 2436   6.214   4.855   4.665  0.4800 -0.3441  0.2090
   11MOL    O17 2437   6.229   4.850   4.790  0.6766  0.0209  0.6243
   11MOL    O18 2438   6.122   4.775   4.596 -0.2293  0.5346  0.1757
   11MOL    C19 2439   6.038   4.686   4.663 -0.2022 -0.3221 -0.1059
   11MOL    H20 2440   6.142   5.044   4.460  0.7409 -1.9044  0.6012
   11MOL    H21 2441   6.255   5.151   4.524  2.0579 -0.6539  1.3450
   11MOL    H22 2442   6.355   5.023   4.656 -2.4704  1.0629  0.8682
   11MOL    H23 2443   6.077   4.615   4.735  0.8531 -0.4873 -0.8332
   11MOL    H24 2444   5.976   4.622   4.601 -0.5808 -2.1520  2.1230
   11MOL    H25 2445   5.974   4.750   4.724 -1.2570 -3.3987  2.0902
   11MOL    C26 2446   6.371   4.911   4.472 -0.0067 -0.2941  0.2658
   11MOL    C27 2447   6.506   4.841   4.508 -0.5323  0.5349  0.3517
   11MOL    C28 2448   6.496   4.738   4.621  0.5128 -0.5594  0.1925
   11MOL    O29 2449   6.565   4.743   4.721  0.4629 -0.5941 -0.0493
   11MOL    O30 2450   6.409   4.643   4.590  0.0157 -0.0392  0.4695
   11MOL    C31 2451   6.384   4.539   4.686 -0.1947  0.0351 -0.4416
   11MOL    H32 2452   6.312   4.840   4.413 -0.2459 -0.4105  0.6426
   11MOL    H33 2453   6.392   4.991   4.401 -1.6109  0.3644  0.5049
   11MOL    H34 2454   6.567   4.924   4.543  0.2109 -1.7658  4.9746
   11MOL    H35 2455   6.395   4.564   4.791 -0.5204 -2.2335  0.1594
   11MOL    H36 2456   6.446   4.450   4.672 -0.2735 -0.0058 -0.5333
   11MOL    H37 2457   6.284   4.503   4.665 -0.1888 -0.2436  0.0167
   11MOL    C38 2458   6.575   4.787   4.389 -0.3810  0.1066  0.5543
   11MOL    C39 2459   6.709   4.706   4.407  0.1017  0.0516  0.2440
   11MOL    C40 2460   6.754   4.667   4.269  0.7817  0.3484  0.7259
   11MOL    O41 2461   6.741   4.547   4.225 -0.5158  0.1207 -0.1125
   11MOL    O42 2462   6.796   4.769   4.196 -0.4180  0.1032  0.5909
   11MOL    C43 2463   6.841   4.740   4.067 -0.3688 -0.6532  0.5811
   11MOL    H44 2464   6.512   4.733   4.320  0.9289  1.0681 -1.4476
   11MOL    H45 2465   6.609   4.874   4.332  1.5740 -1.6401 -1.0024
   11MOL    H46 2466   6.690   4.613   4.459  0.1211 -0.0987 -0.0164
   11MOL    H47 2467   6.766   4.747   3.989  1.9375  0.1530 -1.6150
   11MOL    H48 2468   6.901   4.650   4.052 -0.1064 -0.4901  0.6468
   11MOL    H49 2469   6.911   4.823   4.055 -1.9117  0.5512 -0.1822
   11MOL    C50 2470   6.824   4.783   4.478  0.5305  0.0966 -0.3655
   11MOL    C51 2471   6.958   4.691   4.497  0.0162  0.1468  0.2503
   11MOL    C52 2472   7.086   4.768   4.541  0.4136  0.8235 -0.1887
   11MOL    O53 2473   7.176   4.784   4.456  0.2249  0.5435 -0.4245
   11MOL    O54 2474   7.084   4.808   4.665 -0.4231  0.2837 -0.6897
   11MOL    C55 2475   7.197   4.877   4.705 -0.2037  0.1196 -0.5392
   11MOL    H56 2476   6.847   4.880   4.436  0.2475  0.8946  1.2660
   11MOL    H57 2477   6.796   4.804   4.582 -1.6152  1.7138 -1.2465
   11MOL    H58 2478   6.984   4.664   4.395  1.3330  2.4336 -0.0395
   11MOL    H59 2479   7.207   4.889   4.813 -0.2740  1.1287 -0.6396
   11MOL    H60 2480   7.210   4.977   4.662  1.6630 -0.4287 -1.3089
   11MOL    H61 2481   7.284   4.822   4.670  0.6465  2.1066 -1.6619
   11MOL    C62 2482   6.927   4.567   4.582  0.0895 -0.2260 -0.3067
   11MOL    C63 2483   7.040   4.463   4.578  0.1315  0.3563  0.1250
   11MOL    C64 2484   7.114   4.455   4.712 -0.6583 -0.1268  0.1646
   11MOL    O65 2485   7.209   4.532   4.726  0.1744 -0.6395 -0.1627
   11MOL    O66 2486   7.085   4.352   4.793  0.0326 -0.1973  0.5059
   11MOL    C67 2487   7.177   4.323   4.909  0.4340 -0.7936  0.1254
   11MOL    H68 2488   6.912   4.592   4.687 -1.3424 -2.0132 -0.0662
   11MOL    H69 2489   6.833   4.521   4.551 -0.1119 -1.6339  2.2606
   11MOL    H70 2490   7.116   4.491   4.505 -0.2980  1.7484  0.1778
   11MOL    H71 2491   7.139   4.225   4.940 -0.5470 -0.5731 -0.3399
   11MOL    H72 2492   7.181   4.397   4.989 -0.1127 -0.2657 -0.3273
   11MOL    H73 2493   7.277   4.312   4.867 -0.9939 -0.9908 -3.4455
   11MOL    C74 2494   6.992   4.322   4.539 -0.0281 -0.4233 -0.5767
   11MOL    C75 2495   6.942   4.300   4.392 -0.4663 -0.6714 -1.2564
   11MOL    C76 2496   7.047   4.346   4.291  0.3266 -0.4094  0.7481
   11MOL    O77 2497   7.037   4.449   4.232 -0.0802 -0.3091 -0.2801
   11MOL    O78 2498   7.151   4.261   4.287 -0.2191 -0.2567 -0.0568
   11MOL    C79 2499   7.264   4.291   4.199  0.3641  0.5175  1.0924
   11MOL    H80 2500   7.077   4.255   4.554  2.2807  2.3544 -0.7395
   11MOL    H81 2501   6.911   4.286   4.602  0.5776 -1.4675 -0.3830
   11MOL    H82 2502   6.845   4.345   4.370  1.3663  2.7822 -2.6369
   11MOL    H83 2503   7.326   4.204   4.182 -1.1548 -0.2827 -0.4524
   11MOL    H84 2504   7.316   4.375   4.245  0.3914  0.7905  0.5606
   11MOL    H85 2505   7.222   4.320   4.103  2.0130 -1.6784 -0.3267
   11MOL    C86 2506   6.905   4.146   4.379 -0.4143 -0.2814 -0.0677
   11MOL    C87 2507   6.843   4.093   4.245 -0.0005  0.8833 -0.3027
   11MOL    C88 2508   6.831   3.940   4.244 -0.7566 -0.2415  0.9507
   11MOL    O89 2509   6.873   3.869   4.154  0.0591 -0.2096  0.5065
   11MOL    O90 2510   6.765   3.900   4.359 -0.0479  0.4180  0.1900
   11MOL    C91 2511   6.753   3.757   4.379  0.0184 -0.4048  0.2913
   11MOL    H92 2512   6.993   4.083   4.390 -1.0858 -1.1730  0.2627
   11MOL    H93 2513   6.842   4.125   4.465  0.3363  0.1885  0.6088
   11MOL    H94 2514   6.913   4.122   4.166  1.1352 -2.5128 -0.6455
   11MOL    H95 2515   6.742   3.744   4.486 -2.9091  0.2330  0.1219
   11MOL    H96 2516   6.833   3.692   4.346 -0.8121 -0.9964 -0.5855
   11MOL    H97 2517   6.664   3.719   4.329  0.8155 -1.3538 -0.4260
   11MOL    C98 2518   6.708   4.159   4.202  0.2112 -0.2121 -0.1866
   11MOL    C99 2519   6.652   4.106   4.067  0.3326 -0.4267 -0.3164
   11MOL   C100 2520   6.528   4.016   4.090 -0.0305 -0.0200 -0.0966
   11MOL   O101 2521   6.547   3.896   4.118  0.1931  0.1646 -0.2257
   11MOL   O102 2522   6.410   4.072   4.084 -0.3742 -0.0694 -0.0936
   11MOL   C103 2523   6.292   3.990   4.109 -0.4564 -0.4002 -0.0491
   11MOL   H104 2524   6.644   4.135   4.287  0.8245  0.0500  0.3566
   11MOL   H105 2525   6.722   4.267   4.207  1.5658 -0.3233 -1.5090
   11MOL   H106 2526   6.723   4.043   4.013 -1.3386  0.9862 -4.4152
   11MOL   H107 2527   6.312   3.894   4.060  1.1571 -0.3936  0.5610
   11MOL   H108 2528   6.207   4.036   4.060 -1.1893  0.1751  1.7362
   11MOL   H109 2529   6.268   3.960   4.211  1.7101 -1.8188  0.0832
   11MOL   C110 2530   6.631   4.216   3.951  0.4273 -0.5773 -0.4897
   11MOL   C111 2531   6.764   4.230   3.874 -0.1975 -0.5489 -0.6181
   11MOL   C112 2532   6.727   4.280   3.735 -0.4932  0.3305  0.2486
   11MOL   O113 2533   6.717   4.403   3.711 -0.3351 -0.6098  0.2477
   11MOL   O114 2534   6.689   4.179   3.664  0.1485  0.2498  0.3817
   11MOL   C115 2535   6.621   4.196   3.545 -0.2225 -0.1719  0.1389
   11MOL   H116 2536   6.551   4.183   3.886  1.4181  1.6771 -2.9410
   11MOL   H117 2537   6.593   4.316   3.972  0.8807 -0.4145 -0.4370
   11MOL   H118 2538   6.812   4.134   3.858  0.4597  0.0929 -2.6952
   11MOL   H119 2539   6.686   4.209   3.458 -0.3955  2.9136  0.4204
   11MOL   H120 2540   6.543   4.271   3.537  1.0919  1.1973 -0.1539
   11MOL   H121 2541   6.566   4.103   3.531  0.4288 -0.4777 -0.4735
   11MOL   C122 2542   6.867   4.329   3.941 -0.3245  0.6168 -0.4886
   11MOL   C123 2543   7.008   4.328   3.881  0.2637 -0.3163 -0.2479
   11MOL   C124 2544   7.060   4.185   3.858 -0.0589  0.3151  0.2079
   11MOL   O125 2545   7.070   4.138   3.742 -0.4255 -0.5176  0.3319
   11MOL   O126 2546   7.100   4.130   3.968 -0.7240 -0.1493  0.4394
   11MOL   C127 2547   7.143   3.995   3.965 -0.5427  0.3859 -0.0559
   11MOL   H128 2548   6.835   4.434   3.938 -0.8156  0.4766 -0.3018
   11MOL   H129 2549   6.868   4.318   4.049  0.9031  3.1573 -0.1970
   11MOL   H130 2550   7.074   4.366   3.959 -1.3795  1.1227  0.4727
   11MOL   H131 2551   7.180   3.952   4.058 -3.3998 -0.9508  0.5275
   11MOL   H132 2552   7.235   3.988   3.908  0.1690 -0.3367  1.1514
   11MOL   H133 2553   7.070   3.920   3.932  1.1497  0.4706 -4.2665
   11MOL   C134 2554   7.032   4.424   3.760  0.1381 -0.5407  0.0708
   11MOL   C135 2555   7.050   4.572   3.793  0.4964  0.0920  0.4120
   11MOL   C136 2556   7.165   4.592   3.891  0.2388  0.2002 -0.5712
   11MOL   O137 2557   7.270   4.528   3.890  0.2105 -0.0546 -0.1702
   11MOL   O138 2558   7.137   4.679   3.991 -0.1865  0.1112  0.3926
   11MOL   C139 2559   7.240   4.711   4.085  0.0852  0.2703  0.8335
   11MOL   H140 2560   7.109   4.377   3.699  0.6863  0.3516  0.0675
   11MOL   H141 2561   6.945   4.422   3.694 -0.0197  0.1585  0.2480
   11MOL   H142 2562   6.957   4.593   3.846  0.1631 -2.1944  0.8047
   11MOL   H143 2563   7.334   4.737   4.037 -0.1582  0.5087  0.4811
   11MOL   H144 2564   7.252   4.636   4.164 -1.6434  0.1982  1.0622
   11MOL   H145 2565   7.218   4.803   4.140 -2.5345  0.0420  0.2418
   11MOL   C146 2566   7.066   4.673   3.676 -0.2472  0.4271  0.6710
   11MOL   C147 2567   6.936   4.689   3.583  0.5887  0.2795  0.3617
   11MOL   C148 2568   6.826   4.776   3.644 -0.6057  0.0368 -0.3070
   11MOL   O149 2569   6.848   4.835   3.744 -0.1346 -0.0632 -0.3368
   11MOL   O150 2570   6.711   4.786   3.575  0.7060 -0.4503 -0.0556
   11MOL   C151 2571   6.598   4.844   3.643  0.4075 -0.6230  0.7293
   11MOL   H152 2572   7.086   4.774   3.712  0.8274  0.4905 -0.1019
   11MOL   H153 2573   7.161   4.653   3.627 -0.4894  2.0296 -0.4990
   11MOL   H154 2574   6.885   4.594   3.571  1.1681 -0.1616  1.3200
   11MOL   H155 2575   6.564   4.772   3.717  0.0121 -2.0903 -0.8384
   11MOL   H156 2576   6.514   4.848   3.574  2.5637 -1.2662 -2.0665
   11MOL   H157 2577   6.611   4.947   3.675 -0.3773 -0.9653  2.1929
   11MOL   C158 2578   6.971   4.754   3.443 -0.3622 -0.4383  0.0155
   11MOL   C159 2579   7.059   4.664   3.348  0.3895  0.0602  0.0250
   11MOL   C160 2580   7.003   4.525   3.331  0.0830  0.4795 -0.1584
   11MOL   O161 2581   6.943   4.499   3.223  0.6701 -0.1016 -0.0558
   11MOL   O162 2582   7.028   4.442   3.434 -0.2635 -0.5318 -0.0113
   11MOL   C163 2583   6.969   4.315   3.434  0.1560  0.0268  0.1652
   11MOL   H164 2584   6.885   4.781   3.382  0.0188  0.9048  0.0461
   11MOL   H165 2585   7.018   4.851   3.463  0.4750 -0.6923 -0.6632
   11MOL   H166 2586   7.153   4.639   3.398 -0.0058  0.5022  1.0038
   11MOL   H167 2587   6.994   4.263   3.342  1.2504  1.1526 -0.1885
   11MOL   H168 2588   6.862   4.333   3.444  0.2573 -0.4332  2.2991
   11MOL   H169 2589   7.011   4.252   3.513  1.9739  1.0013  0.0082
   11MOL   C170 2590   7.103   4.728   3.210 -0.2585 -0.0125  0.0893
   11MOL   C171 2591   7.198   4.848   3.195 -1.0601  0.4480  0.6923
   11MOL   C172 2592   7.281   4.879   3.313  0.6611 -0.3637 -0.1107
   11MOL   O173 2593   7.342   4.792   3.381 -0.1161  0.1613 -0.1971
   11MOL   O174 2594   7.290   5.009   3.333 -0.2285 -0.5255 -0.1547
   11MOL   C175 2595   7.372   5.056   3.433  0.2553  0.2832 -0.5907
   11MOL   H176 2596   7.145   4.646   3.151  1.2105  1.7665 -1.3728
   11MOL   H177 2597   7.006   4.754   3.167 -0.0416 -1.7555 -1.5567
   11MOL   H178 2598   7.136   4.937   3.182 -0.1436  0.9108 -0.6452
   11MOL   H179 2599   7.460   4.996   3.454  1.2654  1.4180 -1.5250
   11MOL   H180 2600   7.321   5.063   3.529  0.5359  0.8759 -0.4831
   11MOL   H181 2601   7.406   5.154   3.399  0.4412  1.8526  3.7742
   11MOL   C182 2602   7.273   4.858   3.058  0.1795 -0.5226  0.4585
   11MOL   C183 2603   7.312   4.999   3.010  0.6676  0.6979 -0.2831
   11MOL   C184 2604   7.416   4.992   2.905 -0.1034  0.3884 -0.0970
   11MOL   O185 2605   7.383   4.957   2.787  0.2565  0.1474 -0.6949
   11MOL   O186 2606   7.543   4.999   2.957  0.5109  0.6571  0.2739
   11MOL   C187 2607   7.651   4.956   2.879  0.1950  1.1082 -0.3206
   11MOL   H188 2608   7.363   4.796   3.060 -0.7143 -1.8781 -0.5718
   11MOL   H189 2609   7.216   4.807   2.980  0.6367 -0.2417 -0.0674
   11MOL   H190 2610   7.362   5.051   3.092  2.1134  1.5979 -1.7064
   11MOL   H191 2611   7.718   4.891   2.935 -1.6852 -0.3944  0.2300
   11MOL   H192 2612   7.704   5.046   2.848 -0.3871  1.0091 -1.6715
   11MOL   H193 2613   7.624   4.894   2.793  0.4011  1.7430 -0.8530
   11MOL   C194 2614   7.196   5.090   2.961 -0.0098  0.2748 -0.8901
   11MOL   C195 2615   7.133   5.189   3.068 -0.4602 -0.3877  0.1632
   11MOL   C196 2616   7.232   5.299   3.093  0.1225 -0.7009 -0.0104
   11MOL   O197 2617   7.287   5.300   3.204  0.1993  0.4078  0.4296
   11MOL   O198 2618   7.256   5.371   2.981  0.6376 -0.9101 -0.2362
   11MOL   C199 2619   7.355   5.470   2.984 -0.3014 -0.3910  0.2529
   11MOL   H200 2620   7.224   5.149   2.874  0.3518 -0.8370 -1.5482
   11MOL   H201 2621   7.119   5.018   2.932  2.2603 -2.3804 -0.5473
   11MOL   H202 2622   7.111   5.135   3.160  1.4821 -0.5097  0.5774
   11MOL   H203 2623   7.354   5.532   3.073 -1.4726  2.1058 -1.4437
   11MOL   H204 2624   7.361   5.535   2.897 -1.4844 -0.8652 -0.1960
   11MOL   H205 2625   7.449   5.417   2.970 -0.3511 -0.2066 -0.8178
   11MOL   C206 2626   6.998   5.243   3.037  0.2774 -0.2885 -0.2363
   11MOL   C207 2627   6.885   5.134   3.055  0.2717 -0.1437 -0.0262
   11MOL   C208 2628   6.852   5.113   3.201 -1.2639 -0.7695  0.1896
   11MOL   O209 2629   6.807   5.005   3.242  0.0749 -0.4148  0.6430
   11MOL   O210 2630   6.886   5.214   3.293 -0.8806  0.6596 -0.0810
   11MOL   C211 2631   6.889   5.181   3.424 -0.3026  0.4249  0.1397
   11MOL   H212 2632   6.968   5.334   3.091  0.1239  0.6496 -1.8585
   11MOL   H213 2633   7.011   5.281   2.936  1.3813 -1.6432 -0.6130
   11MOL   H214 2634   6.921   5.037   3.022  2.1582  0.4581  0.1793
   11MOL   H215 2635   6.886   5.265   3.494  1.8792  2.5003 -2.1446
   11MOL   H216 2636   6.976   5.121   3.450 -0.9143 -1.0323 -1.1330
   11MOL   H217 2637   6.812   5.109   3.450  0.9597 -1.3631 -0.9951
   11MOL   C218 2638   6.758   5.174   2.971  0.4087  0.3210 -0.4334
   11MOL   C219 2639   6.644   5.062   2.963 -0.3498  0.0746 -0.6125
   11MOL   C220 2640   6.511   5.124   2.919 -0.4055 -0.6515 -0.2863
   11MOL   O221 2641   6.500   5.225   2.844  1.1038 -0.2815  0.0552
   11MOL   O222 2642   6.415   5.068   2.976  0.2919  0.4423 -0.4144
   11MOL   C223 2643   6.282   5.087   2.925  0.3177 -0.7383 -0.1437
   11MOL   H224 2644   6.706   5.258   3.018  0.8721  0.1053  0.4740
   11MOL   H225 2645   6.784   5.213   2.873  0.6225 -1.4100 -1.0904
   11MOL   H226 2646   6.631   5.034   3.067 -1.6123  2.4292 -0.0864
   11MOL   H227 2647   6.217   5.009   2.962 -1.5065  0.8002 -0.0268
   11MOL   H228 2648   6.266   5.094   2.817  3.0319 -0.7318 -0.5918
   11MOL   H229 2649   6.255   5.184   2.966  1.1367 -0.6060  0.0922
   11MOL   C230 2650   6.683   4.930   2.892 -0.7001 -0.9818 -0.8844
   11MOL   C231 2651   6.736   4.945   2.748 -0.8000  1.1719 -0.6617
   11MOL   C232 2652   6.890   4.939   2.729 -0.3787  0.0718 -0.4707
   11MOL   O233 2653   6.951   5.033   2.675  0.2612  0.4260  0.1845
   11MOL   O234 2654   6.944   4.822   2.769  0.5519  0.2836 -0.3644
   11MOL   C235 2655   7.077   4.803   2.730  0.2000  0.1783 -0.0709
   11MOL   H236 2656   6.759   4.886   2.956  0.5435  0.4123 -1.3644
   11MOL   H237 2657   6.597   4.864   2.883  0.6782 -2.9298 -0.2236
   11MOL   H238 2658   6.710   5.041   2.704  2.3703  1.4155 -2.1563
   11MOL   H239 2659   7.134   4.894   2.748 -1.1965  1.0540 -0.0402
   11MOL   H240 2660   7.081   4.772   2.625 -0.7475  1.8331 -0.6124
   11MOL   H241 2661   7.137   4.736   2.792  0.9232 -0.7842 -1.7736
   11MOL   H242 2662   6.706   4.862   2.685  1.5830  1.3076 -2.0098
   12MOL     C1 2663   0.364   7.419   6.084 -0.3639  0.4203  0.0904
   12MOL     C2 2664   0.311   7.567   6.067 -0.7835 -0.1507 -0.6180
   12MOL     C3 2665   0.183   7.560   5.975 -0.4210  0.3434 -0.8594
   12MOL     O4 2666   0.123   7.454   5.956 -0.3152  0.5080  0.3561
   12MOL     O5 2667   0.147   7.681   5.927 -0.3132 -0.1625 -0.0163
   12MOL     C6 2668   0.038   7.680   5.828  0.6904  0.0922  0.1671
   12MOL     H7 2669   0.469   7.435   6.106  0.0252  0.8042 -1.9098
   12MOL     H8 2670   0.363   7.358   5.993  2.1456  2.5856 -1.4465
   12MOL     H9 2671   0.385   7.635   6.027 -1.1125 -0.6216 -2.0616
   12MOL    H10 2672   0.068   7.663   5.725 -0.4196 -1.0284  0.0261
   12MOL    H11 2673   7.925   7.779   5.834  2.0990  0.6500  2.2193
   12MOL    H12 2674   7.904   7.598   5.856  0.9176 -0.3082 -0.4658
   12MOL    H13 2675   0.324   7.364   6.169  0.2830 -0.9438 -0.4692
   12MOL    C14 2676   0.270   7.630   6.196 -0.2157  0.4951  0.2154
   12MOL    C15 2677   0.381   7.644   6.306 -0.0254 -0.0728 -1.0342
   12MOL    C16 2678   0.494   7.740   6.262  0.8685 -0.0673  0.2187
   12MOL    O17 2679   0.611   7.715   6.277 -0.5423 -0.3948  0.0274
   12MOL    O18 2680   0.448   7.852   6.214 -0.5574  0.6987 -0.4232
   12MOL    C19 2681   0.529   0.032   6.188  0.1377  0.5274  0.4376
   12MOL    H20 2682   0.237   7.732   6.179 -1.5730  0.3241  1.7000
   12MOL    H21 2683   0.178   7.584   6.232  0.3724 -0.5018  0.4877
   12MOL    H22 2684   0.425   7.545   6.317 -0.4607 -0.5182 -2.9853
   12MOL    H23 2685   0.467   0.108   6.141 -1.0372  0.6896  2.1953
   12MOL    H24 2686   0.602   7.920   6.121 -0.7041  1.0701 -0.8569
   12MOL    H25 2687   0.568   0.078   6.279  0.0071  3.5780 -0.9968
   12MOL    C26 2688   0.323   7.686   6.441  0.2544 -0.2201  0.7922
   12MOL    C27 2689   0.424   7.709   6.554  0.0482  0.2696  0.4346
   12MOL    C28 2690   0.351   7.763   6.670  0.1875  0.2034  0.3119
   12MOL    O29 2691   0.375   7.880   6.714 -0.0379  0.2006  0.3448
   12MOL    O30 2692   0.276   7.675   6.724 -0.5679  0.4305  0.2582
   12MOL    C31 2693   0.186   7.725   6.821  0.3137 -0.4523 -0.1588
   12MOL    H32 2694   0.255   7.769   6.429  0.5238 -0.3362 -1.8882
   12MOL    H33 2695   0.261   7.599   6.464 -0.7643 -0.6152 -3.1510
   12MOL    H34 2696   0.488   7.791   6.522  1.1649 -0.4937  0.7001
   12MOL    H35 2697   0.201   7.678   6.919 -0.1352  0.4320  0.3362
   12MOL    H36 2698   0.088   7.694   6.784  0.5090 -2.2904  0.7921
   12MOL    H37 2699   0.185   7.833   6.835 -0.0907 -0.7502  2.5327
   12MOL    C38 2700   0.514   7.584   6.586  0.5402 -0.2576 -0.7216
   12MOL    C39 2701   0.626   7.596   6.691 -0.0578  0.0028 -0.5131
   12MOL    C40 2702   0.715   7.714   6.673  0.6882 -0.0633  0.1280
   12MOL    O41 2703   0.706   7.808   6.753  0.4302 -0.1947 -0.2969
   12MOL    O42 2704   0.793   7.696   6.569  0.1207 -0.0709 -0.3187
   12MOL    C43 2705   0.880   7.803   6.531 -0.0027 -0.2611 -0.0836
   12MOL    H44 2706   0.453   7.502   6.623  2.0486 -1.2567 -0.4255
   12MOL    H45 2707   0.564   7.550   6.495  1.5491 -0.9704  0.0938
   12MOL    H46 2708   0.707   7.524   6.679 -0.5160 -0.3788 -1.3490
   12MOL    H47 2709   0.972   7.763   6.489 -1.9342 -3.0784 -1.7206
   12MOL    H48 2710   0.900   7.868   6.616 -0.4211  1.3150 -1.1728
   12MOL    H49 2711   0.828   7.868   6.460 -1.7850  0.7252  2.0617
   12MOL    C50 2712   0.579   7.575   6.829  0.4085  0.0420 -0.6590
   12MOL    C51 2713   0.677   7.572   6.954  0.0011 -0.5467  0.3339
   12MOL    C52 2714   0.612   7.642   7.070  0.4629 -0.3733 -0.0784
   12MOL    O53 2715   0.674   7.728   7.128 -0.3401  0.0097 -0.4456
   12MOL    O54 2716   0.490   7.589   7.098 -0.4809 -0.2698  0.3601
   12MOL    C55 2717   0.410   7.649   7.196 -0.2255 -0.0448 -0.2665
   12MOL    H56 2718   0.509   7.652   6.861 -1.2371 -0.0160 -3.9760
   12MOL    H57 2719   0.529   7.479   6.829 -1.7522  1.1512 -0.5192
   12MOL    H58 2720   0.768   7.626   6.927 -0.4850 -0.6583 -1.5989
   12MOL    H59 2721   0.327   7.592   7.239 -0.0085  0.1594  0.4272
   12MOL    H60 2722   0.361   7.743   7.171 -1.5320 -0.2644  1.3739
   12MOL    H61 2723   0.480   7.668   7.278 -2.6022  0.1640  1.7705
   12MOL    C62 2724   0.718   7.430   6.994 -1.1121  0.0531 -0.2528
   12MOL    C63 2725   0.820   7.357   6.905  0.2920  0.2826 -0.1455
   12MOL    C64 2726   0.942   7.433   6.855  0.0307  0.3707  0.2252
   12MOL    O65 2727   0.952   7.469   6.739 -0.1059 -0.0478 -0.0534
   12MOL    O66 2728   1.035   7.461   6.946 -0.0487  0.1101 -0.2910
   12MOL    C67 2729   1.144   7.549   6.914  0.8496  0.9382  0.6612
   12MOL    H68 2730   0.757   7.435   7.096 -0.3684 -2.0036 -0.4117
   12MOL    H69 2731   0.628   7.369   6.989 -2.0632  1.4480 -0.3638
   12MOL    H70 2732   0.774   7.346   6.806  2.6500  0.1964 -1.2482
   12MOL    H71 2733   1.130   7.652   6.883 -0.6300  0.6147  0.2039
   12MOL    H72 2734   1.193   7.500   6.831  1.7362 -1.4101  2.4991
   12MOL    H73 2735   1.224   7.553   6.988  1.0149 -0.5395  0.5781
   12MOL    C74 2736   0.857   7.213   6.964 -1.0182 -0.8942  0.0507
   12MOL    C75 2737   0.924   7.198   7.098 -0.0655  0.4989 -0.2734
   12MOL    C76 2738   0.820   7.186   7.215 -0.9171 -0.0262 -0.6044
   12MOL    O77 2739   0.699   7.185   7.190 -0.0202 -0.0153  0.2185
   12MOL    O78 2740   0.870   7.185   7.333 -0.0973  0.6144  0.2618
   12MOL    C79 2741   0.801   7.138   7.441 -0.6229 -0.4123 -0.1319
   12MOL    H80 2742   0.765   7.155   6.955 -0.6517 -1.3133 -1.1998
   12MOL    H81 2743   0.915   7.166   6.884 -1.7249  0.0749 -1.0450
   12MOL    H82 2744   0.978   7.291   7.114 -0.8481  0.7523  0.9834
   12MOL    H83 2745   0.830   7.192   7.531 -1.0811 -0.7240  0.2061
   12MOL    H84 2746   0.830   7.033   7.448  0.5456 -0.1778 -1.3270
   12MOL    H85 2747   0.693   7.151   7.434 -0.4825  0.4866 -0.5878
   12MOL    C86 2748   1.019   7.075   7.103  0.2828  0.6736  0.2694
   12MOL    C87 2749   1.150   7.099   7.029 -0.3954  0.0052 -0.4669
   12MOL    C88 2750   1.242   7.207   7.091  0.2575  0.3470 -0.1200
   12MOL    O89 2751   1.274   7.307   7.035 -0.1443  0.0368 -0.2696
   12MOL    O90 2752   1.283   7.180   7.209 -0.0317  0.4112  0.0164
   12MOL    C91 2753   1.359   7.275   7.284 -0.4184 -0.2553  0.4325
   12MOL    H92 2754   1.028   7.039   7.206 -0.6402  0.3118  0.2250
   12MOL    H93 2755   0.967   6.991   7.057  0.5054  0.7187 -0.0688
   12MOL    H94 2756   1.114   7.138   6.934 -1.9954  0.5557  0.3452
   12MOL    H95 2757   1.450   7.271   7.224 -0.9775 -1.7302 -0.3508
   12MOL    H96 2758   1.391   7.244   7.384  0.2740  1.1882  0.6696
   12MOL    H97 2759   1.316   7.375   7.291  0.4854  0.2073 -0.4941
   12MOL    C98 2760   1.241   6.973   6.998 -0.7208 -0.7130 -0.5076
   12MOL    C99 2761   1.245   6.948   6.850  0.1192  0.0732  0.1023
   12MOL   C100 2762   1.118   6.884   6.783 -0.7211  0.2179 -0.8584
   12MOL   O101 2763   1.007   6.874   6.838  0.0707 -0.3209 -0.2315
   12MOL   O102 2764   1.145   6.849   6.655  0.8954 -0.1441 -0.3887
   12MOL   C103 2765   1.058   6.771   6.580 -0.2015  0.1970 -0.5123
   12MOL   H104 2766   1.344   6.986   7.032 -0.9026 -0.9866  0.1519
   12MOL   H105 2767   1.199   6.895   7.060 -0.0458  1.4419  2.7894
   12MOL   H106 2768   1.317   6.866   6.842 -0.3386 -0.4054  0.8814
   12MOL   H107 2769   1.080   6.776   6.473 -0.7084 -2.2022 -0.7393
   12MOL   H108 2770   0.953   6.804   6.582  0.5750  2.7509  2.5985
   12MOL   H109 2771   1.062   6.667   6.612  0.7831  0.3887 -0.0224
   12MOL   C110 2772   1.296   7.073   6.773  0.4797 -0.7478  0.1111
   12MOL   C111 2773   1.432   7.035   6.701  0.3705 -0.4427 -0.3446
   12MOL   C112 2774   1.453   7.130   6.578 -0.4110 -0.1395 -0.0905
   12MOL   O113 2775   1.496   7.248   6.590  0.1485 -0.2950 -0.5479
   12MOL   O114 2776   1.420   7.073   6.462 -0.5752 -0.1159  0.5133
   12MOL   C115 2777   1.424   7.138   6.338 -0.0255 -0.0058  0.1464
   12MOL   H116 2778   1.223   7.102   6.698  0.3779 -3.0208 -0.7158
   12MOL   H117 2779   1.311   7.157   6.840 -2.2504 -0.9271  0.9716
   12MOL   H118 2780   1.431   6.933   6.664 -1.3289 -0.2354 -0.9183
   12MOL   H119 2781   1.341   7.207   6.323 -0.7139 -0.9381 -0.3480
   12MOL   H120 2782   1.422   7.067   6.256 -0.1854 -1.9899  1.8250
   12MOL   H121 2783   1.520   7.189   6.334 -0.3889  0.7852  1.1688
   12MOL   C122 2784   1.551   7.036   6.797  0.6346  0.3476 -0.0324
   12MOL   C123 2785   1.686   7.008   6.733  0.3439 -0.1395 -0.4626
   12MOL   C124 2786   1.810   7.051   6.809  0.2341  0.1851 -0.4380
   12MOL   O125 2787   1.801   7.057   6.937 -0.2602  0.7118  0.0856
   12MOL   O126 2788   1.917   7.071   6.735 -0.0769 -0.7547  0.2004
   12MOL   C127 2789   2.032   7.126   6.799 -0.1210  0.0482  0.4958
   12MOL   H128 2790   1.565   7.134   6.844  3.3368  1.0623 -2.1572
   12MOL   H129 2791   1.533   6.983   6.891 -2.4767  1.6121  0.1445
   12MOL   H130 2792   1.690   7.088   6.658 -1.2562 -0.0920 -0.5145
   12MOL   H131 2793   2.035   7.131   6.908  1.9079  1.7265  0.4229
   12MOL   H132 2794   2.040   7.225   6.754 -0.1609 -0.6323 -1.0560
   12MOL   H133 2795   2.120   7.070   6.766  1.1337  1.3729  1.5147
   12MOL   C134 2796   1.700   6.878   6.649  0.2843 -0.5747 -0.1539
   12MOL   C135 2797   1.730   6.750   6.737  0.2709 -0.9928  0.3701
   12MOL   C136 2798   1.607   6.691   6.821 -0.1494 -0.5685  0.2058
   12MOL   O137 2799   1.501   6.659   6.767  0.7572 -0.0746 -0.6748
   12MOL   O138 2800   1.643   6.681   6.951  0.1649 -0.1714 -0.1050
   12MOL   C139 2801   1.557   6.606   7.031 -0.1313 -0.7337 -0.5002
   12MOL   H140 2802   1.620   6.856   6.579 -1.2231  0.8446  1.0838
   12MOL   H141 2803   1.790   6.878   6.586  0.3445  0.1179 -0.0767
   12MOL   H142 2804   1.805   6.786   6.807 -1.3613  1.1289  1.0762
   12MOL   H143 2805   1.584   6.501   7.034  1.0176 -0.4356 -0.1699
   12MOL   H144 2806   1.453   6.611   6.998 -0.3050  0.3873  0.1743
   12MOL   H145 2807   1.561   6.635   7.136 -0.9026 -2.1377 -0.0613
   12MOL   C146 2808   1.800   6.637   6.655  0.2465 -0.3569 -0.3830
   12MOL   C147 2809   1.888   6.539   6.740  0.0467  0.0758  0.0586
   12MOL   C148 2810   1.807   6.427   6.802  0.5260 -0.3024 -0.3546
   12MOL   O149 2811   1.696   6.398   6.753 -0.3541 -0.1539 -0.2733
   12MOL   O150 2812   1.867   6.372   6.909  0.7189 -0.1503 -0.6267
   12MOL   C151 2813   1.802   6.269   6.979  0.7037 -0.3511  0.0871
   12MOL   H152 2814   1.725   6.583   6.595  0.7811 -0.3544 -1.0626
   12MOL   H153 2815   1.866   6.681   6.580 -0.0429 -0.4744 -0.7094
   12MOL   H154 2816   1.918   6.605   6.821  2.0606  0.6765 -1.1405
   12MOL   H155 2817   1.699   6.302   6.989  1.7889  2.5147  2.7871
   12MOL   H156 2818   1.833   6.255   7.083 -0.8459  1.9408  0.8882
   12MOL   H157 2819   1.809   6.170   6.934  0.8398 -1.1205  1.7450
   12MOL   C158 2820   2.015   6.487   6.669 -0.0305  0.1016  0.3225
   12MOL   C159 2821   2.144   6.553   6.717  0.3643 -0.1152  0.0857
   12MOL   C160 2822   2.268   6.466   6.672 -0.3625 -0.3977  0.4705
   12MOL   O161 2823   2.340   6.402   6.747 -0.6665  0.0329  0.3011
   12MOL   O162 2824   2.291   6.476   6.540 -0.2301 -0.4776 -0.1682
   12MOL   C163 2825   2.419   6.454   6.488 -0.1307  0.2793  0.0743
   12MOL   H164 2826   2.027   6.379   6.676  0.4977  0.1552  0.2199
   12MOL   H165 2827   2.002   6.492   6.561 -1.1817 -0.3298  0.4252
   12MOL   H166 2828   2.137   6.531   6.824  1.2596  1.2566  0.4427
   12MOL   H167 2829   2.502   6.503   6.539  0.3677  0.5773 -1.0017
   12MOL   H168 2830   2.426   6.492   6.386  1.1906  2.2706  0.8865
   12MOL   H169 2831   2.446   6.348   6.496  1.2186  0.5356 -0.7896
   12MOL   C170 2832   2.154   6.705   6.695  1.1545 -0.1073  0.2382
   12MOL   C171 2833   2.224   6.781   6.800  0.5043 -0.0156  0.1594
   12MOL   C172 2834   2.153   6.760   6.931 -0.4219  0.0080 -0.7942
   12MOL   O173 2835   2.193   6.684   7.022 -0.2437 -0.3190  0.0561
   12MOL   O174 2836   2.043   6.826   6.945  0.5341 -0.0556  0.3731
   12MOL   C175 2837   1.958   6.799   7.057  0.3492  0.0329  0.0493
   12MOL   H176 2838   2.211   6.709   6.601 -0.0969  1.6382 -0.4664
   12MOL   H177 2839   2.056   6.748   6.675  1.6181  1.5429  1.4298
   12MOL   H178 2840   2.196   6.883   6.775  2.7067  0.7967  0.9350
   12MOL   H179 2841   1.929   6.694   7.054 -0.0461  0.0893  1.6131
   12MOL   H180 2842   1.864   6.854   7.068  0.2756 -0.4418  1.9805
   12MOL   H181 2843   2.017   6.820   7.146  1.0086 -1.9395  0.1187
   12MOL   C182 2844   2.373   6.764   6.794 -0.1514  0.3741  0.6047
   12MOL   C183 2845   2.447   6.830   6.672 -0.5022 -0.0545  0.0502
   12MOL   C184 2846   2.432   6.981   6.676 -0.5996 -0.0304  0.1211
   12MOL   O185 2847   2.385   7.046   6.584  0.1900 -0.6009 -0.3037
   12MOL   O186 2848   2.492   7.031   6.777  0.3229  0.2599 -0.0407
   12MOL   C187 2849   2.479   7.168   6.798 -0.2465  0.8581 -0.1512
   12MOL   H188 2850   2.427   6.793   6.885  1.4481  1.0643 -0.5337
   12MOL   H189 2851   2.391   6.657   6.791 -2.4085 -0.0041  0.2553
   12MOL   H190 2852   2.392   6.812   6.579  1.3125  0.7196 -1.1956
   12MOL   H191 2853   2.533   7.191   6.890 -0.3697 -4.0159  1.3112
   12MOL   H192 2854   2.372   7.191   6.798 -0.0093  2.0987  2.1597
   12MOL   H193 2855   2.530   7.226   6.722  1.6123 -1.0322 -0.3979
   12MOL   C194 2856   2.589   6.782   6.645 -0.4456  0.3941 -1.1081
   12MOL   C195 2857   2.648   6.821   6.509 -0.3347  0.3312 -0.0300
   12MOL   C196 2858   2.798   6.801   6.498 -0.4939  0.4430  0.9945
   12MOL   O197 2859   2.851   6.702   6.446 -0.8087  0.0601  1.1473
   12MOL   O198 2860   2.865   6.892   6.567 -0.0103  0.1599 -0.1312
   12MOL   C199 2861   3.000   6.890   6.548 -1.0815  0.0939  0.5522
   12MOL   H200 2862   2.651   6.827   6.722 -1.0156  1.2237 -1.1305
   12MOL   H201 2863   2.592   6.673   6.651  1.0174  0.4714 -0.3668
   12MOL   H202 2864   2.624   6.926   6.494  0.5939  0.2437 -2.2916
   12MOL   H203 2865   3.047   6.967   6.609 -0.0397  0.3629 -0.5740
   12MOL   H204 2866   3.030   6.910   6.445  1.3628 -1.2658  0.9543
   12MOL   H205 2867   3.038   6.795   6.585 -0.0977 -0.2031 -1.1547
   12MOL   C206 2868   2.572   6.762   6.387 -0.0515  0.1142 -0.2851
   12MOL   C207 2869   2.522   6.860   6.285 -0.8787  0.1699 -0.4585
   12MOL   C208 2870   2.624   6.905   6.185  0.0553 -0.1161 -0.1007
   12MOL   O209 2871   2.610   6.876   6.068 -0.4961  0.2177  0.4059
   12MOL   O210 2872   2.730   6.981   6.242 -0.4803  0.0995  0.4514
   12MOL   C211 2873   2.844   7.017   6.166  0.0070 -0.5314 -0.2502
   12MOL   H212 2874   2.628   6.679   6.344 -0.5543 -2.0976  3.1635
   12MOL   H213 2875   2.492   6.697   6.422  1.6106 -1.0497  1.4758
   12MOL   H214 2876   2.489   6.952   6.335  0.4642  0.1047  0.5936
   12MOL   H215 2877   2.830   6.998   6.060  5.3620  1.7938 -1.5643
   12MOL   H216 2878   2.933   6.958   6.189  0.4402  0.5359  0.8956
   12MOL   H217 2879   2.888   7.116   6.184  0.0114 -0.5499 -0.1585
   12MOL   C218 2880   2.396   6.789   6.217  0.8329  0.8340  0.1643
   12MOL   C219 2881   2.268   6.780   6.302  0.8702  0.5970 -0.3553
   12MOL   C220 2882   2.197   6.919   6.305 -0.0829 -0.2659  0.3186
   12MOL   O221 2883   2.253   7.016   6.251  0.7403  0.6397  0.3595
   12MOL   O222 2884   2.090   6.923   6.377  0.5657 -0.5493 -0.2966
   12MOL   C223 2885   1.995   7.020   6.348  0.2789  0.2358 -0.7435
   12MOL   H224 2886   2.365   6.842   6.127  0.5972 -0.1347 -0.3364
   12MOL   H225 2887   2.419   6.684   6.197 -0.5444  0.6001 -0.2796
   12MOL   H226 2888   2.290   6.752   6.405  0.3909  0.4711 -0.2899
   12MOL   H227 2889   1.909   7.014   6.414 -0.8221  5.1256 -1.5386
   12MOL   H228 2890   1.956   7.008   6.247 -0.9992 -2.0024 -0.0146
   12MOL   H229 2891   2.023   7.123   6.368 -2.2441  0.8796 -0.3651
   12MOL   C230 2892   2.176   6.671   6.245  0.1885 -0.5464  0.1968
   12MOL   C231 2893   2.126   6.701   6.094 -0.2613  1.2044 -0.1550
   12MOL   C232 2894   2.034   6.591   6.034  0.4972  0.1368  0.2909
   12MOL   O233 2895   1.914   6.595   6.051 -1.1895  0.2712 -0.4731
   12MOL   O234 2896   2.106   6.498   5.961  0.0986 -0.0665  0.3402
   12MOL   C235 2897   2.033   6.394   5.895 -0.0185 -0.5169 -0.1610
   12MOL   H236 2898   2.215   6.570   6.261 -0.0151 -0.2956  2.5386
   12MOL   H237 2899   2.086   6.661   6.306  1.3152  0.8848  2.1698
   12MOL   H238 2900   2.212   6.715   6.028  0.5472 -1.3011  0.2872
   12MOL   H239 2901   2.002   6.315   5.963  0.4513  1.4302  2.4208
   12MOL   H240 2902   2.111   6.343   5.839  0.0045 -0.5683 -0.0836
   12MOL   H241 2903   1.957   6.444   5.836  1.1410 -0.3111 -1.5011
   12MOL   H242 2904   2.058   6.786   6.087  1.4259  2.6723  0.9168
   13MOL     C1 2905   4.322   1.409   7.761  0.3773 -0.0943 -0.1990
   13MOL     C2 2906   4.357   1.259   7.784  0.2834  0.4042 -0.1189
   13MOL     C3 2907   4.266   1.195   7.677 -0.6016  0.3345 -0.6196
   13MOL     O4 2908   4.156   1.146   7.701 -0.5244  0.3051  0.2617
   13MOL     O5 2909   4.324   1.210   7.560  0.3192  0.1471 -0.0534
   13MOL     C6 2910   4.271   1.139   7.451  0.6272 -0.0075  0.4767
   13MOL     H7 2911   4.391   1.476   7.813  0.6522 -1.0056  0.6341
   13MOL     H8 2912   4.223   1.437   7.797  0.5192  1.2027 -0.7926
   13MOL     H9 2913   4.312   1.232   7.879 -2.2531  0.9172 -1.1282
   13MOL    H10 2914   4.291   1.197   7.361 -1.4797  2.2949  1.4386
   13MOL    H11 2915   4.165   1.117   7.449  0.1797  2.1148  0.4149
   13MOL    H12 2916   4.314   1.039   7.461  4.4879  1.3373 -1.3134
   13MOL    H13 2917   4.319   1.440   7.657  0.9075 -0.7226 -0.4037
   13MOL    C14 2918   4.502   1.228   7.784 -0.3977  0.5965  0.4200
   13MOL    C15 2919   4.545   1.084   7.771 -0.5570 -0.1134 -0.2505
   13MOL    C16 2920   4.700   1.082   7.764  0.9983 -0.3331 -0.0896
   13MOL    O17 2921   4.765   1.116   7.862 -0.1120 -0.4374 -0.1942
   13MOL    O18 2922   4.747   1.042   7.639  0.1349  0.3224 -0.1193
   13MOL    C19 2923   4.890   1.046   7.625  0.6507 -0.3700  0.1578
   13MOL    H20 2924   4.543   1.291   7.706  0.7606  0.8512  1.2340
   13MOL    H21 2925   4.554   1.256   7.876  2.4475  0.6692 -1.1550
   13MOL    H22 2926   4.498   1.059   7.676  1.2945 -0.7573 -1.0120
   13MOL    H23 2927   4.932   1.143   7.599 -0.2487  0.6866  2.5307
   13MOL    H24 2928   4.917   0.981   7.541 -1.2890 -0.6205 -0.3048
   13MOL    H25 2929   4.931   0.990   7.709 -1.1721 -1.3497  0.4306
   13MOL    C26 2930   4.492   0.989   7.888 -0.2096  0.9493 -0.4004
   13MOL    C27 2931   4.479   0.835   7.832  0.2141 -0.2799  0.2302
   13MOL    C28 2932   4.613   0.764   7.861 -0.4726  0.0142 -0.4542
   13MOL    O29 2933   4.680   0.726   7.767  0.1511 -0.1898  0.5694
   13MOL    O30 2934   4.647   0.747   0.051 -0.7870 -0.1873  0.2444
   13MOL    C31 2935   4.742   0.652   0.093  1.0332  0.9081 -0.3529
   13MOL    H32 2936   4.553   0.997   0.045 -1.8961  0.5091  0.8111
   13MOL    H33 2937   4.392   1.012   7.926 -0.4283 -0.9870  0.2661
   13MOL    H34 2938   4.466   0.844   7.724  0.7762  2.9580  0.3768
   13MOL    H35 2939   4.741   0.658   0.201 -0.7777 -0.2670 -0.2923
   13MOL    H36 2940   4.841   0.671   0.052  0.4308  2.2838 -1.1976
   13MOL    H37 2941   4.711   0.550   0.069 -1.0305  1.0896  1.3949
   13MOL    C38 2942   4.360   0.762   7.901  0.6233 -0.1535  0.2775
   13MOL    C39 2943   4.213   0.808   7.854 -0.3056  0.2385 -1.1314
   13MOL    C40 2944   4.168   0.730   7.729  0.6070  0.0069  1.2824
   13MOL    O41 2945   4.203   0.776   7.614  0.0522  0.0931  0.5037
   13MOL    O42 2946   4.115   0.617   7.745 -0.2867  0.9189  0.1133
   13MOL    C43 2947   4.064   0.534   7.633  0.8831  0.4014  0.2556
   13MOL    H44 2948   4.377   0.655   7.890  0.5497 -0.3722  2.1003
   13MOL    H45 2949   4.366   0.788   0.074 -3.3300 -0.9329  0.7923
   13MOL    H46 2950   4.211   0.912   7.823  2.3463  0.2895 -1.2097
   13MOL    H47 2951   3.995   0.587   7.567 -1.2344 -2.0272  0.4183
   13MOL    H48 2952   4.005   0.453   7.677  0.6555  0.0927 -0.6097
   13MOL    H49 2953   4.150   0.492   7.581  1.1767  1.3271 -0.0107
   13MOL    C50 2954   4.103   0.794   0.033  0.3682 -1.0442  0.1951
   13MOL    C51 2955   4.092   0.882   0.162 -0.3657  0.1642 -0.1982
   13MOL    C52 2956   4.062   1.023   0.123  0.2224  0.2641  0.7158
   13MOL    O53 2957   4.153   1.088   0.081 -0.6783 -0.1156 -0.3420
   13MOL    O54 2958   3.931   1.062   0.114  0.4284 -0.3962  0.0274
   13MOL    C55 2959   3.897   1.157   0.009 -0.0780  0.5398 -0.2373
   13MOL    H56 2960   4.003   0.787   7.923 -1.2068  0.9379  3.3762
   13MOL    H57 2961   4.109   0.688   0.058 -0.0622 -1.3992 -1.1638
   13MOL    H58 2962   4.191   0.885   0.207 -1.0935  1.6010  1.3473
   13MOL    H59 2963   3.790   1.176   0.011 -0.4818 -1.6694  2.7907
   13MOL    H60 2964   3.914   1.124   7.840  0.8863  0.6152 -0.1035
   13MOL    H61 2965   3.960   1.244   0.028 -0.0947  0.4269  0.3683
   13MOL    C62 2966   3.993   0.820   0.262  0.6224  0.3883 -0.3536
   13MOL    C63 2967   3.961   0.904   0.395 -0.2399  0.0068 -0.1494
   13MOL    C64 2968   3.830   0.861   0.447  0.2544  0.3048 -0.3136
   13MOL    O65 2969   3.738   0.940   0.451 -0.4659 -0.4627 -0.7949
   13MOL    O66 2970   3.828   0.736   0.475 -0.3038  0.1273 -0.5279
   13MOL    C67 2971   3.712   0.694   0.536 -0.1695 -0.3901 -1.0477
   13MOL    H68 2972   3.900   0.799   0.209 -0.5733  1.4889  1.2440
   13MOL    H69 2973   4.034   0.722   0.289  0.8981  0.3776 -0.8171
   13MOL    H70 2974   3.955   1.010   0.369 -0.9031  0.0317  0.0895
   13MOL    H71 2975   3.623   0.720   0.479 -0.2423 -0.6438 -1.0542
   13MOL    H72 2976   3.699   0.729   0.638 -0.3143 -2.2650 -0.3863
   13MOL    H73 2977   3.701   0.585   0.538 -1.1127 -0.3047 -1.2613
   13MOL    C74 2978   4.073   0.893   0.503  0.2168 -0.6162  0.5307
   13MOL    C75 2979   4.053   1.004   0.614  0.0120  0.5815  0.2680
   13MOL    C76 2980   3.939   0.969   0.711  0.4908  0.5114 -0.0385
   13MOL    O77 2981   3.928   0.856   0.764  0.1510  0.2229  0.9277
   13MOL    O78 2982   3.853   1.071   0.724  0.3907 -0.2139 -0.5938
   13MOL    C79 2983   3.740   1.062   0.809 -0.1748 -0.2824  0.3562
   13MOL    H80 2984   4.083   0.795   0.550 -0.0989 -1.1881 -0.5657
   13MOL    H81 2985   4.170   0.916   0.459  0.1125  1.4717  1.3710
   13MOL    H82 2986   4.008   1.089   0.564 -1.2976 -0.1385  0.1872
   13MOL    H83 2987   3.731   0.964   0.856 -0.8573 -1.1016 -1.4159
   13MOL    H84 2988   3.646   1.082   0.758 -1.5480 -0.8901  2.5884
   13MOL    H85 2989   3.749   1.146   0.877 -0.4967 -0.9083  1.1739
   13MOL    C86 2990   4.188   1.030   0.698  0.7772  0.1384  0.5767
   13MOL    C87 2991   4.200   1.164   0.767  0.1192  0.4223  0.1475
   13MOL    C88 2992   4.322   1.176   0.857 -0.4879 -0.3755 -0.3970
   13MOL    O89 2993   4.419   1.104   0.837 -0.9253 -0.1220  0.5277
   13MOL    O90 2994   4.314   1.271   0.946  0.4260 -0.7269  0.1130
   13MOL    C91 2995   4.419   1.327   1.026 -1.0219  0.1448 -0.4597
   13MOL    H92 2996   4.193   0.949   0.771  0.1840  0.3496  0.8541
   13MOL    H93 2997   4.273   1.012   0.632 -0.0456 -0.5562 -0.3122
   13MOL    H94 2998   4.117   1.175   0.836 -1.3622 -1.3596 -1.2944
   13MOL    H95 2999   4.500   1.256   1.043  0.3829  1.2520 -2.3614
   13MOL    H96 3000   4.396   1.370   1.123  1.3642  0.6216 -0.0753
   13MOL    H97 3001   4.464   1.408   0.969 -1.1188 -0.3523 -1.2564
   13MOL    C98 3002   4.197   1.293   0.677  0.3241 -0.3066  0.5717
   13MOL    C99 3003   4.318   1.317   0.576  0.3646  0.0054 -0.3366
   13MOL   C100 3004   4.305   1.247   0.443 -0.1927  0.0732  0.3213
   13MOL   O101 3005   4.206   1.188   0.413 -0.7766  0.2961 -0.0179
   13MOL   O102 3006   4.412   1.260   0.362  0.5340 -0.2891 -0.1616
   13MOL   C103 3007   4.400   1.230   0.224  0.6104  0.9220 -1.0598
   13MOL   H104 3008   4.103   1.278   0.623  0.2330 -0.6283  0.8139
   13MOL   H105 3009   4.180   1.384   0.733  1.9573  0.3962 -0.0628
   13MOL   H106 3010   4.416   1.288   0.613  0.9293  2.7706  0.4734
   13MOL   H107 3011   4.398   1.123   0.208 -0.8864  1.2166 -3.0322
   13MOL   H108 3012   4.483   1.262   0.161 -0.2518 -1.5001 -3.5186
   13MOL   H109 3013   4.319   1.278   0.169 -0.4751 -0.6550 -0.8673
   13MOL   C110 3014   4.334   1.470   0.544  0.4569  0.0501 -0.1088
   13MOL   C111 3015   4.400   1.551   0.665 -0.0698  0.4655 -0.1927
   13MOL   C112 3016   4.558   1.545   0.653  0.5943 -0.8187 -0.6242
   13MOL   O113 3017   4.624   1.461   0.713 -0.5283 -0.5628 -0.1531
   13MOL   O114 3018   4.607   1.629   0.560 -0.0482 -0.3350 -0.0240
   13MOL   C115 3019   4.748   1.645   0.562  0.6111  0.2841  0.1338
   13MOL   H116 3020   4.395   1.482   0.454  0.9054  2.6234  0.4895
   13MOL   H117 3021   4.235   1.512   0.526  1.3975  1.6397 -1.7710
   13MOL   H118 3022   4.369   1.508   0.760 -0.0143 -0.0463 -0.3981
   13MOL   H119 3023   4.781   1.673   0.662 -1.6252 -0.4075  1.0992
   13MOL   H120 3024   4.780   1.718   0.489 -1.7322  1.0093 -0.1887
   13MOL   H121 3025   4.805   1.556   0.535  2.4118  1.2265  0.7141
   13MOL   C122 3026   4.352   1.697   0.645 -0.0942  0.1026  0.2196
   13MOL   C123 3027   4.228   1.715   0.725  0.1613  0.2453  0.4554
   13MOL   C124 3028   4.260   1.752   0.868  0.4211  0.2635  0.1393
   13MOL   O125 3029   4.258   1.663   0.950  0.6007  0.0408 -0.1982
   13MOL   O126 3030   4.304   1.877   0.888 -0.5341 -0.3898 -0.3500
   13MOL   C127 3031   4.344   1.916   1.021  0.0611  0.2816 -0.4827
   13MOL   H128 3032   4.427   1.768   0.678 -0.1900 -1.5700  4.4146
   13MOL   H129 3033   4.335   1.727   0.541  2.3152 -0.3705 -0.3298
   13MOL   H130 3034   4.173   1.621   0.723 -0.5562  0.6690  0.3678
   13MOL   H131 3035   4.347   2.025   1.011  1.9762  0.4599  1.6095
   13MOL   H132 3036   4.435   1.858   1.035 -0.7483 -0.6995  0.8152
   13MOL   H133 3037   4.260   1.890   1.086 -0.5980 -0.8507 -1.7593
   13MOL   C134 3038   4.135   1.820   0.659  0.1819  0.0492  0.2640
   13MOL   C135 3039   3.991   1.832   0.716  0.3107 -0.2922 -0.1247
   13MOL   C136 3040   3.975   1.964   0.792  0.3671 -0.4517  0.0502
   13MOL   O137 3041   3.996   1.973   0.911  0.2505  0.1613 -0.5435
   13MOL   O138 3042   3.948   2.074   0.721  0.1428 -0.0575  0.5134
   13MOL   C139 3043   3.913   2.197   0.786 -0.1799 -0.9247 -0.4756
   13MOL   H140 3044   4.194   1.912   0.661  1.5646 -0.7177 -2.2560
   13MOL   H141 3045   4.122   1.802   0.552 -2.5609  1.1058  0.3971
   13MOL   H142 3046   3.977   1.760   0.796 -2.0765 -0.2264 -0.4216
   13MOL   H143 3047   3.930   2.276   0.712  1.1612 -0.7007  0.0657
   13MOL   H144 3048   3.991   2.201   0.861  0.4903  0.4630 -1.2172
   13MOL   H145 3049   3.812   2.188   0.826 -1.1762 -2.8810 -3.2360
   13MOL   C146 3050   3.884   1.814   0.607 -0.5129  0.2462 -0.7379
   13MOL   C147 3051   3.897   1.678   0.539  0.4485  0.0691  0.0543
   13MOL   C148 3052   3.844   1.565   0.631 -0.4678 -0.0040  0.7613
   13MOL   O149 3053   3.911   1.465   0.649 -0.9403 -0.3795  0.0281
   13MOL   O150 3054   3.726   1.583   0.683  0.1186  0.2457  0.2763
   13MOL   C151 3055   3.670   1.510   0.791  0.1025  0.1959  0.4629
   13MOL   H152 3056   3.793   1.820   0.666 -0.2257  0.1936 -0.2886
   13MOL   H153 3057   3.882   1.897   0.536  0.0146 -0.4253 -1.5569
   13MOL   H154 3058   4.000   1.658   0.510  0.7866  0.7986  0.7367
   13MOL   H155 3059   3.654   1.410   0.750  2.0457  0.2781 -0.5566
   13MOL   H156 3060   3.570   1.547   0.813 -1.1211 -1.4780 -1.9280
   13MOL   H157 3061   3.734   1.496   0.878  0.9111 -2.9726 -0.5811
   13MOL   C158 3062   3.799   1.672   0.409  0.2984  0.0022 -0.0044
   13MOL   C159 3063   3.838   1.764   0.285 -0.3539 -0.4346 -0.0159
   13MOL   C160 3064   3.984   1.728   0.234  0.0400 -0.2153 -0.0703
   13MOL   O161 3065   4.075   1.812   0.234 -0.0080  0.5962  0.1118
   13MOL   O162 3066   3.988   1.600   0.192  0.6468 -0.1404  0.1169
   13MOL   C163 3067   4.106   1.535   0.169 -0.0969  0.1160 -0.4452
   13MOL   H164 3068   3.780   1.570   0.378  1.4357 -0.3202  0.3196
   13MOL   H165 3069   3.702   1.704   0.446  0.0513  0.0306 -0.6657
   13MOL   H166 3070   3.855   1.863   0.328  1.8878 -1.1733  0.8501
   13MOL   H167 3071   4.137   1.538   0.064  1.9851  0.0418  0.1266
   13MOL   H168 3072   4.081   1.432   0.194 -0.1037  0.3792  0.6477
   13MOL   H169 3073   4.195   1.561   0.227  0.5570 -2.7459 -0.0783
   13MOL   C170 3074   3.739   1.771   0.171 -0.3457 -0.2575 -0.3537
   13MOL   C171 3075   3.789   1.855   0.045 -0.3101 -0.0537 -0.2018
   13MOL   C172 3076   3.698   1.846   7.855  0.7699  0.2180  0.2259
   13MOL   O173 3077   3.582   1.806   7.863  0.3833  0.3827  0.1436
   13MOL   O174 3078   3.750   1.880   7.745  0.3637  0.2218  0.0002
   13MOL   C175 3079   3.681   1.864   7.623  0.8039  0.0065  0.9874
   13MOL   H176 3080   3.728   1.680   0.113  1.6423 -1.4760  1.1390
   13MOL   H177 3081   3.636   1.774   0.208 -0.9537 -2.7740 -1.7756
   13MOL   H178 3082   3.882   1.810   0.010  0.9472  2.0800  0.2839
   13MOL   H179 3083   3.729   1.901   7.533 -1.2769  0.9961  0.2423
   13MOL   H180 3084   3.589   1.923   7.617  0.6336 -0.5965 -4.3077
   13MOL   H181 3085   3.644   1.762   7.618  0.8050  0.0332  0.3683
   13MOL   C182 3086   3.831   2.010   0.084 -0.7606  0.6715 -0.6727
   13MOL   C183 3087   3.709   2.098   0.130  0.7350 -0.2039  0.2613
   13MOL   C184 3088   3.754   2.187   0.246  0.7157  0.3602 -0.0732
   13MOL   O185 3089   3.792   2.301   0.239 -0.1730  0.3947 -0.5522
   13MOL   O186 3090   3.740   2.126   0.365 -0.1995 -0.4464 -0.1656
   13MOL   C187 3091   3.768   2.197   0.482 -0.5285 -0.2399  0.6262
   13MOL   H188 3092   3.915   2.023   0.152 -2.5191  1.0839  1.4685
   13MOL   H189 3093   3.861   2.065   7.927 -0.9947  2.7257  0.4847
   13MOL   H190 3094   3.636   2.026   0.166 -0.8573  1.0680 -0.3904
   13MOL   H191 3095   3.709   2.286   0.503 -0.1705 -0.0745  0.9357
   13MOL   H192 3096   3.875   2.222   0.479 -0.2552 -0.9691  3.2397
   13MOL   H193 3097   3.763   2.129   0.567  0.2226 -2.4547 -1.0427
   13MOL   C194 3098   3.638   2.171   0.015  0.8312  0.2493  0.6723
   13MOL   C195 3099   3.501   2.234   0.057 -0.7634 -1.2332  0.1024
   13MOL   C196 3100   3.446   2.315   7.868  0.3948 -0.3514  0.6261
   13MOL   O197 3101   3.439   2.439   7.863  0.2175  0.6127  0.0975
   13MOL   O198 3102   3.411   2.233   7.771  0.2455 -0.5030 -0.0332
   13MOL   C199 3103   3.348   2.282   7.653 -0.6987  0.5201  0.2469
   13MOL   H200 3104   3.709   2.247   7.915  0.8010 -0.5275 -1.2438
   13MOL   H201 3105   3.608   2.105   7.866 -0.4689  1.3895  0.2232
   13MOL   H202 3106   3.513   2.304   0.140  1.2728 -0.7467 -0.5735
   13MOL   H203 3107   3.362   2.213   7.570 -0.3142  1.0367 -0.1123
   13MOL   H204 3108   3.398   2.367   7.608 -0.6486  0.1762 -0.3499
   13MOL   H205 3109   3.241   2.297   7.671 -0.7888 -2.4105  2.7417
   13MOL   C206 3110   3.400   2.130   0.113 -0.0883 -0.0644 -0.3450
   13MOL   C207 3111   3.384   2.124   0.263 -0.0990  0.3626  0.3014
   13MOL   C208 3112   3.343   2.253   0.332  0.0485 -0.9245  0.6594
   13MOL   O209 3113   3.411   2.312   0.420 -0.1921  0.6824 -0.4416
   13MOL   O210 3114   3.229   2.307   0.271  0.2603  0.0575  0.0101
   13MOL   C211 3115   3.185   2.435   0.301 -0.3221  0.0551 -0.3152
   13MOL   H212 3116   3.298   2.154   0.084 -0.0352  1.8954  1.0424
   13MOL   H213 3117   3.429   2.031   0.076  1.4404 -0.2590  1.3113
   13MOL   H214 3118   3.482   2.103   0.306  0.9116  1.8564 -1.2460
   13MOL   H215 3119   3.108   2.473   0.234 -0.7184 -1.3387 -0.6601
   13MOL   H216 3120   3.257   2.516   0.288  1.2787 -1.3036 -0.1053
   13MOL   H217 3121   3.148   2.441   0.403  1.6549  0.1899  0.4169
   13MOL   C218 3122   3.283   2.013   0.297  0.1246 -0.2572 -0.0249
   13MOL   C219 3123   3.282   1.973   0.446 -0.1486  0.0076 -0.0099
   13MOL   C220 3124   3.172   1.882   0.474 -1.2176 -0.0623 -0.3460
   13MOL   O221 3125   3.085   1.905   0.552 -0.5473  0.0888 -0.1684
   13MOL   O222 3126   3.167   1.774   0.387 -0.3711  0.1511 -0.7117
   13MOL   C223 3127   3.057   1.677   0.386 -0.0044 -0.1524 -0.1771
   13MOL   H224 3128   3.184   2.029   0.253 -0.2822 -1.7847  0.2970
   13MOL   H225 3129   3.305   1.928   0.232 -3.6723 -0.4114 -1.2280
   13MOL   H226 3130   3.273   2.058   0.515 -0.5646  0.9699 -1.2379
   13MOL   H227 3131   3.030   1.642   0.486  0.6439  0.9128  0.3885
   13MOL   H228 3132   3.091   1.587   0.335  0.9097 -0.6183  1.2227
   13MOL   H229 3133   2.977   1.726   0.331 -0.7675 -1.4384 -0.2296
   13MOL   C230 3134   3.421   1.898   0.490  0.1428 -0.1577  0.6357
   13MOL   C231 3135   3.423   1.821   0.620  0.2143  0.3418  0.1350
   13MOL   C232 3136   3.439   1.905   0.743  0.0758 -0.8352 -0.6409
   13MOL   O233 3137   3.556   1.915   0.791 -0.5831 -0.0055  0.6625
   13MOL   O234 3138   3.324   1.984   0.785 -0.2753  0.1629  0.1473
   13MOL   C235 3139   3.334   2.072   0.893  0.2808 -0.0850  0.1355
   13MOL   H236 3140   3.438   1.834   0.404 -2.3655 -0.0316 -0.0204
   13MOL   H237 3141   3.507   1.964   0.496  0.3167 -0.2542 -0.6198
   13MOL   H238 3142   3.498   1.742   0.623 -0.7567 -0.5961  0.0448
   13MOL   H239 3143   3.393   2.159   0.863  1.0998 -1.3470 -2.0298
   13MOL   H240 3144   3.379   2.017   0.975  1.1279 -1.0216 -0.9496
   13MOL   H241 3145   3.234   2.106   0.922  0.7531  0.8932  0.6441
   13MOL   H242 3146   3.329   1.769   0.641  0.9456 -0.9321  0.3098
   14MOL     C1 3147   0.341   6.743   2.649 -0.2161 -0.3047  0.4567
   14MOL     C2 3148   0.208   6.665   2.645  0.6344  0.4072 -0.1542
   14MOL     C3 3149   0.179   6.589   2.781 -0.6394  0.1072 -0.0390
   14MOL     O4 3150   0.173   6.466   2.791 -0.3421 -0.1371  0.3918
   14MOL     O5 3151   0.166   6.683   2.878 -0.0932 -0.2818 -0.3854
   14MOL     C6 3152   0.144   6.643   3.014 -0.0552  0.1932 -0.7907
   14MOL     H7 3153   0.334   6.818   2.727  2.6787  1.7036 -1.0986
   14MOL     H8 3154   0.372   6.772   2.548 -4.0472  1.8472 -0.1791
   14MOL     H9 3155   0.224   6.586   2.573 -0.0259  0.8049 -0.7462
   14MOL    H10 3156   0.063   6.574   3.037 -0.3495  1.0874  0.9169
   14MOL    H11 3157   0.142   6.736   3.071  2.6011 -1.4658  2.1260
   14MOL    H12 3158   0.228   6.581   3.044 -0.4194 -0.4008 -0.9837
   14MOL    H13 3159   0.431   6.685   2.674 -0.1457 -0.4238 -0.0533
   14MOL    C14 3160   0.087   6.751   2.592 -0.0787 -0.1257  0.2138
   14MOL    C15 3161   7.885   6.668   2.592  0.2341  0.4027  0.0413
   14MOL    C16 3162   7.759   6.762   2.593  0.3790 -0.3827  0.2608
   14MOL    O17 3163   7.771   6.886   2.605  0.4272  0.1963 -0.1691
   14MOL    O18 3164   7.642   6.702   2.589  0.9746  0.0102  0.0237
   14MOL    C19 3165   7.530   6.785   2.611 -0.2330 -0.1403 -0.4974
   14MOL    H20 3166   0.073   6.830   2.666  0.7989 -3.5451  4.2722
   14MOL    H21 3167   0.113   6.799   2.498  0.9683 -2.5067 -0.7502
   14MOL    H22 3168   7.865   6.619   2.687  0.1095  1.0285  0.3401
   14MOL    H23 3169   7.522   6.814   2.716 -1.5025  0.7611 -0.8224
   14MOL    H24 3170   7.441   6.727   2.588 -0.7504  1.3649 -2.4414
   14MOL    H25 3171   7.531   6.879   2.555  3.0931  0.2684  0.1333
   14MOL    C26 3172   7.868   6.566   2.465  0.2891  0.1714 -0.1695
   14MOL    C27 3173   7.914   6.417   2.481 -0.4641 -0.3385 -0.2438
   14MOL    C28 3174   7.803   6.342   2.555  0.7526  0.4962 -0.4055
   14MOL    O29 3175   7.681   6.364   2.548  0.1507  0.0500  0.1291
   14MOL    O30 3176   7.849   6.242   2.630  0.1382 -0.2915  0.1294
   14MOL    C31 3177   7.770   6.157   2.703 -0.0559  0.1277  0.6019
   14MOL    H32 3178   7.774   6.570   2.410  1.3093 -0.0480 -1.9907
   14MOL    H33 3179   0.006   6.612   2.396  0.3028  0.6076  0.1405
   14MOL    H34 3180   0.067   6.413   2.548  0.1018 -1.4559 -1.0197
   14MOL    H35 3181   7.773   6.179   2.810 -0.0774 -1.3091  0.8986
   14MOL    H36 3182   7.803   6.055   2.688 -3.3785 -0.7629 -1.3179
   14MOL    H37 3183   7.668   6.169   2.664  0.6735  0.9071 -1.1077
   14MOL    C38 3184   0.026   6.361   2.349 -0.1338 -0.4016 -0.0055
   14MOL    C39 3185   0.070   6.215   2.356  0.6751  0.0441 -0.1589
   14MOL    C40 3186   0.094   6.173   2.211 -0.1078 -0.1855 -0.2360
   14MOL    O41 3187   0.021   6.092   2.164 -0.3407 -0.2519  0.2134
   14MOL    O42 3188   0.191   6.232   2.148 -0.9276 -0.0856 -0.6226
   14MOL    C43 3189   0.222   6.189   2.018  0.5578 -0.1771 -0.4532
   14MOL    H44 3190   7.874   6.373   2.281 -0.4955 -1.8324  0.1729
   14MOL    H45 3191   0.109   6.422   2.313  1.1763 -0.7145  2.4095
   14MOL    H46 3192   7.916   6.168   2.403  2.0315 -0.3910  1.9915
   14MOL    H47 3193   0.292   6.258   1.972 -0.4197  0.5265 -0.9014
   14MOL    H48 3194   0.136   6.197   1.952  0.7215 -1.6539 -0.8726
   14MOL    H49 3195   0.266   6.089   2.016  3.0454  0.8945 -1.2466
   14MOL    C50 3196   0.187   6.189   2.448 -0.6022  0.5466 -0.1961
   14MOL    C51 3197   0.275   6.070   2.423  1.1687  0.2562 -0.6234
   14MOL    C52 3198   0.406   6.085   2.496 -0.4556 -0.0649  0.3121
   14MOL    O53 3199   0.513   6.089   2.434 -0.3726  0.1868 -0.6965
   14MOL    O54 3200   0.390   6.083   2.625  0.2818  0.1827  0.4153
   14MOL    C55 3201   0.499   6.059   2.711  0.2849  0.3770  0.1493
   14MOL    H56 3202   0.254   6.274   2.439 -1.1764  1.0232  0.0375
   14MOL    H57 3203   0.155   6.185   2.552  0.9460  0.8120  0.2888
   14MOL    H58 3204   0.307   6.067   2.319 -1.5272  0.1134 -1.4917
   14MOL    H59 3205   0.480   5.970   2.771  0.1757  1.1904  1.3336
   14MOL    H60 3206   0.521   6.146   2.772 -1.3352 -0.1796  1.5365
   14MOL    H61 3207   0.589   6.046   2.649 -0.0332 -0.2337 -0.1948
   14MOL    C62 3208   0.198   5.934   2.459 -0.3678 -0.2939 -0.2197
   14MOL    C63 3209   0.226   5.818   2.364 -0.3887  0.6758 -0.7285
   14MOL    C64 3210   0.362   5.753   2.378  0.2487 -0.3148 -0.2926
   14MOL    O65 3211   0.448   5.773   2.295  0.6855 -0.1178  0.3405
   14MOL    O66 3212   0.371   5.679   2.485  0.1873  0.0823 -0.2146
   14MOL    C67 3213   0.490   5.602   2.515  0.2864 -0.0600 -0.6171
   14MOL    H68 3214   0.215   5.903   2.562 -2.6821  0.6197  0.4512
   14MOL    H69 3215   0.090   5.949   2.461 -0.1425  1.4209 -0.4709
   14MOL    H70 3216   0.223   5.865   2.266 -0.8857  2.3123  0.0535
   14MOL    H71 3217   0.556   5.674   2.563  1.1325 -1.8619  0.9595
   14MOL    H72 3218   0.538   5.561   2.426 -2.2860  0.3435 -2.2594
   14MOL    H73 3219   0.476   5.515   2.579  1.3014  0.9864  1.0408
   14MOL    C74 3220   0.115   5.705   2.363 -0.2322  0.1289 -0.4719
   14MOL    C75 3221   0.011   5.753   2.254  0.4947 -1.0340 -0.1785
   14MOL    C76 3222   0.076   5.740   2.112  0.5740  0.0921 -0.1691
   14MOL    O77 3223   0.141   5.643   2.084 -0.1733 -0.1622  0.1179
   14MOL    O78 3224   0.042   5.834   2.021 -0.1180  0.4441 -0.2399
   14MOL    C79 3225   0.111   5.815   1.891 -0.0409  0.2450 -0.2110
   14MOL    H80 3226   0.154   5.607   2.337 -0.1196 -0.3120  1.2707
   14MOL    H81 3227   0.064   5.708   2.460 -1.0698  0.2951 -0.9089
   14MOL    H82 3228   7.927   5.861   2.260 -0.6328 -1.1272 -1.3871
   14MOL    H83 3229   0.058   5.889   1.830 -1.1142 -1.9143 -1.9683
   14MOL    H84 3230   0.085   5.718   1.849  1.0350  0.1916 -0.7629
   14MOL    H85 3231   0.218   5.832   1.899  0.2934 -0.9961 -1.6696
   14MOL    C86 3232   7.808   5.685   2.253 -0.1079 -0.4429  0.5056
   14MOL    C87 3233   7.704   5.738   2.358 -0.4029  0.6369  0.5500
   14MOL    C88 3234   7.699   5.888   2.367  0.6608 -0.1673  0.6628
   14MOL    O89 3235   7.775   5.945   2.442 -0.2363  0.2390 -0.1869
   14MOL    O90 3236   7.608   5.952   2.295  0.5105 -0.2307 -0.0239
   14MOL    C91 3237   7.606   6.097   2.310  0.0176 -0.1341 -0.5042
   14MOL    H92 3238   7.764   5.695   2.154 -2.7746  2.0287  1.8622
   14MOL    H93 3239   7.834   5.581   2.272  2.0886 -0.1519 -0.7716
   14MOL    H94 3240   7.739   5.702   2.454  0.3037 -1.9092 -0.6217
   14MOL    H95 3241   7.599   6.134   2.207 -0.7008  0.3567 -0.2817
   14MOL    H96 3242   7.690   6.143   2.362 -1.5409  1.4781  0.6521
   14MOL    H97 3243   7.512   6.133   2.352  0.2396 -0.4485  0.2585
   14MOL    C98 3244   7.560   5.677   2.349 -0.2474  0.0718 -0.0492
   14MOL    C99 3245   7.543   5.517   2.346 -0.0255  0.4217  0.4477
   14MOL   C100 3246   7.599   5.456   2.472 -0.5168 -0.2608 -0.4541
   14MOL   O101 3247   7.720   5.426   2.487 -0.6238 -0.2541  0.3174
   14MOL   O102 3248   7.506   5.450   2.569  0.2527  0.2714 -0.7373
   14MOL   C103 3249   7.545   5.393   2.696 -0.6813  0.4929  0.7241
   14MOL   H104 3250   7.499   5.719   2.429 -0.2556 -3.3923  1.8738
   14MOL   H105 3251   7.504   5.719   2.266  1.5178  1.8470 -0.3772
   14MOL   H106 3252   7.606   5.482   2.264  2.4980  1.5060  1.8815
   14MOL   H107 3253   7.541   5.287   2.674  1.6458  0.4202  0.4468
   14MOL   H108 3254   7.456   5.416   2.754 -1.6856  1.7196 -1.2283
   14MOL   H109 3255   7.634   5.431   2.746  0.6252  0.5565 -1.5444
   14MOL   C110 3256   7.392   5.475   2.309  0.2669 -0.1157  0.8415
   14MOL   C111 3257   7.369   5.321   2.279 -0.6639  0.4527  0.2126
   14MOL   C112 3258   7.339   5.244   2.407  0.3363  0.0599 -0.0105
   14MOL   O113 3259   7.421   5.168   2.451 -0.1951 -0.3681 -0.6614
   14MOL   O114 3260   7.218   5.264   2.461  0.0255  0.4264  0.4386
   14MOL   C115 3261   7.192   5.214   2.596  0.4224  0.1503  0.3203
   14MOL   H116 3262   7.320   5.513   2.381 -1.6056  1.0738 -1.6108
   14MOL   H117 3263   7.364   5.536   2.224  0.9497 -0.2446  0.5226
   14MOL   H118 3264   7.464   5.279   2.245 -0.9023 -0.4530  0.6509
   14MOL   H119 3265   7.246   5.264   2.677  0.4371 -2.6805  2.1442
   14MOL   H120 3266   7.225   5.112   2.613  0.4676 -0.0320 -0.8481
   14MOL   H121 3267   7.086   5.232   2.611 -0.1228 -1.7330 -1.1169
   14MOL   C122 3268   7.258   5.283   2.168  0.0803  0.0347 -0.6215
   14MOL   C123 3269   7.272   5.333   2.019  0.2496 -0.4491 -0.0402
   14MOL   C124 3270   7.381   5.248   1.954  0.2245 -0.0347 -0.3010
   14MOL   O125 3271   7.409   5.136   1.988  0.1645 -0.1549  0.0719
   14MOL   O126 3272   7.437   5.309   1.850  0.2515  0.2678  0.2319
   14MOL   C127 3273   7.540   5.246   1.775 -0.3423  0.9820 -0.3533
   14MOL   H128 3274   7.245   5.175   2.162  0.7791 -0.1620  1.0395
   14MOL   H129 3275   7.157   5.313   2.194  0.6267  2.1990 -0.8267
   14MOL   H130 3276   7.310   5.435   2.011 -1.0982  0.0385 -0.2121
   14MOL   H131 3277   7.601   5.312   1.714 -1.9939  1.7125 -1.2590
   14MOL   H132 3278   7.500   5.163   1.716  0.3028 -0.1511  0.7828
   14MOL   H133 3279   7.606   5.202   1.849 -1.1620  1.2860  0.5662
   14MOL   C134 3280   7.138   5.316   1.941 -0.1256  0.1546  0.2776
   14MOL   C135 3281   7.134   5.381   1.798  0.3538 -0.3123  0.1051
   14MOL   C136 3282   7.032   5.309   1.701  0.0317 -0.4490  0.0663
   14MOL   O137 3283   7.064   5.220   1.620  0.1605 -0.7596  0.4409
   14MOL   O138 3284   6.900   5.352   1.728 -0.2027  0.3678  0.5264
   14MOL   C139 3285   6.805   5.298   1.645 -0.2765 -0.4576  0.2391
   14MOL   H140 3286   7.108   5.211   1.941  0.0488  0.0976  1.2026
   14MOL   H141 3287   7.064   5.374   1.997 -2.8215 -2.1809 -0.7590
   14MOL   H142 3288   7.228   5.349   1.754  0.7552  0.1269  0.6320
   14MOL   H143 3289   6.751   5.213   1.689 -0.2259  0.1112  1.4284
   14MOL   H144 3290   6.848   5.259   1.553  1.7731 -0.4805  1.1830
   14MOL   H145 3291   6.728   5.372   1.622 -0.6450 -0.4350  1.5064
   14MOL   C146 3292   7.140   5.536   1.794 -0.4177 -0.0716 -0.8028
   14MOL   C147 3293   7.281   5.596   1.761 -0.2497 -0.4462 -0.2442
   14MOL   C148 3294   7.328   5.583   1.617 -0.0408 -0.8940  0.8832
   14MOL   O149 3295   7.254   5.571   1.518  0.2034  0.0708  0.1219
   14MOL   O150 3296   7.463   5.590   1.606 -0.1975 -0.0785 -0.6271
   14MOL   C151 3297   7.526   5.562   1.483  0.1572 -0.6156 -0.1189
   14MOL   H152 3298   7.074   5.575   1.717 -1.3378  1.0217  0.4969
   14MOL   H153 3299   7.091   5.578   1.882 -1.0556  0.1546 -1.2628
   14MOL   H154 3300   7.347   5.545   1.831  0.7253  0.1305 -0.7337
   14MOL   H155 3301   7.507   5.457   1.459  2.3974 -0.7756 -1.3324
   14MOL   H156 3302   7.634   5.582   1.482  0.5253 -2.4705 -0.0203
   14MOL   H157 3303   7.474   5.609   1.400  0.1399 -2.7752 -1.3707
   14MOL   C158 3304   7.290   5.742   1.814  0.3347  0.0127 -0.2715
   14MOL   C159 3305   7.375   5.762   1.946 -0.0248  0.5355  0.0256
   14MOL   C160 3306   7.528   5.766   1.906 -0.2698  0.1166  0.0990
   14MOL   O161 3307   7.600   5.869   1.903 -0.2566  0.5355  0.5593
   14MOL   O162 3308   7.568   5.651   1.888 -0.7420  0.3059 -0.1541
   14MOL   C163 3309   7.707   5.608   1.880 -0.8300 -0.3785  0.6774
   14MOL   H164 3310   7.335   5.812   1.743  0.0215  0.9419  0.4333
   14MOL   H165 3311   7.195   5.795   1.819  1.8207  2.6589  1.0680
   14MOL   H166 3312   7.362   5.682   2.019  0.2130  0.2174 -0.2795
   14MOL   H167 3313   7.724   5.540   1.964  0.5265  0.3114  0.9724
   14MOL   H168 3314   7.784   5.683   1.895  0.0241 -1.0753 -0.1354
   14MOL   H169 3315   7.735   5.560   1.786  1.4295 -1.0097  1.6303
   14MOL   C170 3316   7.336   5.887   2.031  0.1774  0.0934 -0.2670
   14MOL   C171 3317   7.188   5.885   2.065 -0.3386 -0.8402 -0.2044
   14MOL   C172 3318   7.146   5.757   2.133  0.1296  0.7858  1.2895
   14MOL   O173 3319   7.188   5.720   2.239 -0.0550 -0.1805 -0.1507
   14MOL   O174 3320   7.033   5.712   2.077 -0.0832  0.1140 -0.1605
   14MOL   C175 3321   6.966   5.602   2.137  0.8001  0.1105  0.3865
   14MOL   H176 3322   7.394   5.879   2.122 -1.4162 -1.2271  0.6680
   14MOL   H177 3323   7.347   5.981   1.977 -1.3103 -0.6932 -2.0377
   14MOL   H178 3324   7.130   5.905   1.976 -2.3318 -1.9810  0.8003
   14MOL   H179 3325   7.033   5.535   2.191 -1.5285 -1.7122  1.0701
   14MOL   H180 3326   6.906   5.557   2.059  0.5954  0.3282  0.4151
   14MOL   H181 3327   6.904   5.653   2.211 -1.7709  1.2870 -2.4689
   14MOL   C182 3328   7.151   6.002   2.158 -0.1976  0.4225  0.2511
   14MOL   C183 3329   7.001   6.037   2.187  0.6833  0.0288  0.0514
   14MOL   C184 3330   6.912   6.067   2.062  0.8663 -0.3153 -0.3007
   14MOL   O185 3331   6.921   6.179   2.013 -0.2648  0.5536  0.1769
   14MOL   O186 3332   6.850   5.962   2.022 -0.9744 -0.0058  0.1227
   14MOL   C187 3333   6.744   5.969   1.924  0.1599  0.1790 -0.2066
   14MOL   H188 3334   7.202   5.972   2.249  0.4879 -1.0582 -0.6017
   14MOL   H189 3335   7.207   6.092   2.131  2.2905 -0.9800  0.5887
   14MOL   H190 3336   7.002   6.135   2.233 -1.5882 -0.8088  1.9535
   14MOL   H191 3337   6.725   5.870   1.884  0.5783  0.0187 -0.0096
   14MOL   H192 3338   6.771   6.027   1.836  0.4674  2.9285  1.6500
   14MOL   H193 3339   6.652   6.016   1.958  0.9182  0.8674  0.9619
   14MOL   C194 3340   6.938   5.948   2.298 -0.6979  0.0083  0.7192
   14MOL   C195 3341   6.804   5.993   2.361  0.2616 -0.6230  0.0738
   14MOL   C196 3342   6.689   5.927   2.286  0.4491 -0.5403 -0.0922
   14MOL   O197 3343   6.614   5.988   2.212  0.0336  0.4943  0.2893
   14MOL   O198 3344   6.680   5.798   2.316 -0.2124  0.1044 -0.4608
   14MOL   C199 3345   6.596   5.716   2.234  0.0478 -0.3207 -0.4153
   14MOL   H200 3346   6.931   5.846   2.260  3.3080 -0.7703  1.8201
   14MOL   H201 3347   7.018   5.946   2.372  0.4130  0.9152 -0.4284
   14MOL   H202 3348   6.802   6.100   2.343 -0.3136 -0.6429  0.0201
   14MOL   H203 3349   6.492   5.734   2.258  1.0355  3.6612  1.1573
   14MOL   H204 3350   6.620   5.612   2.259 -0.9899 -0.9936 -2.1028
   14MOL   H205 3351   6.598   5.739   2.127  0.7827 -0.7547 -0.4995
   14MOL   C206 3352   6.793   5.986   2.522  0.0210 -0.1526 -0.1206
   14MOL   C207 3353   6.669   6.049   2.585  0.1133  0.7393  0.1389
   14MOL   C208 3354   6.648   6.023   2.736  0.2876  0.0350  0.4420
   14MOL   O209 3355   6.538   5.990   2.776 -0.1165 -0.6180  0.6929
   14MOL   O210 3356   6.748   6.053   2.813 -0.3506  0.2403 -0.3279
   14MOL   C211 3357   6.742   6.006   2.947 -0.8483 -0.0834  0.1605
   14MOL   H212 3358   6.794   5.882   2.555 -1.1424 -0.7607 -1.9211
   14MOL   H213 3359   6.883   6.032   2.561 -1.7588  2.9530  0.4953
   14MOL   H214 3360   6.583   5.997   2.543  1.8379 -1.9338 -0.1837
   14MOL   H215 3361   6.822   6.047   3.008 -0.0957 -1.8495  0.4041
   14MOL   H216 3362   6.737   5.897   2.952  2.1814 -0.1720  1.9632
   14MOL   H217 3363   6.659   6.045   3.006 -0.9823 -1.2762  0.7864
   14MOL   C218 3364   6.666   6.197   2.551  0.1217  0.2227 -0.7634
   14MOL   C219 3365   6.785   6.278   2.602  0.2606 -0.1203 -0.0408
   14MOL   C220 3366   6.880   6.314   2.489  0.1481 -0.3391  0.4272
   14MOL   O221 3367   6.988   6.261   2.474 -0.0096 -0.3307 -0.0571
   14MOL   O222 3368   6.820   6.395   2.403  0.0281 -1.1687 -0.1830
   14MOL   C223 3369   6.889   6.440   2.287 -0.0018  0.1686  0.3838
   14MOL   H224 3370   6.649   6.207   2.444  0.9318  0.9133 -0.8300
   14MOL   H225 3371   6.575   6.230   2.600 -0.5132  0.4599 -2.0859
   14MOL   H226 3372   6.852   6.223   2.668 -0.3650 -0.1090  0.6010
   14MOL   H227 3373   6.871   6.547   2.273  0.3035  0.2933  0.9456
   14MOL   H228 3374   6.844   6.386   2.204 -1.0558 -1.3487  1.9069
   14MOL   H229 3375   6.993   6.407   2.283 -0.2643 -0.7276  0.9031
   14MOL   C230 3376   6.739   6.405   2.679  0.3398 -1.0324 -0.0886
   14MOL   C231 3377   6.685   6.364   2.824  1.0915 -0.1626  0.6649
   14MOL   C232 3378   6.620   6.473   2.907  0.2118  0.1477 -1.0656
   14MOL   O233 3379   6.659   6.495   3.025 -0.1668  0.0297 -0.2713
   14MOL   O234 3380   6.515   6.533   2.855  1.0079  0.5998  0.2720
   14MOL   C235 3381   6.443   6.637   2.924  0.4954  0.3384 -0.3019
   14MOL   H236 3382   6.814   6.483   2.695 -1.5584  1.0515 -1.2458
   14MOL   H237 3383   6.663   6.449   2.616 -0.6062 -1.2844  0.8646
   14MOL   H238 3384   6.770   6.336   2.886  0.9825 -0.7196  0.5668
   14MOL   H239 3385   6.375   6.688   2.855 -1.3625 -2.1437 -0.3962
   14MOL   H240 3386   6.512   6.714   2.958  1.0039 -1.1706  2.1971
   14MOL   H241 3387   6.387   6.597   3.009 -0.0548 -1.7563 -1.6026
   14MOL   H242 3388   6.615   6.279   2.824 -1.1031  1.5674 -2.1211
   15MOL     C1 3389   4.414   3.499   1.451 -0.0509  0.3206  0.2272
   15MOL     C2 3390   4.373   3.557   1.584 -0.0187  0.2577 -0.3622
   15MOL     C3 3391   4.373   3.709   1.584 -0.0110 -0.2073 -0.4164
   15MOL     O4 3392   4.434   3.779   1.668  0.1332 -0.0135 -0.3465
   15MOL     O5 3393   4.284   3.755   1.495 -0.8649  0.1612 -0.4016
   15MOL     C6 3394   4.301   3.890   1.442  0.0769  0.3821 -0.7315
   15MOL     H7 3395   4.449   3.397   1.472 -0.6368 -0.0232 -0.4408
   15MOL     H8 3396   4.497   3.546   1.398 -0.1178  0.5025  0.2839
   15MOL     H9 3397   4.455   3.524   1.647  0.4684  0.1383 -1.0625
   15MOL    H10 3398   4.216   3.924   1.383 -1.5593 -1.5329  0.4649
   15MOL    H11 3399   4.385   3.903   1.374 -0.7603 -1.3231 -2.1555
   15MOL    H12 3400   4.321   3.953   1.528 -0.1155  1.0042 -1.1417
   15MOL    H13 3401   4.325   3.494   1.389 -1.0480 -0.6380  1.7046
   15MOL    C14 3402   4.248   3.480   1.640 -0.8606  0.3744  0.1760
   15MOL    C15 3403   4.242   3.331   1.671 -0.7135 -0.3574  0.4999
   15MOL    C16 3404   4.355   3.274   1.755 -1.0686 -0.6767 -0.0647
   15MOL    O17 3405   4.417   3.186   1.708 -0.7911  0.4214  0.1718
   15MOL    O18 3406   4.371   3.330   1.879  0.0270 -0.1604  1.3669
   15MOL    C19 3407   4.468   3.275   1.960  0.2208  0.3518  0.3818
   15MOL    H20 3408   4.228   3.539   1.730 -1.7588 -0.2415  0.3909
   15MOL    H21 3409   4.176   3.511   1.565 -1.1766 -1.4543 -0.2933
   15MOL    H22 3410   4.256   3.285   1.573  0.3020  0.3974  0.2818
   15MOL    H23 3411   4.562   3.247   1.912 -0.3180 -0.0590 -0.4480
   15MOL    H24 3412   4.434   3.178   1.996 -2.9793  1.5561  0.7901
   15MOL    H25 3413   4.490   3.349   2.037  1.4281  0.3165  0.0823
   15MOL    C26 3414   4.102   3.284   1.720  0.4152 -0.5339 -0.0801
   15MOL    C27 3415   4.084   3.131   1.750 -0.0319  0.5623  0.3875
   15MOL    C28 3416   3.941   3.098   1.806  0.0404 -0.1921  0.0317
   15MOL    O29 3417   3.929   3.048   1.916 -0.0007  0.2458  0.1522
   15MOL    O30 3418   3.837   3.137   1.724 -0.4757 -0.2003  0.8188
   15MOL    C31 3419   3.708   3.106   1.758 -0.0167  0.1233  0.4650
   15MOL    H32 3420   4.080   3.329   1.816 -0.1989  1.4808 -1.1346
   15MOL    H33 3421   4.023   3.304   1.647  1.6710 -0.5382 -1.4749
   15MOL    H34 3422   4.149   3.098   1.832 -2.4977  0.1101  2.2370
   15MOL    H35 3423   3.632   3.099   1.679  1.3299  1.1859 -0.9575
   15MOL    H36 3424   3.678   3.188   1.823  0.5945  0.0364  0.8588
   15MOL    H37 3425   3.702   3.009   1.807 -3.2820 -0.3858 -0.7916
   15MOL    C38 3426   4.098   3.043   1.625  0.0125 -0.5021 -0.6551
   15MOL    C39 3427   4.100   2.881   1.635  0.3195  0.0009  0.4226
   15MOL    C40 3428   3.993   2.817   1.536 -0.3815  0.3460 -0.3758
   15MOL    O41 3429   4.022   2.773   1.425  0.1098  0.2536 -0.2463
   15MOL    O42 3430   3.866   2.832   1.583 -0.0071  0.1166 -0.3006
   15MOL    C43 3431   3.752   2.797   1.513  0.3088 -0.7417 -0.2124
   15MOL    H44 3432   4.030   3.072   1.546 -1.4853  0.4633  0.9579
   15MOL    H45 3433   4.196   3.078   1.590 -1.0107  2.1745 -0.9311
   15MOL    H46 3434   4.053   2.847   1.727  2.0865 -4.6572 -0.2420
   15MOL    H47 3435   3.780   2.696   1.481  2.8046 -0.1281  0.0030
   15MOL    H48 3436   3.739   2.862   1.427  0.9011 -0.5308 -0.1397
   15MOL    H49 3437   3.663   2.800   1.576  0.8945  2.0273  0.5297
   15MOL    C50 3438   4.234   2.810   1.602  0.2726  0.0334  0.3686
   15MOL    C51 3439   4.354   2.833   1.694 -1.2048  0.3824  0.1759
   15MOL    C52 3440   4.321   2.796   1.837  0.0238 -0.1529 -0.0636
   15MOL    O53 3441   4.354   2.877   1.926 -0.5599  0.6724  0.6311
   15MOL    O54 3442   4.264   2.676   1.850  0.4189 -0.1556 -0.0078
   15MOL    C55 3443   4.248   2.618   1.976  0.2111 -0.1207 -0.0698
   15MOL    H56 3444   4.212   2.704   1.592  0.6396  0.2377 -3.1946
   15MOL    H57 3445   4.262   2.832   1.499  0.2867 -0.3831  0.2807
   15MOL    H58 3446   4.368   2.939   1.717 -1.5787 -0.1557  3.1140
   15MOL    H59 3447   4.205   2.687   2.049  1.2899  1.8068 -1.2085
   15MOL    H60 3448   4.340   2.576   2.017 -0.0678 -0.5585  0.1097
   15MOL    H61 3449   4.186   2.528   1.974 -0.8541  0.6373 -1.5474
   15MOL    C62 3450   4.481   2.762   1.644  0.2428  0.0465 -0.3260
   15MOL    C63 3451   4.514   2.769   1.497  0.3216  0.2053 -0.2045
   15MOL    C64 3452   4.550   2.913   1.449  0.1144 -0.9869 -0.0614
   15MOL    O65 3453   4.505   2.967   1.344 -0.6951  0.4123 -0.3028
   15MOL    O66 3454   4.633   2.980   1.533 -0.4963  0.7939  0.0682
   15MOL    C67 3455   4.663   3.112   1.501 -0.1157  0.9213 -0.3075
   15MOL    H68 3456   4.559   2.785   1.716 -0.5591  1.3147  0.1458
   15MOL    H69 3457   4.479   2.658   1.680 -2.3139  0.8974  2.2064
   15MOL    H70 3458   4.435   2.723   1.437  0.0449  1.1787 -0.6013
   15MOL    H71 3459   4.741   3.124   1.426 -0.5075 -1.2528 -1.0950
   15MOL    H72 3460   4.726   3.149   1.582 -2.1651 -0.4709  2.0039
   15MOL    H73 3461   4.569   3.165   1.485 -1.4905 -1.8323 -1.6131
   15MOL    C74 3462   4.640   2.679   1.469  0.8294 -0.7087  0.7557
   15MOL    C75 3463   4.609   2.530   1.436 -0.3811  0.1661  0.2722
   15MOL    C76 3464   4.526   2.505   1.304 -0.1684 -0.0563  0.2643
   15MOL    O77 3465   4.429   2.434   1.308  0.1224 -0.0849  0.5099
   15MOL    O78 3466   4.567   2.582   1.196  0.3796 -0.7359 -0.1218
   15MOL    C79 3467   4.501   2.575   1.078  0.3171  0.6193  0.1061
   15MOL    H80 3468   4.692   2.712   1.379 -0.6413  1.2091  0.5588
   15MOL    H81 3469   4.706   2.692   1.555  1.5146 -0.1888  0.1509
   15MOL    H82 3470   4.548   2.482   1.512 -1.7484  0.1913 -0.7968
   15MOL    H83 3471   4.449   2.480   1.066 -4.1563  3.0802 -1.0104
   15MOL    H84 3472   4.565   2.584   0.990 -0.1372 -0.5075 -0.3543
   15MOL    H85 3473   4.424   2.650   1.095 -0.5695 -0.3748  0.5469
   15MOL    C86 3474   4.739   2.447   1.433  0.2106 -0.3190  0.0102
   15MOL    C87 3475   4.815   2.429   1.570  0.1414  0.3477  0.1914
   15MOL    C88 3476   4.736   2.344   1.671 -0.1449  0.7143  0.0259
   15MOL    O89 3477   4.701   2.387   1.781  0.9615  0.5230  0.8456
   15MOL    O90 3478   4.719   2.223   1.626 -0.1639 -0.0257 -0.5326
   15MOL    C91 3479   4.665   2.127   1.718 -0.4739 -0.2190  0.3674
   15MOL    H92 3480   4.723   2.348   1.390  1.1641 -0.0809 -0.9065
   15MOL    H93 3481   4.804   2.499   1.363 -0.4996  0.0908 -0.3453
   15MOL    H94 3482   4.836   2.534   1.592  1.1160  0.8159 -2.7568
   15MOL    H95 3483   4.703   2.137   1.820 -0.3144  1.2228  0.1740
   15MOL    H96 3484   4.710   2.034   1.684 -0.7487 -0.6064  1.0497
   15MOL    H97 3485   4.556   2.130   1.722 -0.5629  1.5392 -2.2702
   15MOL    C98 3486   4.960   2.381   1.535  0.3942  0.4551  0.6421
   15MOL    C99 3487   5.059   2.483   1.477 -0.1055  0.1937 -0.4849
   15MOL   C100 3488   5.084   2.590   1.585  0.4457 -0.3060 -0.6330
   15MOL   O101 3489   5.030   2.702   1.592  0.6389 -0.0776 -0.1355
   15MOL   O102 3490   5.177   2.546   1.675  0.5181 -0.5997  0.1348
   15MOL   C103 3491   5.201   2.619   1.791 -0.0375  0.4878 -0.0059
   15MOL   H104 3492   4.996   2.350   1.633  0.5080 -3.1372 -0.4436
   15MOL   H105 3493   4.951   2.295   1.468  2.0285  0.0272  0.9551
   15MOL   H106 3494   5.015   2.550   1.403  0.5643 -0.9823 -1.9488
   15MOL   H107 3495   5.130   2.699   1.809  0.6192  1.4593 -1.5768
   15MOL   H108 3496   5.297   2.665   1.769 -0.4436  0.9824 -0.7740
   15MOL   H109 3497   5.227   2.556   1.876 -1.2229  1.2957  0.9667
   15MOL   C110 3498   5.183   2.416   1.411  0.2111  0.4123 -0.2705
   15MOL   C111 3499   5.244   2.484   1.281 -0.1698  0.2331  0.1237
   15MOL   C112 3500   5.315   2.614   1.313  0.0497  0.4477  0.0547
   15MOL   O113 3501   5.423   2.621   1.367  0.1838 -0.2281  0.0501
   15MOL   O114 3502   5.241   2.727   1.276 -0.4178 -0.2258  0.1839
   15MOL   C115 3503   5.284   2.858   1.305  0.0066  1.0452  0.6326
   15MOL   H116 3504   5.260   2.400   1.487 -0.0510 -0.3620 -0.1609
   15MOL   H117 3505   5.156   2.316   1.377 -0.5425  0.9470 -1.2546
   15MOL   H118 3506   5.165   2.508   1.211  1.2184  1.3005 -1.1298
   15MOL   H119 3507   5.389   2.867   1.276  0.0654 -1.7067 -0.1115
   15MOL   H120 3508   5.279   2.883   1.411 -1.3055  0.4008  0.7256
   15MOL   H121 3509   5.228   2.931   1.246 -0.6298 -1.0625 -1.4655
   15MOL   C122 3510   5.351   2.405   1.213 -0.2121 -0.3972 -0.2148
   15MOL   C123 3511   5.398   2.436   1.070 -0.1082  0.1111  0.4323
   15MOL   C124 3512   5.528   2.365   1.030 -0.8647  0.4083 -0.6470
   15MOL   O125 3513   5.537   2.278   0.947  0.0254  0.5676  0.1456
   15MOL   O126 3514   5.631   2.434   1.083 -0.5074  0.8033  0.0496
   15MOL   C127 3515   5.763   2.395   1.056  0.6710  0.1897 -0.4571
   15MOL   H128 3516   5.439   2.402   1.278 -1.2781  1.1598  1.3569
   15MOL   H129 3517   5.321   2.300   1.214  0.2997 -0.5436 -0.0196
   15MOL   H130 3518   5.436   2.538   1.066  2.8102 -0.7986  3.1675
   15MOL   H131 3519   5.780   2.294   1.095 -1.0371 -0.0493 -0.3140
   15MOL   H132 3520   5.824   2.462   1.116  1.4151 -0.3913 -0.5398
   15MOL   H133 3521   5.787   2.397   0.950 -0.5646 -0.7131 -0.7669
   15MOL   C134 3522   5.283   2.408   0.972  0.2705 -0.2746  0.5475
   15MOL   C135 3523   5.217   2.543   0.930 -0.4232  0.0963 -0.2420
   15MOL   C136 3524   5.294   2.615   0.820  0.5187  0.6252 -0.5546
   15MOL   O137 3525   5.243   2.697   0.745 -0.0612 -0.1659  0.4672
   15MOL   O138 3526   5.423   2.594   0.822 -0.0712  1.0965  0.4482
   15MOL   C139 3527   5.504   2.652   0.732 -0.2839 -0.6996  0.2639
   15MOL   H140 3528   5.315   2.354   0.882  1.5118 -2.5778  2.3245
   15MOL   H141 3529   5.208   2.347   1.022 -0.2416  0.1627  0.3231
   15MOL   H142 3530   5.209   2.611   1.014 -1.1854 -1.1107  0.6929
   15MOL   H143 3531   5.469   2.656   0.629  1.0156 -0.6084 -0.1807
   15MOL   H144 3532   5.594   2.594   0.714  0.3362 -0.3876  2.2238
   15MOL   H145 3533   5.528   2.754   0.762  1.3486  0.1397 -3.6501
   15MOL   C146 3534   5.069   2.513   0.887  0.2403  0.2651 -0.1870
   15MOL   C147 3535   4.962   2.492   1.003  0.3061  0.0070  0.4800
   15MOL   C148 3536   4.921   2.627   1.069 -0.4003  0.5963  0.3292
   15MOL   O149 3537   4.925   2.641   1.192  0.4259  0.2301  0.5341
   15MOL   O150 3538   4.868   2.714   0.981  0.0022  0.5136  0.6622
   15MOL   C151 3539   4.813   2.831   1.035 -0.9454  0.5685 -0.5148
   15MOL   H152 3540   5.039   2.597   0.824 -0.7995  0.3460  0.3987
   15MOL   H153 3541   5.073   2.430   0.816  1.2087  0.2678 -0.1395
   15MOL   H154 3542   5.009   2.433   1.081 -1.9719  1.9663  3.4578
   15MOL   H155 3543   4.779   2.819   1.138 -0.2153 -1.9176 -0.5234
   15MOL   H156 3544   4.736   2.876   0.974 -1.3791  0.6761  0.1022
   15MOL   H157 3545   4.890   2.909   1.039 -1.0996  0.6837  0.3005
   15MOL   C158 3546   4.823   2.410   0.968  0.1783 -0.1532 -0.0385
   15MOL   C159 3547   4.848   2.255   0.962  0.4403 -0.4728 -0.1744
   15MOL   C160 3548   4.907   2.207   1.092  0.4423  0.6851 -0.1805
   15MOL   O161 3549   4.877   2.250   1.202 -0.5106  0.3633  0.6771
   15MOL   O162 3550   5.001   2.114   1.076 -0.0969 -0.0216 -0.1959
   15MOL   C163 3551   5.065   2.072   1.192  0.5571  0.5221 -0.3896
   15MOL   H164 3552   4.753   2.441   1.045 -0.1458 -0.1989 -0.3156
   15MOL   H165 3553   4.788   2.443   0.871  0.7840  1.0762  0.1557
   15MOL   H166 3554   4.929   2.251   0.890  0.5816  2.3830 -0.2506
   15MOL   H167 3555   5.114   1.983   1.154  1.5724  1.8309 -2.2629
   15MOL   H168 3556   4.988   2.032   1.257 -0.5764  1.4447 -1.1498
   15MOL   H169 3557   5.133   2.139   1.245  2.3041  0.4242 -2.4493
   15MOL   C170 3558   4.726   2.169   0.920  0.9556  0.2059 -0.4758
   15MOL   C171 3559   4.770   2.059   0.822 -0.3656 -0.1101 -0.0343
   15MOL   C172 3560   4.705   1.921   0.861  0.1477 -0.1667  0.2620
   15MOL   O173 3561   4.602   1.882   0.805  0.3648  0.3960  0.3937
   15MOL   O174 3562   4.788   1.845   0.938  0.1159  0.2439 -0.2907
   15MOL   C175 3563   4.753   1.711   0.969 -0.3705  0.3040  0.0383
   15MOL   H176 3564   4.679   2.120   1.006 -0.5513 -1.0807 -1.9745
   15MOL   H177 3565   4.645   2.227   0.875 -0.4404 -1.8180 -0.6574
   15MOL   H178 3566   4.876   2.037   0.836 -1.0299 -2.5353  1.5168
   15MOL   H179 3567   4.647   1.713   0.992 -0.3789  1.7573 -0.0754
   15MOL   H180 3568   4.816   1.680   1.053 -1.7898  1.2159  1.4524
   15MOL   H181 3569   4.765   1.646   0.882  0.5513  2.4259 -1.4625
   15MOL   C182 3570   4.746   2.105   0.674  0.3101 -0.5919  0.4979
   15MOL   C183 3571   4.837   2.215   0.609  0.8291  0.1306 -0.2225
   15MOL   C184 3572   4.976   2.171   0.597  0.4828 -0.0967 -0.3920
   15MOL   O185 3573   4.997   2.053   0.582  0.0536 -0.3175 -0.1660
   15MOL   O186 3574   5.072   2.273   0.593  0.8430 -0.8942  0.4486
   15MOL   C187 3575   5.205   2.239   0.598 -0.0489  0.6418  0.0181
   15MOL   H188 3576   4.741   2.023   0.602 -1.1201  0.0941 -0.2007
   15MOL   H189 3577   4.645   2.147   0.667 -0.6966 -2.7519  1.7235
   15MOL   H190 3578   4.847   2.298   0.679 -0.3287 -1.2924  1.6824
   15MOL   H191 3579   5.241   2.200   0.503  0.0628 -1.0250  0.7192
   15MOL   H192 3580   5.239   2.161   0.667  0.7375  0.8248 -0.1500
   15MOL   H193 3581   5.273   2.320   0.626  0.2602  0.1439  0.7350
   15MOL   C194 3582   4.792   2.262   0.471  0.2321  0.6352  0.5793
   15MOL   C195 3583   4.679   2.375   0.472 -1.0312  0.0615  0.1103
   15MOL   C196 3584   4.714   2.501   0.560  0.3148  0.4344  0.6334
   15MOL   O197 3585   4.643   2.539   0.652  0.2182  0.9401 -0.2919
   15MOL   O198 3586   4.837   2.556   0.529 -0.7696  0.3442 -0.2621
   15MOL   C199 3587   4.867   2.690   0.575  0.4699  0.9837 -0.4165
   15MOL   H200 3588   4.875   2.297   0.411  1.1706  0.1541  1.5840
   15MOL   H201 3589   4.750   2.173   0.424 -0.0038  2.2799 -2.4315
   15MOL   H202 3590   4.585   2.336   0.509 -0.7655 -0.1988  0.5185
   15MOL   H203 3591   4.975   2.698   0.584  0.4694  2.2179 -1.4004
   15MOL   H204 3592   4.846   2.717   0.678  0.3200 -0.4674 -0.0581
   15MOL   H205 3593   4.825   2.769   0.513  1.5782  2.1710  0.3178
   15MOL   C206 3594   4.651   2.425   0.327  0.0423  0.2769 -1.2718
   15MOL   C207 3595   4.495   2.426   0.304 -1.0379 -0.4940 -0.3477
   15MOL   C208 3596   4.434   2.289   0.289 -0.0435 -0.2645 -0.1441
   15MOL   O209 3597   4.381   2.250   0.183  0.1322 -1.0702 -0.1116
   15MOL   O210 3598   4.433   2.227   0.398  0.2054  0.3480  0.0162
   15MOL   C211 3599   4.376   2.100   0.403 -0.1864  0.0844 -0.5150
   15MOL   H212 3600   4.688   2.525   0.303  0.6385  0.7797  1.5557
   15MOL   H213 3601   4.697   2.360   0.253 -2.2092 -1.1521 -1.4556
   15MOL   H214 3602   4.482   2.476   0.208 -2.3654 -1.3279 -0.6007
   15MOL   H215 3603   4.423   2.026   0.338 -0.1487 -0.4014  0.0567
   15MOL   H216 3604   4.268   2.111   0.390 -0.0741  0.5588 -1.0683
   15MOL   H217 3605   4.391   2.058   0.503  0.9055 -2.3389 -1.6466
   15MOL   C218 3606   4.427   2.528   0.400 -0.2929 -0.0458  0.3130
   15MOL   C219 3607   4.282   2.579   0.365 -0.6177 -0.1801 -0.4829
   15MOL   C220 3608   4.267   2.654   0.233 -0.3241 -0.3760  0.6051
   15MOL   O221 3609   4.360   2.668   0.155 -0.7238  0.0256 -0.1109
   15MOL   O222 3610   4.143   2.704   0.207  0.4392 -0.1232  0.4733
   15MOL   C223 3611   4.126   2.781   0.088  0.4311  0.3074  0.0230
   15MOL   H224 3612   4.414   2.471   0.492 -1.4501 -0.7545 -0.2767
   15MOL   H225 3613   4.491   2.615   0.415  0.9281 -0.8604 -0.0746
   15MOL   H226 3614   4.268   2.660   0.437  0.3350  0.1281 -0.6297
   15MOL   H227 3615   4.193   2.867   0.089  1.3606 -0.4030  1.9273
   15MOL   H228 3616   4.020   2.803   0.089 -0.3527 -3.1898  1.6302
   15MOL   H229 3617   4.140   2.723   7.930  0.7979 -1.1181  0.9728
   15MOL   C230 3618   4.167   2.468   0.379 -0.6246  0.0502  0.5069
   15MOL   C231 3619   4.029   2.514   0.422 -0.0497 -0.5706  0.1621
   15MOL   C232 3620   4.022   2.577   0.556 -0.8955 -0.5059 -0.7461
   15MOL   O233 3621   4.025   2.508   0.653 -0.1787 -0.0740  0.7184
   15MOL   O234 3622   4.017   2.713   0.556  0.0540 -0.9887 -0.0499
   15MOL   C235 3623   4.011   2.774   0.682  0.3706 -1.1165  0.4030
   15MOL   H236 3624   4.168   2.410   0.287 -1.1143  1.4861 -0.4286
   15MOL   H237 3625   4.200   2.384   0.440  0.3214 -0.7025 -1.0053
   15MOL   H238 3626   3.970   2.423   0.423  0.0299 -0.6203  0.2618
   15MOL   H239 3627   3.990   2.878   0.659  0.2072 -0.6187  2.6405
   15MOL   H240 3628   4.113   2.753   0.717  1.6953  1.7046 -1.5956
   15MOL   H241 3629   3.940   2.721   0.745  0.3522  0.1623  1.4850
   15MOL   H242 3630   4.003   2.592   0.350  0.5817 -1.6274 -1.2339
   16MOL     C1 3631   5.543   2.705   2.032  0.4310 -0.0045 -0.3630
   16MOL     C2 3632   5.669   2.790   2.060 -0.3757 -0.2013 -0.3284
   16MOL     C3 3633   5.792   2.731   1.994 -0.0096 -0.7672  0.3686
   16MOL     O4 3634   5.877   2.685   2.070  0.3907 -0.8351 -0.2828
   16MOL     O5 3635   5.793   2.749   1.864  0.0435 -0.8104  0.0208
   16MOL     C6 3636   5.910   2.714   1.797 -0.3754  0.0281 -0.2931
   16MOL     H7 3637   5.566   2.601   2.056 -0.7901 -0.3313 -0.6092
   16MOL     H8 3638   5.502   2.714   1.932 -1.6340  0.1975  0.4834
   16MOL     H9 3639   5.687   2.779   2.167  2.6637 -2.2758 -0.9791
   16MOL    H10 3640   5.914   2.605   1.798  1.9783  0.0327 -2.4115
   16MOL    H11 3641   5.995   2.758   1.850 -1.1398  0.4100  0.6283
   16MOL    H12 3642   5.904   2.755   1.697  0.6669  2.5427  0.6279
   16MOL    H13 3643   5.472   2.734   2.109 -1.7781 -1.4825 -1.7904
   16MOL    C14 3644   5.644   2.938   2.038  0.1181  0.3550  0.2029
   16MOL    C15 3645   5.544   3.014   2.131  0.4421 -1.2797  0.1450
   16MOL    C16 3646   5.600   3.018   2.273 -0.3921 -0.7929  0.0731
   16MOL    O17 3647   5.713   2.983   2.306 -0.0563  0.5904 -0.6274
   16MOL    O18 3648   5.513   3.069   2.360 -0.4500  0.3446  0.1627
   16MOL    C19 3649   5.552   3.069   2.491 -0.1375  0.0641  0.3794
   16MOL    H20 3650   5.741   2.985   2.048  0.5227 -0.8303  2.1032
   16MOL    H21 3651   5.610   2.943   1.935  0.0579 -0.2612  0.1889
   16MOL    H22 3652   5.449   2.960   2.139 -0.8054  0.9510  0.7029
   16MOL    H23 3653   5.517   3.165   2.528 -1.5881  0.4690 -1.9715
   16MOL    H24 3654   5.660   3.062   2.504  0.1746  0.1854 -2.0348
   16MOL    H25 3655   5.493   2.995   2.546  0.2015 -0.3152  0.2340
   16MOL    C26 3656   5.512   3.150   2.071 -0.1623 -0.6467  0.2393
   16MOL    C27 3657   5.377   3.202   2.112  0.4622  0.0633 -0.2516
   16MOL    C28 3658   5.362   3.352   2.082 -0.3706 -0.4122 -0.1933
   16MOL    O29 3659   5.429   3.410   1.995 -0.0874 -0.3311 -0.1193
   16MOL    O30 3660   5.281   3.408   2.162  0.0805 -0.2379 -0.7823
   16MOL    C31 3661   5.284   3.547   2.176 -0.2426  0.2214  0.9317
   16MOL    H32 3662   5.596   3.214   2.097  1.0800 -2.0211 -0.3195
   16MOL    H33 3663   5.529   3.160   1.964 -0.8061  0.7031  0.2505
   16MOL    H34 3664   5.359   3.180   2.217 -1.0065  2.3700  0.0303
   16MOL    H35 3665   5.222   3.580   2.259  0.3200  1.0533  1.0203
   16MOL    H36 3666   5.244   3.584   2.082  1.0933  3.2362  1.4997
   16MOL    H37 3667   5.385   3.586   2.191 -0.4210  1.6131 -1.3227
   16MOL    C38 3668   5.263   3.126   2.035 -0.7257  0.0313 -0.0587
   16MOL    C39 3669   5.176   3.026   2.116 -0.3626  0.2994  0.0784
   16MOL    C40 3670   5.094   3.092   2.228  0.7703 -0.0052 -0.3940
   16MOL    O41 3671   5.113   3.065   2.345 -0.5222  0.4793  0.6403
   16MOL    O42 3672   5.020   3.189   2.185 -0.1335 -0.3603  0.2898
   16MOL    C43 3673   4.962   3.283   2.281 -0.1611 -0.3085 -0.0564
   16MOL    H44 3674   5.194   3.188   1.979 -1.1362 -0.5811 -0.2412
   16MOL    H45 3675   5.308   3.074   1.950 -1.0687 -1.5041  0.6826
   16MOL    H46 3676   5.256   2.970   2.165  0.4211 -0.0970 -1.5973
   16MOL    H47 3677   4.942   3.233   2.376  1.8002  0.2382  0.6604
   16MOL    H48 3678   4.862   3.313   2.248  0.4729 -0.1911 -1.9495
   16MOL    H49 3679   5.030   3.367   2.288 -0.7913  0.0879  1.3869
   16MOL    C50 3680   5.080   2.943   2.032 -0.0084 -0.5526 -0.2300
   16MOL    C51 3681   5.019   2.824   2.107  0.4913  0.4739 -0.3338
   16MOL    C52 3682   4.902   2.748   2.032  0.1122 -0.7038  0.4376
   16MOL    O53 3683   4.903   2.743   1.909  0.0035  0.3324 -0.5567
   16MOL    O54 3684   4.813   2.684   2.108 -0.6224  0.0066 -0.6110
   16MOL    C55 3685   4.703   2.622   2.048 -0.2644  0.1855 -0.2768
   16MOL    H56 3686   5.004   3.010   1.992 -0.2110 -0.5206  0.2118
   16MOL    H57 3687   5.124   2.904   1.940 -1.7120  0.1030 -1.3528
   16MOL    H58 3688   4.973   2.871   2.194  3.8974 -0.6098  2.1690
   16MOL    H59 3689   4.747   2.535   2.000 -0.0452  0.3794 -0.4305
   16MOL    H60 3690   4.666   2.689   1.971  1.4988  2.1763  0.5536
   16MOL    H61 3691   4.638   2.588   2.128  1.2312 -1.9818  0.0607
   16MOL    C62 3692   5.126   2.725   2.152 -0.0270 -0.3641  0.5551
   16MOL    C63 3693   5.096   2.637   2.279  0.2281  0.2755 -0.3105
   16MOL    C64 3694   5.118   2.488   2.257  0.2029  0.7859  0.0615
   16MOL    O65 3695   5.194   2.445   2.177  0.0645 -0.0015  0.3385
   16MOL    O66 3696   5.048   2.413   2.348 -0.5217  0.3985 -0.0062
   16MOL    C67 3697   5.051   2.267   2.343  0.1022 -0.0428  0.2202
   16MOL    H68 3698   5.147   2.659   2.068 -1.2324  1.2020 -1.0555
   16MOL    H69 3699   5.228   2.763   2.161 -0.3645  0.5394  0.6370
   16MOL    H70 3700   4.992   2.644   2.313 -0.1994 -4.9577 -0.2117
   16MOL    H71 3701   5.054   2.225   2.443  1.1301 -1.9410 -0.5865
   16MOL    H72 3702   5.135   2.229   2.286 -0.3738 -0.6352 -0.0930
   16MOL    H73 3703   4.962   2.229   2.293  0.4256 -0.1695 -0.2670
   16MOL    C74 3704   5.188   2.697   2.393  0.0592  0.3617  0.3434
   16MOL    C75 3705   5.145   2.664   2.539  0.7818  0.4679 -0.4553
   16MOL    C76 3706   5.264   2.627   2.629  0.3612  0.3071  0.2954
   16MOL    O77 3707   5.263   2.535   2.710  0.2350  0.2022  0.2745
   16MOL    O78 3708   5.365   2.703   2.610 -0.5788 -0.2430  0.7211
   16MOL    C79 3709   5.479   2.703   2.696  0.3272 -0.7105 -0.2969
   16MOL    H80 3710   5.294   2.679   2.375 -0.1394  0.0463 -0.5417
   16MOL    H81 3711   5.198   2.805   2.378  2.7200  0.0684 -0.2784
   16MOL    H82 3712   5.087   2.572   2.534 -0.0545  1.0894 -2.4462
   16MOL    H83 3713   5.456   2.643   2.783 -1.7597 -1.4277 -1.2888
   16MOL    H84 3714   5.497   2.806   2.725 -0.2048  0.0943 -2.6526
   16MOL    H85 3715   5.572   2.667   2.651  0.2555 -0.0776 -0.9658
   16MOL    C86 3716   5.076   2.787   2.604  0.2386  1.0528 -0.1437
   16MOL    C87 3717   4.933   2.809   2.545 -0.1649  0.7085 -0.0725
   16MOL    C88 3718   4.838   2.687   2.560  0.0822 -0.2602 -0.2993
   16MOL    O89 3719   4.826   2.604   2.472 -0.9061 -0.0129 -0.8382
   16MOL    O90 3720   4.779   2.678   2.677 -0.3120 -0.1591  0.0305
   16MOL    C91 3721   4.674   2.582   2.694  0.3088  0.1518 -0.4241
   16MOL    H92 3722   5.060   2.757   2.708 -0.6176  1.4008 -0.1683
   16MOL    H93 3723   5.145   2.868   2.580  2.1945 -0.7045 -0.5440
   16MOL    H94 3724   4.939   2.827   2.438  1.1704 -0.0878 -0.1337
   16MOL    H95 3725   4.596   2.585   2.618  1.9744  1.2128 -2.1363
   16MOL    H96 3726   4.634   2.595   2.795  1.1211  0.3741 -0.1276
   16MOL    H97 3727   4.724   2.485   2.689  0.9943  0.5220 -0.8241
   16MOL    C98 3728   4.866   2.939   2.597 -1.0502 -0.4302 -0.3118
   16MOL    C99 3729   4.733   2.983   2.533  0.1732 -0.1267 -0.2801
   16MOL   C100 3730   4.701   3.124   2.585 -0.0617  0.3582 -0.2698
   16MOL   O101 3731   4.753   3.227   2.537 -0.0747  0.2415 -0.1017
   16MOL   O102 3732   4.610   3.126   2.678 -0.4569 -0.2330 -0.4731
   16MOL   C103 3733   4.546   3.243   2.715 -0.0690 -0.2366 -0.7475
   16MOL   H104 3734   4.841   2.920   2.702  2.0958 -3.2584 -0.0029
   16MOL   H105 3735   4.933   3.024   2.607 -1.6913 -0.0703  1.0888
   16MOL   H106 3736   4.649   2.921   2.565  0.1114  1.1445  2.1622
   16MOL   H107 3737   4.624   3.316   2.732 -0.0511 -0.6597  1.0350
   16MOL   H108 3738   4.480   3.230   2.801  1.2522 -1.9802  0.0296
   16MOL   H109 3739   4.492   3.295   2.635  1.8041  2.7100 -0.1869
   16MOL   C110 3740   4.743   2.982   2.372  0.1942  0.1187 -0.4633
   16MOL   C111 3741   4.623   3.056   2.299  0.1681  0.3139 -0.2841
   16MOL   C112 3742   4.666   3.083   2.152  0.0041 -0.5866 -0.0270
   16MOL   O113 3743   4.683   3.198   2.115 -0.7706 -0.0927 -0.0287
   16MOL   O114 3744   4.655   2.980   2.069 -0.5758  0.3574  0.5678
   16MOL   C115 3745   4.649   2.995   1.927 -0.0350  0.8054  0.6960
   16MOL   H116 3746   4.828   3.037   2.333  1.4958 -1.8460 -0.4878
   16MOL   H117 3747   4.747   2.879   2.337  0.2489  0.1188 -0.4571
   16MOL   H118 3748   4.624   3.159   2.335  2.5011 -0.5666  2.3879
   16MOL   H119 3749   4.696   3.088   1.896  0.7136  0.8312  1.9015
   16MOL   H120 3750   4.543   3.004   1.901  0.1860  1.9370  0.1911
   16MOL   H121 3751   4.696   2.910   1.878  1.4386  0.8814  1.9460
   16MOL   C122 3752   4.488   2.983   2.308 -0.1786 -0.3672 -0.5643
   16MOL   C123 3753   4.369   3.079   2.285  0.0020  0.3477 -0.2786
   16MOL   C124 3754   4.244   2.990   2.257  0.2932  0.2621  0.3256
   16MOL   O125 3755   4.161   3.014   2.166 -0.7796 -0.7286 -0.2421
   16MOL   O126 3756   4.235   2.886   2.348 -0.2812 -0.2563  0.3785
   16MOL   C127 3757   4.108   2.817   2.360 -0.5197 -0.3667 -0.1623
   16MOL   H128 3758   4.486   2.897   2.241 -1.7183  0.7604 -2.0125
   16MOL   H129 3759   4.478   2.929   2.402 -0.5335 -0.2047 -0.5095
   16MOL   H130 3760   4.387   3.139   2.196  1.0936  1.1380  0.4677
   16MOL   H131 3761   4.106   2.776   2.461  2.1256  1.4706  0.6865
   16MOL   H132 3762   4.106   2.733   2.290  1.7065 -0.4980 -0.1090
   16MOL   H133 3763   4.025   2.887   2.356  0.9422  1.4122 -0.2518
   16MOL   C134 3764   4.351   3.188   2.397  0.0466  0.3656  0.9322
   16MOL   C135 3765   4.234   3.284   2.370  0.0799  0.0728  0.7550
   16MOL   C136 3766   4.175   3.344   2.498 -0.5487  0.7481  0.3885
   16MOL   O137 3767   4.065   3.316   2.543 -0.2620 -0.2650  0.3606
   16MOL   O138 3768   4.263   3.433   2.555 -0.4102 -0.5770 -0.3693
   16MOL   C139 3769   4.222   3.500   2.672  0.9574 -0.5247 -0.1393
   16MOL   H140 3770   4.341   3.131   2.489 -3.6261  0.0613  0.3935
   16MOL   H141 3771   4.440   3.248   2.415 -0.2820  1.2578 -0.3595
   16MOL   H142 3772   4.153   3.224   2.329 -0.9699  2.4934 -0.8677
   16MOL   H143 3773   4.317   3.522   2.720 -0.3649  0.9965  1.8688
   16MOL   H144 3774   4.149   3.457   2.740 -0.5077 -0.8280 -1.8528
   16MOL   H145 3775   4.188   3.596   2.631  0.3350 -0.7995 -0.2739
   16MOL   C146 3776   4.260   3.396   2.262  0.4881  0.3027  0.0223
   16MOL   C147 3777   4.132   3.479   2.226 -0.4780 -0.8444  0.7350
   16MOL   C148 3778   4.172   3.611   2.161  0.6623 -0.2435  0.7608
   16MOL   O149 3779   4.150   3.718   2.215 -0.2330 -0.1290 -0.1398
   16MOL   O150 3780   4.221   3.595   2.038 -0.3591  0.4191 -1.0634
   16MOL   C151 3781   4.246   3.714   1.963 -0.8447 -0.0885 -0.3481
   16MOL   H152 3782   4.333   3.462   2.308 -1.6258  1.4347  1.8840
   16MOL   H153 3783   4.308   3.352   2.175 -0.2771 -0.7147  0.1038
   16MOL   H154 3784   4.092   3.504   2.324 -0.9601  0.6462  0.1804
   16MOL   H155 3785   4.159   3.778   1.948 -1.2892 -0.6669 -0.2167
   16MOL   H156 3786   4.287   3.686   1.866  1.2916  0.6035  0.3227
   16MOL   H157 3787   4.324   3.771   2.014 -0.3232 -1.5959  0.5709
   16MOL   C158 3788   4.034   3.392   2.138 -0.9391 -0.8954  0.5822
   16MOL   C159 3789   3.893   3.453   2.114  0.3434 -0.4644  0.1721
   16MOL   C160 3790   3.855   3.482   1.970  0.3951 -0.1831 -0.5417
   16MOL   O161 3791   3.777   3.402   1.911  0.1315  0.1523 -0.6010
   16MOL   O162 3792   3.927   3.585   1.909  0.0338  0.6221 -0.3357
   16MOL   C163 3793   3.944   3.592   1.772  0.3881  0.9149 -0.1606
   16MOL   H164 3794   4.085   3.371   2.044 -3.1616  4.7672 -2.1165
   16MOL   H165 3795   4.027   3.294   2.186  0.7043 -1.3290 -0.0331
   16MOL   H166 3796   3.913   3.554   2.148 -1.2618  0.1886 -0.7594
   16MOL   H167 3797   3.964   3.493   1.729 -1.3104 -0.1429  1.4494
   16MOL   H168 3798   4.033   3.655   1.762  0.9629  0.2901  0.8925
   16MOL   H169 3799   3.862   3.634   1.713 -1.7788 -1.7796  0.8296
   16MOL   C170 3800   3.777   3.385   2.197  0.8682 -0.1808 -0.5087
   16MOL   C171 3801   3.759   3.403   2.353 -0.4819 -0.0696  0.1903
   16MOL   C172 3802   3.768   3.551   2.395 -0.4428  0.2518  0.3168
   16MOL   O173 3803   3.691   3.632   2.342  0.0222  0.5078  0.3714
   16MOL   O174 3804   3.866   3.573   2.474  0.5857 -0.5921 -0.2031
   16MOL   C175 3805   3.910   3.705   2.509  0.3822  0.1522 -0.2157
   16MOL   H176 3806   3.689   3.439   2.161  1.1196  0.6449  0.0984
   16MOL   H177 3807   3.761   3.281   2.169 -0.0901 -0.3482  0.6035
   16MOL   H178 3808   3.847   3.359   2.400  0.5544  1.1278 -0.5866
   16MOL   H179 3809   3.978   3.740   2.432 -0.2521  0.2182 -0.7530
   16MOL   H180 3810   3.976   3.705   2.596 -0.9018  0.2055  0.7716
   16MOL   H181 3811   3.830   3.779   2.513  0.8648  0.6540  0.2192
   16MOL   C182 3812   3.628   3.344   2.408  0.2813  0.0073 -0.6208
   16MOL   C183 3813   3.615   3.186   2.406  0.4663  0.1828 -0.5365
   16MOL   C184 3814   3.699   3.107   2.508 -0.9735  0.2566 -0.0926
   16MOL   O185 3815   3.650   3.068   2.615  0.9933  0.3552 -0.1290
   16MOL   O186 3816   3.829   3.095   2.481  0.4131 -0.0074 -0.1734
   16MOL   C187 3817   3.922   3.029   2.564  0.0375  0.0751  0.1400
   16MOL   H188 3818   3.641   3.360   2.515  1.5327 -1.2558 -0.5667
   16MOL   H189 3819   3.541   3.403   2.379  1.0933  1.5499 -0.0275
   16MOL   H190 3820   3.642   3.160   2.304 -0.4874 -0.7649 -0.5592
   16MOL   H191 3821   3.897   3.004   2.667  3.1348 -0.6157  0.7820
   16MOL   H192 3822   4.011   3.092   2.563  0.1953 -0.1251 -1.8117
   16MOL   H193 3823   3.942   2.927   2.528 -2.5330 -1.3188  2.4647
   16MOL   C194 3824   3.463   3.136   2.425  0.5706  0.2929  0.1907
   16MOL   C195 3825   3.358   3.164   2.310 -0.0751 -0.0037 -0.1745
   16MOL   C196 3826   3.421   3.170   2.173  0.0299  0.6581 -0.0159
   16MOL   O197 3827   3.405   3.268   2.093 -0.6419 -0.4346  0.5569
   16MOL   O198 3828   3.484   3.057   2.141 -0.4385  0.4692 -0.1679
   16MOL   C199 3829   3.546   3.039   2.016  0.0813 -0.0113  0.0032
   16MOL   H200 3830   3.476   3.028   2.431 -0.8099  0.1227  0.3290
   16MOL   H201 3831   3.418   3.147   2.524  1.6172 -0.4366  0.7618
   16MOL   H202 3832   3.315   3.263   2.326  0.5484  0.3594 -0.7149
   16MOL   H203 3833   3.470   3.038   1.938 -0.5523  2.9138  0.5241
   16MOL   H204 3834   3.599   2.944   2.028 -0.6990 -0.5558 -0.7999
   16MOL   H205 3835   3.616   3.121   1.999  0.1881  0.0061  0.5136
   16MOL   C206 3836   3.243   3.055   2.323 -0.5801  0.1009 -0.3687
   16MOL   C207 3837   3.122   3.063   2.228  0.3032 -0.0198 -0.5995
   16MOL   C208 3838   3.098   2.946   2.131  0.5791  0.4744  0.1496
   16MOL   O209 3839   3.140   2.949   2.017 -0.1430  0.0209 -0.0988
   16MOL   O210 3840   3.040   2.840   2.177 -0.0420  0.2983 -0.0344
   16MOL   C211 3841   3.043   2.715   2.099  0.1457 -0.7470 -0.1727
   16MOL   H212 3842   3.290   2.957   2.319  0.2652  0.4312  1.2138
   16MOL   H213 3843   3.213   3.071   2.426  0.2903  2.4544 -0.4340
   16MOL   H214 3844   3.142   3.144   2.157  0.4698  1.7382  1.3837
   16MOL   H215 3845   2.968   2.704   2.021 -2.1922  1.8689  1.5780
   16MOL   H216 3846   3.016   2.634   2.166 -2.0889  0.2337  0.1629
   16MOL   H217 3847   3.147   2.696   2.071  0.2354  1.0700 -1.1616
   16MOL   C218 3848   2.991   3.101   2.306  0.0170 -0.1505  0.1659
   16MOL   C219 3849   2.985   3.250   2.351 -0.5745 -1.1358  1.0510
   16MOL   C220 3850   3.008   3.342   2.230 -0.4469 -0.0028  0.1484
   16MOL   O221 3851   2.974   3.310   2.119 -0.4216 -0.4055 -0.4559
   16MOL   O222 3852   3.066   3.473   2.259  0.0719  1.0232 -0.2037
   16MOL   C223 3853   3.091   3.560   2.148  0.1524 -0.4081  0.7769
   16MOL   H224 3854   2.909   3.078   2.239 -1.0572 -0.3029  1.5151
   16MOL   H225 3855   2.976   3.033   2.390 -0.7058 -2.1830 -1.5731
   16MOL   H226 3856   3.070   3.279   2.413  0.2983  1.7644 -1.4066
   16MOL   H227 3857   3.157   3.507   2.079  1.8756  1.0653  1.2611
   16MOL   H228 3858   3.139   3.654   2.174 -1.1078 -0.1195  2.1306
   16MOL   H229 3859   3.001   3.581   2.091 -0.8883 -1.8865  1.8193
   16MOL   C230 3860   2.857   3.301   2.436  0.6997  0.2042  0.1738
   16MOL   C231 3861   2.715   3.259   2.385 -0.3610  0.0757  0.3387
   16MOL   C232 3862   2.640   3.368   2.303 -0.5958 -0.8961  0.1185
   16MOL   O233 3863   2.692   3.474   2.263 -0.4737  0.3686 -0.2452
   16MOL   O234 3864   2.518   3.328   2.279 -0.0151 -0.3750 -0.0803
   16MOL   C235 3865   2.440   3.401   2.182  0.8146  0.1770  0.3683
   16MOL   H236 3866   2.863   3.267   2.539  0.3062 -1.7848 -0.4435
   16MOL   H237 3867   2.872   3.409   2.438 -1.3902  0.5173 -0.0851
   16MOL   H238 3868   2.647   3.241   2.468  1.7460 -1.9936  1.6617
   16MOL   H239 3869   2.480   3.380   2.083 -1.5554 -2.1941 -0.1587
   16MOL   H240 3870   2.437   3.508   2.202 -0.1351  0.0239  1.0918
   16MOL   H241 3871   2.338   3.365   2.174  0.8890 -0.6526  2.5846
   16MOL   H242 3872   2.718   3.159   2.341 -0.7811  0.5403 -0.7766
   17MOL     C1 3873   6.470   7.787   1.598 -0.3596 -1.6507  0.2893
   17MOL     C2 3874   6.540   7.780   1.735  0.8187  0.5033 -0.6470
   17MOL     C3 3875   6.451   7.840   1.844 -1.1443 -0.2265  0.5563
   17MOL     O4 3876   6.423   7.778   1.943  0.0427  0.0016 -0.7184
   17MOL     O5 3877   6.414   0.029   1.825 -0.6043  0.1894 -0.3860
   17MOL     C6 3878   6.322   0.091   1.916  0.0338 -0.0964  0.6191
   17MOL     H7 3879   6.448   7.894   1.590 -1.6933 -2.0175 -1.3954
   17MOL     H8 3880   6.380   7.726   1.594 -1.4217 -0.1552  1.2895
   17MOL     H9 3881   6.642   7.817   1.741  0.6064  0.7334  3.0200
   17MOL    H10 3882   6.276   0.180   1.873  3.1042  1.2063 -0.1139
   17MOL    H11 3883   6.376   0.142   1.997 -1.1118  1.3262  0.5218
   17MOL    H12 3884   6.249   0.020   1.954  0.2254 -1.0053 -0.7069
   17MOL    H13 3885   6.537   7.758   1.517  1.0767 -0.6362  1.0965
   17MOL    C14 3886   6.572   7.635   1.757 -0.3075  0.2458 -0.6375
   17MOL    C15 3887   6.664   7.586   1.870 -0.5916  0.0448 -0.2518
   17MOL    C16 3888   6.642   7.443   1.924  0.1900 -0.3155 -0.4989
   17MOL    O17 3889   6.571   7.359   1.866 -0.2795  0.1314  0.2969
   17MOL    O18 3890   6.712   7.421   2.040  0.2553  0.0774  0.3852
   17MOL    C19 3891   6.709   7.298   2.107  0.4679  0.1685  0.4476
   17MOL    H20 3892   6.477   7.582   1.769 -0.7876  1.1106 -0.5169
   17MOL    H21 3893   6.600   7.606   1.656 -1.1754  2.7299 -1.6485
   17MOL    H22 3894   6.641   7.653   1.953 -1.9987 -0.3608 -0.2973
   17MOL    H23 3895   6.727   7.306   2.215  1.6662  1.4612  0.1661
   17MOL    H24 3896   6.793   7.239   2.071 -0.2056 -0.2808 -0.3929
   17MOL    H25 3897   6.611   7.253   2.094  0.6710 -0.6218  1.6119
   17MOL    C26 3898   6.816   7.616   1.839 -0.7702 -0.3898  0.3947
   17MOL    C27 3899   6.884   7.502   1.748  0.5777  0.3765 -0.3599
   17MOL    C28 3900   6.823   7.482   1.611  0.1606 -0.0891 -0.7578
   17MOL    O29 3901   6.770   7.373   1.590 -0.1981 -0.0059 -0.0830
   17MOL    O30 3902   6.815   7.585   1.529 -0.8870 -0.2470  0.3860
   17MOL    C31 3903   6.773   7.564   1.397 -0.5388 -0.4215 -0.0062
   17MOL    H32 3904   6.824   7.715   1.795  1.2401  0.2298  2.0972
   17MOL    H33 3905   6.863   7.635   1.935 -1.7192 -0.5294  0.8927
   17MOL    H34 3906   6.878   7.405   1.799 -1.5758  0.1233 -1.0525
   17MOL    H35 3907   6.743   7.661   1.357 -0.4803  0.7537  2.7233
   17MOL    H36 3908   6.687   7.498   1.391 -0.4639 -0.4634 -0.7002
   17MOL    H37 3909   6.855   7.511   1.346  1.3228  1.0301  1.4098
   17MOL    C38 3910   7.030   7.547   1.730  0.5162  0.6441 -0.5897
   17MOL    C39 3911   7.117   7.466   1.632  0.3163  0.0010  0.4724
   17MOL    C40 3912   7.134   7.544   1.497 -0.5361 -0.4894 -0.5294
   17MOL    O41 3913   7.166   7.665   1.501 -0.2475 -0.1334 -0.0143
   17MOL    O42 3914   7.099   7.471   1.393  1.0442  0.2178 -0.4031
   17MOL    C43 3915   7.114   7.517   1.266 -0.4790 -0.1939  0.9567
   17MOL    H44 3916   7.028   7.651   1.697  1.9500  0.9594  0.2848
   17MOL    H45 3917   7.086   7.541   1.823  0.1915  0.5838 -0.3987
   17MOL    H46 3918   7.063   7.375   1.609  1.1956 -0.6716  1.0210
   17MOL    H47 3919   7.128   7.431   1.200  3.0817  1.4537 -0.5864
   17MOL    H48 3920   7.204   7.578   1.255 -1.2494  0.7511 -0.1633
   17MOL    H49 3921   7.029   7.578   1.236 -0.4352  0.6017  2.4228
   17MOL    C50 3922   7.258   7.427   1.676  0.5108  0.1409  0.1499
   17MOL    C51 3923   7.323   7.308   1.599 -0.0722  0.0689  0.1987
   17MOL    C52 3924   7.465   7.335   1.552 -0.2702 -0.8281 -0.4221
   17MOL    O53 3925   7.495   7.351   1.432 -0.1916 -0.0764 -0.2505
   17MOL    O54 3926   7.551   7.339   1.653 -0.7348 -0.3056  0.4818
   17MOL    C55 3927   7.683   7.384   1.630 -0.1349  0.6340  0.1254
   17MOL    H56 3928   7.326   7.511   1.665  0.9512 -0.3743 -1.1359
   17MOL    H57 3929   7.255   7.415   1.784  2.9952  0.4004  0.2893
   17MOL    H58 3930   7.252   7.288   1.518 -1.4796 -2.5173  2.0049
   17MOL    H59 3931   7.674   7.493   1.623 -1.5204  0.6820  2.1322
   17MOL    H60 3932   7.721   7.336   1.540 -0.6646 -1.9782  1.2686
   17MOL    H61 3933   7.751   7.346   1.707 -0.5403 -0.7879 -0.2067
   17MOL    C62 3934   7.312   7.177   1.685  0.2499  0.2524  0.7867
   17MOL    C63 3935   7.193   7.083   1.660  0.1214 -0.0536 -0.3173
   17MOL    C64 3936   7.206   6.994   1.528  0.3318 -0.1769 -0.0152
   17MOL    O65 3937   7.194   6.871   1.533 -0.4360 -0.0973 -0.0831
   17MOL    O66 3938   7.228   7.073   1.411  0.8228 -0.0288  0.0692
   17MOL    C67 3939   7.248   7.001   1.287  0.6795  0.3975 -0.3288
   17MOL    H68 3940   7.402   7.117   1.671 -0.5702 -0.2210 -3.2477
   17MOL    H69 3941   7.311   7.206   1.790  0.6065  3.5664 -0.0727
   17MOL    H70 3942   7.104   7.143   1.640  0.8845  0.9785 -0.6609
   17MOL    H71 3943   7.231   7.065   1.201  1.5758 -0.6022 -1.2670
   17MOL    H72 3944   7.189   6.910   1.279 -0.9433  1.4660 -0.5732
   17MOL    H73 3945   7.349   6.960   1.279 -0.0367 -1.3721 -0.6105
   17MOL    C74 3946   7.187   7.000   1.794 -0.7151 -0.2953  0.4109
   17MOL    C75 3947   7.079   7.059   1.886  0.1714 -0.4827 -0.1927
   17MOL    C76 3948   6.941   7.007   1.847  0.0370 -0.3407  0.0387
   17MOL    O77 3949   6.878   6.926   1.911 -0.2733 -0.0990 -0.4150
   17MOL    O78 3950   6.899   7.059   1.732  0.5444  0.0579 -0.1990
   17MOL    C79 3951   6.759   7.069   1.704  0.0186  0.7838  0.1767
   17MOL    H80 3952   7.163   6.896   1.773 -0.0526 -0.1736 -1.0278
   17MOL    H81 3953   7.289   6.989   1.831  0.0969  2.2061 -0.9015
   17MOL    H82 3954   7.059   7.163   1.860 -1.7442 -0.8852 -0.4275
   17MOL    H83 3955   6.747   7.115   1.606  0.7566  0.6534  0.0271
   17MOL    H84 3956   6.697   7.117   1.779  0.3246  1.0672  0.2477
   17MOL    H85 3957   6.703   6.979   1.676  1.6968  0.5743 -2.7759
   17MOL    C86 3958   7.097   7.044   2.036 -0.0531  0.1835  0.5080
   17MOL    C87 3959   7.207   7.138   2.110 -1.3853  1.1138 -0.5811
   17MOL    C88 3960   7.177   7.284   2.097  0.4592 -0.5827 -0.5907
   17MOL    O89 3961   7.240   7.363   2.026  0.2934  0.0586  0.4204
   17MOL    O90 3962   7.058   7.317   2.158 -0.1966 -0.1570  0.3707
   17MOL    C91 3963   7.013   7.449   2.167 -0.1265 -1.3700 -0.5859
   17MOL    H92 3964   7.006   7.054   2.095 -1.2430  1.0433 -1.4385
   17MOL    H93 3965   7.112   6.939   2.063  0.2539  0.3287  0.9082
   17MOL    H94 3966   7.294   7.130   2.046 -0.3921  1.0971  0.7595
   17MOL    H95 3967   7.096   7.519   2.179  0.9342 -2.6298 -0.5243
   17MOL    H96 3968   6.941   7.446   2.249 -0.0109 -0.8857 -0.4632
   17MOL    H97 3969   6.963   7.471   2.073  2.4202 -0.1453 -1.7003
   17MOL    C98 3970   7.229   7.082   2.254  0.6278 -0.5561 -0.3047
   17MOL    C99 3971   7.334   7.161   2.329  0.0937 -0.4994  0.8386
   17MOL   C100 3972   7.288   7.178   2.476  0.5767 -0.5555 -0.1050
   17MOL   O101 3973   7.213   7.273   2.507  0.1846  0.0187 -0.1257
   17MOL   O102 3974   7.309   7.070   2.551 -0.3375 -0.6219  0.1299
   17MOL   C103 3975   7.271   7.064   2.686 -0.3365 -0.3764 -0.6880
   17MOL   H104 3976   7.130   7.088   2.299  0.7360  2.4698 -0.3659
   17MOL   H105 3977   7.250   6.976   2.264  1.7146 -0.1963  1.3180
   17MOL   H106 3978   7.338   7.265   2.294  1.2334 -1.0516 -0.7151
   17MOL   H107 3979   7.165   7.037   2.697 -0.0369 -1.2332  0.1603
   17MOL   H108 3980   7.290   7.157   2.739 -0.5670 -0.8387  0.2165
   17MOL   H109 3981   7.333   6.986   2.731  1.0984 -0.9391 -3.5635
   17MOL   C110 3982   7.473   7.103   2.310  0.4031 -0.0362  0.2749
   17MOL   C111 3983   7.596   7.205   2.327  0.0775 -0.4018  0.3401
   17MOL   C112 3984   7.630   7.272   2.195 -0.4764  0.4502  0.2594
   17MOL   O113 3985   7.743   7.263   2.144  0.3457 -0.3977  0.0055
   17MOL   O114 3986   7.533   7.351   2.144 -0.2265 -0.7127  0.1447
   17MOL   C115 3987   7.559   7.415   2.020 -0.5312  1.1036  0.2919
   17MOL   H116 3988   7.490   7.020   2.378  0.2866  1.7713  2.5968
   17MOL   H117 3989   7.478   7.051   2.215 -1.4476  2.7287 -1.4016
   17MOL   H118 3990   7.689   7.148   2.330  1.5919  2.0239  0.4072
   17MOL   H119 3991   7.657   7.452   1.991  0.1528  0.9713  2.3736
   17MOL   H120 3992   7.499   7.506   2.027 -1.3975  0.6969 -1.5206
   17MOL   H121 3993   7.527   7.363   1.930  3.1691  1.8306 -1.5303
   17MOL   C122 3994   7.585   7.294   2.453  0.3677  0.1481  0.4249
   17MOL   C123 3995   7.722   7.350   2.494  0.0766 -0.3713  0.1623
   17MOL   C124 3996   7.713   7.488   2.565 -0.0338  0.4490  0.2149
   17MOL   O125 3997   7.713   7.601   2.508  0.2162 -0.3406  0.4847
   17MOL   O126 3998   7.698   7.474   2.696  0.1802  0.0657  0.3430
   17MOL   C127 3999   7.673   7.584   2.779 -0.2747  0.0263 -0.4524
   17MOL   H128 4000   7.515   7.374   2.430  2.8576  1.6557 -2.1926
   17MOL   H129 4001   7.546   7.231   2.533  0.1988  0.1927  0.3769
   17MOL   H130 4002   7.778   7.389   2.409  0.1534  0.6296  0.6651
   17MOL   H131 4003   7.676   7.680   2.726  0.8108 -1.5531 -3.3969
   17MOL   H132 4004   7.762   7.595   2.841 -0.4852  0.4708 -0.2302
   17MOL   H133 4005   7.585   7.560   2.838  2.0368 -1.5901  2.4917
   17MOL   C134 4006   7.813   7.248   2.560 -0.3006 -0.2970  0.5748
   17MOL   C135 4007   0.018   7.303   2.612  0.0716 -0.5293  0.0616
   17MOL   C136 4008   0.024   7.250   2.751 -0.6893  0.6363  0.0414
   17MOL   O137 4009   7.922   7.314   2.853 -0.1270  0.1095  0.2429
   17MOL   O138 4010   0.059   7.120   2.757  0.1312  0.3205 -0.3324
   17MOL   C139 4011   0.077   7.055   2.882 -0.1656 -0.4408 -0.3011
   17MOL   H140 4012   7.761   7.207   2.646  1.1396  0.4419  1.8151
   17MOL   H141 4013   7.842   7.159   2.504 -2.2331 -1.7528  1.8131
   17MOL   H142 4014   0.011   7.412   2.613 -0.7159 -0.5780  0.8275
   17MOL   H143 4015   0.130   6.961   2.869 -2.0213 -1.3961 -1.0872
   17MOL   H144 4016   7.912   7.019   2.912  0.6709 -2.2961  0.2580
   17MOL   H145 4017   0.122   7.113   2.963 -0.8228  1.7179 -1.4410
   17MOL   C146 4018   0.132   7.258   2.516  0.1767  0.7575  0.5181
   17MOL   C147 4019   0.139   7.294   2.364  0.4040 -0.0504 -0.3953
   17MOL   C148 4020   0.099   7.441   2.334  0.1664  0.3323  1.1076
   17MOL   O149 4021   0.096   7.524   2.421  0.2475 -0.0722  0.2973
   17MOL   O150 4022   0.073   7.466   2.207 -0.5544 -0.0951 -0.7003
   17MOL   C151 4023   0.015   7.597   2.182  0.0886  1.0873 -0.2647
   17MOL   H152 4024   0.217   7.301   2.568 -0.6621  2.7610  0.3017
   17MOL   H153 4025   0.147   7.151   2.525 -1.6450  0.2708 -1.7248
   17MOL   H154 4026   0.073   7.233   2.303 -0.0080 -2.7278  2.6049
   17MOL   H155 4027   0.068   7.683   2.222 -0.4269  0.7999  1.0660
   17MOL   H156 4028   7.844   7.592   2.216  0.2764  0.4323  0.2291
   17MOL   H157 4029   0.016   7.598   2.073  1.5580  0.4934 -0.2694
   17MOL   C158 4030   0.273   7.247   2.294  0.0626  0.0088 -0.2019
   17MOL   C159 4031   0.404   7.318   2.328  0.0760  0.5896  0.3087
   17MOL   C160 4032   0.497   7.224   2.414  0.0916 -0.1703 -0.1800
   17MOL   O161 4033   0.609   7.191   2.376  0.3112 -0.2987  0.5990
   17MOL   O162 4034   0.440   7.176   2.529  0.1465  0.6117  0.2544
   17MOL   C163 4035   0.528   7.095   2.607  0.6341 -0.3973  0.3037
   17MOL   H164 4036   0.273   7.143   2.325 -0.6565 -0.0177 -0.2676
   17MOL   H165 4037   0.245   7.242   2.189 -1.0236  1.9397 -0.0362
   17MOL   H166 4038   0.379   7.400   2.394 -2.0696 -1.1796  1.7530
   17MOL   H167 4039   0.634   7.115   2.593  0.5167 -0.0948 -0.1636
   17MOL   H168 4040   0.497   6.993   2.582 -1.9262  0.4534 -0.1605
   17MOL   H169 4041   0.499   7.101   2.712  1.7998  2.8403  0.4942
   17MOL   C170 4042   0.481   7.361   2.204 -0.0710 -0.4516  0.1060
   17MOL   C171 4043   0.393   7.467   2.116 -0.0072  0.6879  0.5516
   17MOL   C172 4044   0.395   7.601   2.186 -0.2572 -0.2918 -0.2532
   17MOL   O173 4045   0.469   7.616   2.284  0.2983  0.0748 -0.0163
   17MOL   O174 4046   0.317   7.700   2.128  0.6377 -0.2247  0.0352
   17MOL   C175 4047   0.293   7.823   2.198 -0.0775 -0.4094 -0.6409
   17MOL   H176 4048   0.577   7.406   2.226  0.1302 -1.1766  0.7182
   17MOL   H177 4049   0.494   7.265   2.155 -3.2186 -1.1909  0.5806
   17MOL   H178 4050   0.288   7.437   2.119  0.2805 -0.8196 -2.2097
   17MOL   H179 4051   0.290   7.808   2.306  2.5487  0.9260 -0.3347
   17MOL   H180 4052   0.191   7.857   2.179 -0.9248 -1.8726  1.0552
   17MOL   H181 4053   0.368   7.897   2.172  1.4433 -1.8087 -0.3459
   17MOL   C182 4054   0.447   7.480   1.969 -0.3783  0.5131 -0.0776
   17MOL   C183 4055   0.456   7.346   1.894  0.3334  0.2931 -0.3871
   17MOL   C184 4056   0.332   7.255   1.902 -0.2374  0.2226  0.5903
   17MOL   O185 4057   0.349   7.134   1.918  0.2682 -0.0488 -0.2855
   17MOL   O186 4058   0.228   7.329   1.881  0.1909  0.0082 -0.8358
   17MOL   C187 4059   0.102   7.267   1.889  0.4446  0.7565 -0.3141
   17MOL   H188 4060   0.381   7.540   1.907  0.3055  2.2497  0.8423
   17MOL   H189 4061   0.543   7.532   1.968 -1.1069  1.8599 -0.7807
   17MOL   H190 4062   0.522   7.272   1.939  0.3885  0.8669  0.4881
   17MOL   H191 4063   0.104   7.175   1.949  1.7037  0.7727 -0.3189
   17MOL   H192 4064   0.072   7.217   1.797  2.0355 -1.5203  0.3524
   17MOL   H193 4065   0.020   7.330   1.925  0.1280  0.1789 -0.0068
   17MOL   C194 4066   0.515   7.375   1.755  0.3519 -0.4172  0.4359
   17MOL   C195 4067   0.561   7.248   1.681  0.6386  0.0364 -0.2613
   17MOL   C196 4068   0.591   7.278   1.535  0.2048  0.7565 -0.3886
   17MOL   O197 4069   0.614   7.391   1.494  1.2216 -1.0468  0.4565
   17MOL   O198 4070   0.596   7.167   1.462  0.0381  0.4367 -0.2172
   17MOL   C199 4071   0.632   7.177   1.330 -0.1192 -0.0536  0.7206
   17MOL   H200 4072   0.439   7.424   1.695  0.7798  1.0654  1.0696
   17MOL   H201 4073   0.594   7.450   1.753 -1.5202  1.6092  0.5751
   17MOL   H202 4074   0.477   7.179   1.675 -0.1566  0.8692  1.0456
   17MOL   H203 4075   0.583   7.263   1.286  2.4068  0.7037 -0.7187
   17MOL   H204 4076   0.612   7.084   1.277  3.7015 -0.8416  0.4689
   17MOL   H205 4077   0.739   7.198   1.321 -0.1532  0.3860  1.3164
   17MOL   C206 4078   0.686   7.171   1.753 -0.3672  0.3275 -0.0712
   17MOL   C207 4079   0.806   7.261   1.790 -1.2084  0.1776  0.7273
   17MOL   C208 4080   0.820   7.279   1.941  0.2792 -0.5168 -0.0410
   17MOL   O209 4081   0.793   7.390   1.989 -0.1099  0.3272 -0.1049
   17MOL   O210 4082   0.850   7.157   2.008  0.2662 -0.0267 -0.0709
   17MOL   C211 4083   0.851   7.148   2.150 -0.0445  0.0034  0.1950
   17MOL   H212 4084   0.659   7.100   1.831  0.5174  0.0207 -0.0399
   17MOL   H213 4085   0.717   7.103   1.675  2.6269 -1.8297  2.8589
   17MOL   H214 4086   0.778   7.362   1.760  0.4938  0.8400  1.2824
   17MOL   H215 4087   0.766   7.203   2.189 -1.8835 -1.7789 -1.2481
   17MOL   H216 4088   0.942   7.183   2.200  0.4685  1.7266 -1.8761
   17MOL   H217 4089   0.844   7.042   2.174  0.5877  0.5473  2.9484
   17MOL   C218 4090   0.934   7.227   1.714 -0.2635 -0.4860 -0.1567
   17MOL   C219 4091   1.041   7.339   1.715 -0.6453 -0.7192  0.3770
   17MOL   C220 4092   1.181   7.282   1.679 -0.2962  0.3124 -0.6642
   17MOL   O221 4093   1.208   7.164   1.659  0.1773 -0.2449  0.0501
   17MOL   O222 4094   1.279   7.372   1.691 -0.1038 -0.0617  0.6444
   17MOL   C223 4095   1.407   7.335   1.649 -0.5548  0.0223  0.0072
   17MOL   H224 4096   0.974   7.142   1.771  0.5047 -1.3835 -2.0000
   17MOL   H225 4097   0.911   7.190   1.614 -1.5558  0.3895 -0.2007
   17MOL   H226 4098   1.043   7.389   1.812 -0.6763 -1.0020  0.5224
   17MOL   H227 4099   1.410   7.305   1.544  0.9713 -0.3071  0.1355
   17MOL   H228 4100   1.456   7.263   1.714 -1.0058  1.1721  1.6555
   17MOL   H229 4101   1.465   7.427   1.654  0.6647 -0.6489 -1.4309
   17MOL   C230 4102   1.005   7.442   1.602 -0.3532  0.2664  0.1982
   17MOL   C231 4103   1.050   7.590   1.620 -0.5036  0.1438  0.5199
   17MOL   C232 4104   0.954   7.660   1.710  0.1484  0.1962  0.1881
   17MOL   O233 4105   0.862   7.737   1.667  0.4473  1.0802 -0.3587
   17MOL   O234 4106   0.977   7.628   1.836 -0.1645  0.5161 -0.0164
   17MOL   C235 4107   0.888   7.679   1.931  0.1928 -0.0207  0.3928
   17MOL   H236 4108   1.054   7.407   1.511 -1.1168 -0.5155  0.0741
   17MOL   H237 4109   0.899   7.437   1.578  0.0702 -2.2048 -1.3271
   17MOL   H238 4110   1.053   7.643   1.526 -0.2227  0.6128  0.7931
   17MOL   H239 4111   0.785   7.644   1.937 -0.3147  1.1861 -0.9429
   17MOL   H240 4112   0.884   7.787   1.942  0.8815  0.0135  0.3075
   17MOL   H241 4113   0.928   7.646   2.027  0.8155 -1.6065 -0.3835
   17MOL   H242 4114   1.147   7.606   1.667  0.2759 -1.7218 -0.3944
   18MOL     C1 4115   2.722   5.280   6.339 -0.1602 -0.1351  0.2169
   18MOL     C2 4116   2.796   5.191   6.236  0.2487 -1.1672  0.1042
   18MOL     C3 4117   2.839   5.267   6.113 -0.2383 -0.3166 -0.1030
   18MOL     O4 4118   2.770   5.264   6.011 -0.2024 -0.0374 -0.2542
   18MOL     O5 4119   2.941   5.351   6.138 -0.2777 -0.2953 -0.4461
   18MOL     C6 4120   2.954   5.460   6.047 -0.0632 -0.1201  0.6001
   18MOL     H7 4121   2.790   5.358   6.374 -1.6634  0.4820  1.8371
   18MOL     H8 4122   2.699   5.225   6.431 -0.8381 -0.9679 -0.4419
   18MOL     H9 4123   2.714   5.128   6.202 -0.5433  1.3114 -2.7620
   18MOL    H10 4124   2.983   5.415   5.952 -2.7234 -1.8525  0.5678
   18MOL    H11 4125   3.019   5.540   6.083 -2.6453  2.7756 -0.9391
   18MOL    H12 4126   2.859   5.510   6.029  1.4872  2.1193 -1.9249
   18MOL    H13 4127   2.629   5.311   6.291 -0.8718 -2.5535 -0.0093
   18MOL    C14 4128   2.918   5.122   6.300 -0.2580 -0.2739 -0.8535
   18MOL    C15 4129   2.879   5.022   6.413  0.0657  0.2892  0.4713
   18MOL    C16 4130   2.783   4.907   6.360  0.3525  0.1347 -0.2901
   18MOL    O17 4131   2.657   4.914   6.364  0.5194 -0.3247  0.2729
   18MOL    O18 4132   2.850   4.800   6.315  0.3217  0.1269  0.1344
   18MOL    C19 4133   2.791   4.672   6.302  0.4697  0.5165  0.0725
   18MOL    H20 4134   2.965   5.072   6.216  1.0819 -1.2186  0.4129
   18MOL    H21 4135   2.998   5.185   6.339 -0.1212 -1.9012  1.6696
   18MOL    H22 4136   2.827   5.076   6.492  0.2463 -0.3121  1.0058
   18MOL    H23 4137   2.739   4.653   6.208 -0.0018  0.3840  0.3560
   18MOL    H24 4138   2.723   4.655   6.386  1.8130 -0.5521  0.9515
   18MOL    H25 4139   2.865   4.593   6.312 -0.2145 -0.1895 -0.4301
   18MOL    C26 4140   3.003   4.963   6.479  0.3832  0.5499  0.4924
   18MOL    C27 4141   2.984   4.871   6.608  0.1980  0.3619 -0.2897
   18MOL    C28 4142   3.114   4.787   6.621 -0.0728 -0.0026  0.0223
   18MOL    O29 4143   3.107   4.663   6.624  0.1868  0.2782  0.6033
   18MOL    O30 4144   3.223   4.861   6.609 -0.2017  1.1862  0.2602
   18MOL    C31 4145   3.353   4.795   6.615 -0.3835  0.5910 -0.0054
   18MOL    H32 4146   3.068   4.913   6.407  0.2025  0.2685  0.5262
   18MOL    H33 4147   3.054   5.053   6.513  3.0126 -0.4624 -0.6499
   18MOL    H34 4148   2.896   4.811   6.585 -0.3045  0.9196  0.1666
   18MOL    H35 4149   3.431   4.866   6.590 -0.6737  0.7496 -0.4762
   18MOL    H36 4150   3.362   4.709   6.548 -3.5582  0.2546 -0.0880
   18MOL    H37 4151   3.369   4.761   6.717  1.1967 -0.2588 -0.5211
   18MOL    C38 4152   2.953   4.948   6.734  0.3535 -0.0092  0.2654
   18MOL    C39 4153   2.885   4.874   6.844 -0.2014 -0.2071 -0.0374
   18MOL    C40 4154   2.946   4.902   6.984 -0.3726  0.5068 -0.0704
   18MOL    O41 4155   2.878   4.918   7.085 -0.1551 -0.0689 -0.1542
   18MOL    O42 4156   3.079   4.889   6.978 -0.4363 -0.7186  1.0756
   18MOL    C43 4157   3.157   4.882   7.095  0.2147  0.2546 -0.0200
   18MOL    H44 4158   3.041   5.003   6.770 -1.5344  2.0786  1.8722
   18MOL    H45 4159   2.890   5.033   6.706  1.3847  0.4486 -0.7533
   18MOL    H46 4160   2.911   4.768   6.847 -0.4821 -0.3786 -2.3932
   18MOL    H47 4161   3.237   4.955   7.106  0.8698 -0.0587 -2.4094
   18MOL    H48 4162   3.203   4.783   7.102 -1.6110 -0.5376  1.3363
   18MOL    H49 4163   3.095   4.903   7.183  0.3972 -0.0898  0.1902
   18MOL    C50 4164   2.733   4.888   6.837 -0.0306  0.1634 -0.6308
   18MOL    C51 4165   2.669   5.023   6.878  0.3194  0.1813  0.4540
   18MOL    C52 4166   2.633   5.113   6.755 -0.3464  0.3746  0.0166
   18MOL    O53 4167   2.685   5.223   6.726 -0.6228  0.2296  0.0419
   18MOL    O54 4168   2.531   5.058   6.685  1.2316 -0.0911 -0.9763
   18MOL    C55 4169   2.478   5.126   6.575 -0.1973  1.0789  0.6340
   18MOL    H56 4170   2.696   4.866   6.737  2.2309 -1.4449 -1.1688
   18MOL    H57 4171   2.698   4.806   6.899 -1.6201  3.0704  2.4103
   18MOL    H58 4172   2.730   5.086   6.944  0.4607  2.5718 -1.8579
   18MOL    H59 4173   2.544   5.125   6.488 -1.1468  0.5372 -0.0840
   18MOL    H60 4174   2.457   5.228   6.607 -0.6043  0.8034  1.2474
   18MOL    H61 4175   2.385   5.076   6.548  0.3126 -1.0368  2.5783
   18MOL    C62 4176   2.542   4.983   6.957 -1.4019  0.3520  0.0428
   18MOL    C63 4177   2.563   4.965   7.110 -0.7860  0.0498 -0.1106
   18MOL    C64 4178   2.616   5.086   7.181  0.4305 -1.1553 -0.4619
   18MOL    O65 4179   2.578   5.197   7.138  0.2915 -0.4357  0.6857
   18MOL    O66 4180   2.679   5.065   7.299 -0.3196  0.2335  0.0224
   18MOL    C67 4181   2.702   5.175   7.395  0.3262 -0.2315  0.0869
   18MOL    H68 4182   2.472   5.066   6.945  1.7303  2.9601 -0.7965
   18MOL    H69 4183   2.491   4.896   6.914 -0.1207 -1.0228  1.2373
   18MOL    H70 4184   2.631   4.882   7.127 -1.3807 -0.6457 -1.0961
   18MOL    H71 4185   2.616   5.241   7.406 -0.5914 -1.1335 -1.4415
   18MOL    H72 4186   2.773   5.245   7.349 -1.0201  0.7997 -0.4559
   18MOL    H73 4187   2.736   5.141   7.492  1.0243 -0.0390 -0.0862
   18MOL    C74 4188   2.428   4.923   7.163 -0.8264 -0.6632  0.0301
   18MOL    C75 4189   2.429   4.849   7.294 -0.5900 -0.5605  0.1431
   18MOL    C76 4190   2.285   4.824   7.348  0.2777 -0.3287  0.5005
   18MOL    O77 4191   2.185   4.843   7.277 -1.0644  0.4401  0.4470
   18MOL    O78 4192   2.282   4.788   7.478 -0.4461  0.0565 -0.0598
   18MOL    C79 4193   2.161   4.737   7.537  0.5848 -0.0237  0.3840
   18MOL    H80 4194   2.361   5.010   7.167  0.3744  0.2571  0.3957
   18MOL    H81 4195   2.374   4.859   7.093  0.7048  0.3311 -2.0996
   18MOL    H82 4196   2.462   4.913   7.376 -1.1000  0.0831 -0.1544
   18MOL    H83 4197   2.170   4.691   7.635 -1.3616 -0.5884  0.3154
   18MOL    H84 4198   2.124   4.649   7.483 -0.1129  0.0814  0.6881
   18MOL    H85 4199   2.091   4.820   7.547  0.1232 -0.4103  0.3732
   18MOL    C86 4200   2.515   4.716   7.320  0.2373 -0.4813 -0.0851
   18MOL    C87 4201   2.488   4.578   7.248  0.0524  0.3650  0.3087
   18MOL    C88 4202   2.513   4.572   7.096 -0.1754 -0.0665 -0.7765
   18MOL    O89 4203   2.628   4.560   7.047  0.0481  0.0320 -0.0328
   18MOL    O90 4204   2.394   4.583   7.027 -0.4202 -0.0785 -0.3140
   18MOL    C91 4205   2.393   4.554   6.892  0.7455 -0.1905  0.4563
   18MOL    H92 4206   2.616   4.751   7.301  0.4889 -0.9706  0.3265
   18MOL    H93 4207   2.517   4.692   7.427 -1.4595  0.7387  0.2362
   18MOL    H94 4208   2.388   4.543   7.272  0.0862 -1.0330 -1.5209
   18MOL    H95 4209   2.326   4.475   6.857  0.1394  0.8529 -0.8100
   18MOL    H96 4210   2.490   4.524   6.854  0.6208  1.5738 -1.3349
   18MOL    H97 4211   2.367   4.648   6.843  0.4413 -1.4790 -1.9107
   18MOL    C98 4212   2.584   4.470   7.315 -0.3606 -1.0565  0.5180
   18MOL    C99 4213   2.554   4.418   7.457  0.2190  1.0871 -0.1356
   18MOL   C100 4214   2.401   4.379   7.480 -0.7450 -1.1009  0.2995
   18MOL   O101 4215   2.336   4.418   7.576 -1.0028  0.0554 -0.4056
   18MOL   O102 4216   2.358   4.299   7.383  0.0128  0.4908 -0.2724
   18MOL   C103 4217   2.225   4.262   7.389  0.0431 -0.7300  0.2270
   18MOL   H104 4218   2.589   4.382   7.251  0.3002 -1.7305  1.4715
   18MOL   H105 4219   2.682   4.518   7.318 -0.6901 -0.1664 -1.8842
   18MOL   H106 4220   2.567   4.499   7.528 -1.5777 -0.3745  1.9192
   18MOL   H107 4221   2.196   4.232   7.489 -1.8705  0.9859  0.2263
   18MOL   H108 4222   2.222   4.166   7.338 -1.9207 -0.6508  0.1507
   18MOL   H109 4223   2.150   4.325   7.341 -2.6985 -3.4417  0.8750
   18MOL   C110 4224   2.657   4.297   7.490 -0.9230 -0.4038 -0.4685
   18MOL   C111 4225   2.664   4.250   7.639  0.5763  0.7882 -0.2558
   18MOL   C112 4226   2.578   4.125   7.653 -0.1760  0.5574 -0.7814
   18MOL   O113 4227   2.476   4.116   7.726 -0.3109 -0.5018  0.4110
   18MOL   O114 4228   2.623   4.024   7.585  0.0532 -0.5959 -0.4136
   18MOL   C115 4229   2.554   3.900   7.577 -0.1051  0.2528 -0.5904
   18MOL   H116 4230   2.648   4.212   7.423  0.3394  1.2779 -2.8523
   18MOL   H117 4231   2.757   4.329   7.459 -1.2470  2.7209  1.4444
   18MOL   H118 4232   2.627   4.332   7.700 -1.4863 -1.2046  1.2514
   18MOL   H119 4233   2.446   3.894   7.592  0.1898  0.0969  1.5898
   18MOL   H120 4234   2.600   3.842   7.657  0.6655  0.3484 -0.9664
   18MOL   H121 4235   2.572   3.845   7.485 -0.2235 -0.8097  0.0207
   18MOL   C122 4236   2.808   4.204   7.673  0.3519 -0.8600  0.3782
   18MOL   C123 4237   2.827   4.160   7.823  0.3819  0.6333 -0.2414
   18MOL   C124 4238   2.963   4.097   7.844  0.0781 -0.8351 -0.4727
   18MOL   O125 4239   2.978   3.987   7.896 -0.1005  0.0516 -0.2881
   18MOL   O126 4240   3.058   4.176   7.802 -0.7834 -0.1131 -0.5032
   18MOL   C127 4241   3.195   4.135   7.808 -0.5317 -0.3066 -0.3038
   18MOL   H128 4242   2.835   4.119   7.610 -0.3175 -0.3122 -0.6565
   18MOL   H129 4243   2.875   4.289   7.658 -0.3878  0.1203  2.4917
   18MOL   H130 4244   2.750   4.086   7.846  1.5660 -0.8057 -0.8178
   18MOL   H131 4245   3.254   4.193   7.737  0.5885 -2.1158 -0.8767
   18MOL   H132 4246   3.212   4.028   7.795  0.7316  0.0723 -2.0247
   18MOL   H133 4247   3.244   4.157   7.902  0.4081 -0.0165 -0.8541
   18MOL   C134 4248   2.815   4.283   7.922  0.2743  0.1452  0.0485
   18MOL   C135 4249   2.787   4.248   0.135 -0.3958 -0.4868  0.0149
   18MOL   C136 4250   2.848   4.345   0.229  0.7513 -0.0780  0.2706
   18MOL   O137 4251   2.953   4.323   0.285  0.3158  0.7259  0.5885
   18MOL   O138 4252   2.790   4.463   0.243 -0.1754  0.3647  0.3935
   18MOL   C139 4253   2.840   4.564   0.326 -0.1302  0.6549  0.5113
   18MOL   H140 4254   2.904   4.346   7.911 -0.0493  0.3282 -1.7357
   18MOL   H141 4255   2.743   4.355   7.885  0.6484  1.3100  1.5453
   18MOL   H142 4256   2.840   4.159   0.168  4.0069  3.0467  3.2959
   18MOL   H143 4257   2.946   4.589   0.333  0.0087  0.4801 -0.8372
   18MOL   H144 4258   2.795   4.551   0.424  0.3107 -1.4313  0.4530
   18MOL   H145 4259   2.802   4.661   0.293  0.2748  0.7353  0.2739
   18MOL   C146 4260   2.636   4.213   0.147  0.4517 -0.4829  0.0070
   18MOL   C147 4261   2.590   4.215   0.293 -0.2306  0.3465  0.3385
   18MOL   C148 4262   2.437   4.218   0.302 -0.7005  0.1591  0.4747
   18MOL   O149 4263   2.370   4.133   0.250  0.3328 -0.1218 -0.4433
   18MOL   O150 4264   2.391   4.324   0.382  0.6704  0.3136  0.4486
   18MOL   C151 4265   2.253   4.346   0.390  0.1419  0.6000 -0.3233
   18MOL   H152 4266   2.586   4.289   0.087 -0.3428 -0.8465  0.1969
   18MOL   H153 4267   2.605   4.120   0.099 -0.2563 -0.9512  1.3486
   18MOL   H154 4268   2.613   4.305   0.351  0.1051 -0.3665  1.3103
   18MOL   H155 4269   2.202   4.286   0.465  0.1293 -2.1385 -2.4756
   18MOL   H156 4270   2.204   4.343   0.293 -1.5239 -0.6455  0.5266
   18MOL   H157 4271   2.240   4.449   0.424  1.3619  1.0614 -1.2337
   18MOL   C158 4272   2.644   4.095   0.379 -0.4324  0.0027 -0.1769
   18MOL   C159 4273   2.613   4.091   0.530  0.0340 -0.0098 -0.7335
   18MOL   C160 4274   2.485   4.024   0.569 -0.0598 -0.2673  0.3565
   18MOL   O161 4275   2.390   4.088   0.615  0.4292 -0.0736  0.0036
   18MOL   O162 4276   2.493   3.891   0.551  0.9869 -0.5384  0.2665
   18MOL   C163 4277   2.383   3.806   0.582 -0.3067 -0.3571  0.2290
   18MOL   H164 4278   2.614   4.002   0.330  0.0106  0.4360 -1.2959
   18MOL   H165 4279   2.752   4.096   0.366 -0.5255  0.8959 -0.9835
   18MOL   H166 4280   2.608   4.193   0.566  1.7243 -0.5075  0.9644
   18MOL   H167 4281   2.348   3.820   0.684 -2.4365 -1.5036 -0.3321
   18MOL   H168 4282   2.410   3.703   0.561  0.2427 -0.3652  0.9372
   18MOL   H169 4283   2.298   3.836   0.522  0.1223  0.1360 -0.1443
   18MOL   C170 4284   2.728   4.053   0.619  0.1186 -0.2913 -0.1548
   18MOL   C171 4285   2.832   4.164   0.639 -0.6610  0.3446 -0.8117
   18MOL   C172 4286   2.772   4.273   0.732  0.4337  0.2019 -0.6854
   18MOL   O173 4287   2.774   4.392   0.700  0.3627  0.1751  0.2444
   18MOL   O174 4288   2.740   4.234   0.855  0.7709  0.6277 -0.1699
   18MOL   C175 4289   2.726   4.330   0.959 -0.3545 -0.1337  0.8647
   18MOL   H176 4290   2.704   4.025   0.721  4.0150  1.0621  1.2086
   18MOL   H177 4291   2.785   3.970   0.578 -0.1705 -0.4857 -0.1623
   18MOL   H178 4292   2.876   4.200   0.546 -0.0344 -0.3029 -0.7724
   18MOL   H179 4293   2.819   4.385   0.972 -1.4123  1.8877  0.1399
   18MOL   H180 4294   2.700   4.287   1.056  0.1009 -0.9797  0.6123
   18MOL   H181 4295   2.655   4.410   0.937  1.1579  1.3050  1.1622
   18MOL   C182 4296   2.954   4.100   0.708  0.5365 -0.0646 -0.0305
   18MOL   C183 4297   3.071   4.203   0.720  0.1360 -0.0314  0.0979
   18MOL   C184 4298   3.085   4.272   0.858  0.0939 -0.3638 -0.4032
   18MOL   O185 4299   3.105   4.392   0.872 -0.4019 -0.0205  0.0178
   18MOL   O186 4300   3.064   4.188   0.959  0.4996  0.3806 -0.3464
   18MOL   C187 4301   3.058   4.240   1.091 -0.0068  0.3386  0.1754
   18MOL   H188 4302   2.922   4.066   0.807 -0.8083  0.6957 -0.1951
   18MOL   H189 4303   2.985   4.015   0.648  1.9873  1.1076 -0.9735
   18MOL   H190 4304   3.056   4.274   0.638  1.7286  1.2795  0.9176
   18MOL   H191 4305   3.023   4.168   1.166 -1.7257 -1.6009 -2.4190
   18MOL   H192 4306   2.984   4.318   1.110 -0.2523  0.0930  0.2352
   18MOL   H193 4307   3.154   4.275   1.130  0.3643 -1.7656  1.2760
   18MOL   C194 4308   3.210   4.140   0.683  0.4699 -0.3549 -0.1882
   18MOL   C195 4309   3.338   4.223   0.673 -0.2867 -0.1318 -0.1220
   18MOL   C196 4310   3.413   4.244   0.803  0.3195  0.4460 -0.3033
   18MOL   O197 4311   3.416   4.150   0.885  0.3370 -0.3905 -0.7424
   18MOL   O198 4312   3.482   4.359   0.811  0.2108 -0.0606  0.3524
   18MOL   C199 4313   3.548   4.373   0.941 -0.2441 -0.0353 -0.5040
   18MOL   H200 4314   3.216   4.067   0.763 -0.4317 -1.7078 -1.3268
   18MOL   H201 4315   3.191   4.091   0.587 -1.1046  0.5581 -0.3672
   18MOL   H202 4316   3.301   4.322   0.647  1.3464  0.0573 -1.8885
   18MOL   H203 4317   3.612   4.461   0.940 -0.7642  0.3702  0.9407
   18MOL   H204 4318   3.615   4.288   0.953  0.1587  0.5168  1.3022
   18MOL   H205 4319   3.484   4.378   1.029  1.5867 -0.6097  0.8856
   18MOL   C206 4320   3.428   4.177   0.552 -0.3271 -0.1636  0.3682
   18MOL   C207 4321   3.544   4.270   0.515 -0.3363  0.4283  0.0228
   18MOL   C208 4322   3.678   4.216   0.574 -0.4987  0.8223  0.4415
   18MOL   O209 4323   3.741   4.283   0.655  0.2624 -0.0982  0.1580
   18MOL   O210 4324   3.718   4.096   0.536  0.0073  0.8941 -0.1730
   18MOL   C211 4325   3.844   4.055   0.593  0.5263 -1.1022 -0.2078
   18MOL   H212 4326   3.468   4.078   0.578  2.3703  0.4855 -1.0830
   18MOL   H213 4327   3.377   4.163   0.456  1.1304  2.2300 -0.7992
   18MOL   H214 4328   3.532   4.368   0.561 -0.2386 -0.7084  2.5750
   18MOL   H215 4329   3.819   3.994   0.680 -3.4314  0.3583 -0.2474
   18MOL   H216 4330   3.908   4.130   0.640 -1.1422  0.9284 -1.0891
   18MOL   H217 4331   3.894   3.979   0.532  0.5035 -1.0036 -0.3486
   18MOL   C218 4332   3.562   4.289   0.366 -0.1225  0.2157 -0.0564
   18MOL   C219 4333   3.683   4.381   0.314 -0.5512  0.1083 -0.5784
   18MOL   C220 4334   3.687   4.383   0.162  0.6657  0.2632  0.1458
   18MOL   O221 4335   3.613   4.317   0.085  0.2771 -0.1893  0.4028
   18MOL   O222 4336   3.785   4.456   0.117 -0.0954 -0.1931  0.2574
   18MOL   C223 4337   3.802   4.464   7.912  0.6188 -0.2712 -0.2989
   18MOL   H224 4338   3.584   4.189   0.329  2.4930  1.1336 -1.1271
   18MOL   H225 4339   3.468   4.306   0.312 -0.1035 -0.8595 -0.4299
   18MOL   H226 4340   3.772   4.335   0.357 -0.5858 -0.4585 -1.1102
   18MOL   H227 4341   3.840   4.366   7.882 -1.3260 -1.0351 -0.3431
   18MOL   H228 4342   3.882   4.534   7.890 -1.9602  2.4432 -1.3887
   18MOL   H229 4343   3.715   4.491   7.852 -0.6836  0.1210  1.6976
   18MOL   C230 4344   3.678   4.528   0.371  0.1227  0.3089 -0.3839
   18MOL   C231 4345   3.579   4.630   0.316 -0.0507  0.2570  0.3347
   18MOL   C232 4346   3.436   4.597   0.358 -0.4221  0.3379 -0.2064
   18MOL   O233 4347   3.384   4.626   0.468  0.2852  0.6035  0.2281
   18MOL   O234 4348   3.370   4.542   0.263  0.1495  0.0559  0.1279
   18MOL   C235 4349   3.228   4.520   0.277 -0.2373 -0.8474 -0.6110
   18MOL   H236 4350   3.663   4.523   0.479 -1.3282 -0.2113 -0.5922
   18MOL   H237 4351   3.783   4.555   0.373  0.4145 -0.9050  2.2012
   18MOL   H238 4352   3.580   4.612   0.208  0.1057 -1.4673  0.6069
   18MOL   H239 4353   3.171   4.511   0.185 -0.4373  0.0708 -0.5818
   18MOL   H240 4354   3.182   4.600   0.335  1.0072  0.5875 -1.5546
   18MOL   H241 4355   3.212   4.439   0.349  2.4387  0.2899  1.3330
   18MOL   H242 4356   3.608   4.733   0.336  1.4401  0.3196 -1.9624
   19MOL     C1 4357   3.325   2.718   4.383  0.7692  0.0753 -0.2001
   19MOL     C2 4358   3.282   2.571   4.422 -0.5814 -0.0243  0.6428
   19MOL     C3 4359   3.313   2.472   4.311  0.4141 -0.2738  0.5429
   19MOL     O4 4360   3.228   2.440   4.227 -0.1203 -0.7993  0.0082
   19MOL     O5 4361   3.443   2.424   4.329 -0.1388  0.9622  0.2273
   19MOL     C6 4362   3.484   2.311   4.243 -0.6492 -0.2712 -0.2441
   19MOL     H7 4363   3.261   2.755   4.303 -0.8501  1.2492  1.6012
   19MOL     H8 4364   3.432   2.709   4.364  0.8109  0.1344 -0.0021
   19MOL     H9 4365   3.174   2.568   4.424 -0.5467 -1.1416  1.0489
   19MOL    H10 4366   3.531   2.333   4.147  1.2820 -0.7307  0.5630
   19MOL    H11 4367   3.402   2.241   4.223 -0.5229 -0.8809  1.3032
   19MOL    H12 4368   3.560   2.251   4.294 -0.6487  0.0847  0.1718
   19MOL    H13 4369   3.311   2.780   4.472 -3.5372  1.3225 -1.6388
   19MOL    C14 4370   3.335   2.524   4.559  0.4222  0.1009 -0.2512
   19MOL    C15 4371   3.249   2.403   4.624 -0.2295 -0.2454 -0.3622
   19MOL    C16 4372   3.343   2.347   4.739  0.2752  0.2294 -0.4496
   19MOL    O17 4373   3.366   2.415   4.843  0.0173 -0.0974  0.0447
   19MOL    O18 4374   3.388   2.224   4.717  0.3149 -0.0422  0.1629
   19MOL    C19 4375   3.478   2.163   4.805  0.1061  0.2304 -0.5030
   19MOL    H20 4376   3.439   2.493   4.553  0.5395  0.5318 -0.4132
   19MOL    H21 4377   3.340   2.610   4.626 -1.7836 -0.2813  0.4498
   19MOL    H22 4378   3.246   2.329   4.544 -0.4447 -1.8304  1.0794
   19MOL    H23 4379   3.427   2.144   4.900  0.5980 -2.6761 -0.7698
   19MOL    H24 4380   3.560   2.231   4.825 -0.1799 -0.2210  2.4210
   19MOL    H25 4381   3.509   2.067   4.764  1.4770  0.5682 -0.2895
   19MOL    C26 4382   3.101   2.440   4.658 -0.5353 -0.2758  0.6517
   19MOL    C27 4383   3.015   2.324   4.715 -0.3966 -0.1797 -0.3832
   19MOL    C28 4384   2.990   2.330   4.867  0.1024 -0.4361 -0.1908
   19MOL    O29 4385   3.051   2.406   4.941 -0.9411 -0.6299 -0.1887
   19MOL    O30 4386   2.908   2.232   4.912 -0.4487  0.1493  0.4097
   19MOL    C31 4387   2.900   2.212   5.054 -0.0402  0.1853  0.3363
   19MOL    H32 4388   3.102   2.529   4.721  3.5976 -0.1749  0.5867
   19MOL    H33 4389   3.051   2.473   4.567  1.1030 -1.5829 -0.7310
   19MOL    H34 4390   3.083   2.239   4.707  1.1351  1.0616 -0.6621
   19MOL    H35 4391   2.862   2.111   5.066  3.6414 -1.1910  0.9142
   19MOL    H36 4392   2.830   2.285   5.094 -1.6034 -0.0087 -1.9716
   19MOL    H37 4393   2.999   2.206   5.100  0.7188  0.5835 -1.2054
   19MOL    C38 4394   2.890   2.271   4.631  0.3354 -0.2692 -0.4296
   19MOL    C39 4395   2.765   2.359   4.639  0.3543 -0.7059 -0.0685
   19MOL    C40 4396   2.761   2.447   4.509  0.1313 -0.0505 -0.5196
   19MOL    O41 4397   2.791   2.566   4.519  0.4218  0.0521 -0.4123
   19MOL    O42 4398   2.745   2.377   4.398  0.2251  0.0699  0.6850
   19MOL    C43 4399   2.756   2.446   4.275 -0.2611  0.6773 -0.9346
   19MOL    H44 4400   2.924   2.250   4.529  0.8900  2.4938 -0.8414
   19MOL    H45 4401   2.860   2.172   4.666 -2.9326  0.4948 -0.9753
   19MOL    H46 4402   2.770   2.436   4.716  1.2884 -0.3140 -0.5108
   19MOL    H47 4403   2.664   2.502   4.254 -0.1347  0.9748 -0.6870
   19MOL    H48 4404   2.766   2.368   4.199  2.2828 -1.5678  1.5879
   19MOL    H49 4405   2.851   2.497   4.284 -1.3835  2.5014  0.9521
   19MOL    C50 4406   2.638   2.288   4.674 -0.3201 -0.2089 -0.5799
   19MOL    C51 4407   2.580   2.174   4.583  0.2124 -0.2273  0.1290
   19MOL    C52 4408   2.647   2.038   4.606  0.4866  0.1956  0.7820
   19MOL    O53 4409   2.727   1.990   4.526  0.2822 -0.6421  0.5361
   19MOL    O54 4410   2.606   1.976   4.715  0.5583  0.1382 -0.7171
   19MOL    C55 4411   2.650   1.847   4.757  0.4600  0.2514 -0.5904
   19MOL    H56 4412   2.660   2.243   4.771  2.2741  0.7719 -0.6920
   19MOL    H57 4413   2.566   2.369   4.681  0.0709  0.0097  1.1517
   19MOL    H58 4414   2.592   2.216   4.483  0.4559  0.0899  0.2920
   19MOL    H59 4415   2.684   1.852   4.861  1.7385 -2.0067 -0.8611
   19MOL    H60 4416   2.735   1.813   4.699  0.1114  1.3288 -1.7400
   19MOL    H61 4417   2.567   1.776   4.745  1.6858 -1.8809  2.7317
   19MOL    C62 4418   2.421   2.161   4.599 -0.0670 -0.8519 -0.5233
   19MOL    C63 4419   2.343   2.105   4.481 -0.7568 -0.0788  0.3600
   19MOL    C64 4420   2.366   1.955   4.455  1.0760  0.6116 -0.5585
   19MOL    O65 4421   2.371   1.915   4.337 -0.2939 -0.8366 -0.4242
   19MOL    O66 4422   2.358   1.878   4.561  0.0257 -0.1695  0.1300
   19MOL    C67 4423   2.362   1.731   4.552  0.2134 -0.3213  0.6848
   19MOL    H68 4424   2.400   2.110   4.693 -0.8455  0.3410 -0.0465
   19MOL    H69 4425   2.378   2.257   4.627  0.0082 -1.8282  3.3020
   19MOL    H70 4426   2.380   2.140   4.385 -2.1304 -1.1789 -0.5969
   19MOL    H71 4427   2.275   1.680   4.511  1.2074 -1.3093 -0.2441
   19MOL    H72 4428   2.370   1.682   4.649 -1.5805 -3.3852 -0.6300
   19MOL    H73 4429   2.450   1.704   4.493 -1.5172 -1.3333 -1.5262
   19MOL    C74 4430   2.191   2.142   4.496 -0.3333 -0.2201  0.4299
   19MOL    C75 4431   2.085   2.103   4.382  0.2474  0.2874 -0.4905
   19MOL    C76 4432   1.943   2.130   4.428 -0.2282  0.6257 -0.6197
   19MOL    O77 4433   1.852   2.050   4.417  0.1744 -0.7780  0.8618
   19MOL    O78 4434   1.935   2.254   4.483  0.0115 -0.1947  0.1016
   19MOL    C79 4435   1.815   2.294   4.544 -0.2906 -0.1559 -0.1555
   19MOL    H80 4436   2.174   2.093   4.592 -0.8529 -0.6952  0.1031
   19MOL    H81 4437   2.180   2.247   4.525 -0.8707 -0.0733 -0.2892
   19MOL    H82 4438   2.100   1.997   4.365  0.7842  0.0876  1.2432
   19MOL    H83 4439   1.810   2.268   4.649  0.9039  1.0097  0.2039
   19MOL    H84 4440   1.733   2.247   4.489  0.7249 -0.6471 -1.2925
   19MOL    H85 4441   1.793   2.400   4.536  0.4991 -0.1556 -2.8055
   19MOL    C86 4442   2.109   2.178   4.250 -0.7581  0.5693 -0.7628
   19MOL    C87 4443   2.136   2.089   4.129 -0.7459  0.2413  0.2019
   19MOL    C88 4444   2.007   2.018   4.079 -0.2456 -0.5508 -0.1790
   19MOL    O89 4445   2.010   1.894   4.061  0.4559  0.6799 -0.2698
   19MOL    O90 4446   1.896   2.088   4.077  0.6183 -0.0642  0.0243
   19MOL    C91 4447   1.768   2.026   4.082 -0.0702 -0.5274 -0.0353
   19MOL    H92 4448   2.043   2.259   4.220  0.2038  1.3174 -0.8678
   19MOL    H93 4449   2.199   2.236   4.268 -1.2807  0.9526  0.6135
   19MOL    H94 4450   2.214   2.016   4.150 -0.9546  0.4575  1.7717
   19MOL    H95 4451   1.696   2.101   4.113  0.9538 -0.0430  1.2256
   19MOL    H96 4452   1.774   1.940   4.149  0.0688 -0.7171 -0.2874
   19MOL    H97 4453   1.743   1.991   3.982  1.6955  0.9632 -1.0246
   19MOL    C98 4454   2.203   2.170   4.012  0.3221  0.0371  0.1686
   19MOL    C99 4455   2.342   2.127   3.963 -0.1847 -0.4194 -0.1619
   19MOL   C100 4456   2.447   2.167   4.071 -0.6555  0.2103 -0.2574
   19MOL   O101 4457   2.432   2.256   4.154  0.4205 -0.1135  0.2937
   19MOL   O102 4458   2.557   2.092   4.065 -0.3418  0.2811 -0.4249
   19MOL   C103 4459   2.665   2.144   4.136  0.3014  1.1259  0.5324
   19MOL   H104 4460   2.130   2.161   3.931  1.4024 -2.8823 -0.5353
   19MOL   H105 4461   2.204   2.276   4.037  3.9161  0.5699 -1.9875
   19MOL   H106 4462   2.367   2.187   3.875 -0.6842  0.7703  0.5033
   19MOL   H107 4463   2.740   2.067   4.115 -1.1650  0.2728 -1.8469
   19MOL   H108 4464   2.647   2.145   4.243  3.1612 -0.1148  1.0828
   19MOL   H109 4465   2.682   2.242   4.092 -0.4355  0.2236 -1.8571
   19MOL   C110 4466   2.351   1.976   3.924  0.4306 -0.1833  0.6406
   19MOL   C111 4467   2.271   1.926   3.805 -0.9190  0.4527  0.3277
   19MOL   C112 4468   2.295   2.022   3.680 -0.0136  0.5415 -0.2449
   19MOL   O113 4469   2.399   2.081   3.665 -0.2687  0.6051  0.1970
   19MOL   O114 4470   2.198   2.007   3.589  0.0803  0.2176 -0.0046
   19MOL   C115 4471   2.223   2.051   3.457  0.2473 -0.9186 -0.1568
   19MOL   H116 4472   2.457   1.957   3.904  0.4525  2.2784 -1.7554
   19MOL   H117 4473   2.333   1.905   4.005  1.0420  2.5845  3.2815
   19MOL   H118 4474   2.165   1.939   3.829 -0.3089  2.1934  2.2151
   19MOL   H119 4475   2.272   2.147   3.440 -2.5048  0.4167 -0.8832
   19MOL   H120 4476   2.127   2.055   3.404 -1.4359 -0.8707  2.7699
   19MOL   H121 4477   2.290   1.981   3.408  2.0259  1.5281 -1.3137
   19MOL   C122 4478   2.294   1.773   3.776 -0.1219 -0.5741 -0.1105
   19MOL   C123 4479   2.161   1.695   3.757 -0.0009  0.6071  0.2811
   19MOL   C124 4480   2.103   1.714   3.620 -0.3131 -0.5690 -0.1419
   19MOL   O125 4481   2.161   1.682   3.519  0.4581 -0.0647  0.2360
   19MOL   O126 4482   1.983   1.763   3.614  0.2148  0.0289  0.2425
   19MOL   C127 4483   1.929   1.814   3.492  0.4693  0.3135 -0.1203
   19MOL   H128 4484   2.366   1.756   3.695 -1.8240 -0.2904 -1.7198
   19MOL   H129 4485   2.332   1.734   3.870  0.6295 -1.9565 -0.9616
   19MOL   H130 4486   2.093   1.743   3.827  0.0709  1.4570 -0.2327
   19MOL   H131 4487   1.824   1.836   3.511  0.4098  0.5258 -0.6939
   19MOL   H132 4488   1.935   1.733   3.420 -2.0447  0.6345 -0.7341
   19MOL   H133 4489   1.972   1.900   3.441 -1.2749  1.4957  0.3688
   19MOL   C134 4490   2.172   1.544   3.795 -0.0759 -0.0231 -0.2167
   19MOL   C135 4491   2.034   1.482   3.835 -0.4427  0.0693  0.4648
   19MOL   C136 4492   2.014   1.332   3.827 -0.9783  0.4905 -0.4078
   19MOL   O137 4493   1.948   1.269   3.916 -0.3205 -0.0419  0.0231
   19MOL   O138 4494   2.058   1.281   3.709  0.4101  0.8148 -0.6572
   19MOL   C139 4495   2.010   1.153   3.662  0.7392 -0.8814 -0.5617
   19MOL   H140 4496   2.209   1.479   3.716  1.0842  2.4150 -1.7701
   19MOL   H141 4497   2.236   1.522   3.880 -0.6570 -0.1717  0.1879
   19MOL   H142 4498   1.955   1.510   3.766  0.8555  1.8934 -0.3066
   19MOL   H143 4499   1.904   1.144   3.642  0.3378 -4.2464  2.5638
   19MOL   H144 4500   2.028   1.079   3.740 -3.3645 -0.5534  0.8094
   19MOL   H145 4501   2.067   1.137   3.571 -0.4241  0.7360 -1.6042
   19MOL   C146 4502   1.987   1.545   3.975 -0.3013  0.1420  0.0977
   19MOL   C147 4503   1.834   1.556   3.994  0.4974 -0.0015 -0.2316
   19MOL   C148 4504   1.801   1.577   4.142 -0.3110 -0.7657 -0.2444
   19MOL   O149 4505   1.768   1.688   4.182  0.6969 -0.0390  0.0638
   19MOL   O150 4506   1.812   1.463   4.210  0.2741  0.2426 -1.2407
   19MOL   C151 4507   1.776   1.453   4.342  0.1944  0.2765  0.0280
   19MOL   H152 4508   2.023   1.478   4.054  2.0402  0.0331 -1.0371
   19MOL   H153 4509   2.037   1.639   3.997  1.1558 -0.6565  0.2532
   19MOL   H154 4510   1.795   1.461   3.958 -0.5189  0.8235 -1.3238
   19MOL   H155 4511   1.686   1.391   4.345 -0.5051  1.3375  1.8857
   19MOL   H156 4512   1.770   1.553   4.385 -2.9916  0.5271 -0.8441
   19MOL   H157 4513   1.855   1.398   4.392 -1.0624  1.3887  3.4330
   19MOL   C158 4514   1.774   1.666   3.904  0.4429  0.2070 -0.3023
   19MOL   C159 4515   1.617   1.674   3.907 -0.5590 -0.1986 -0.1297
   19MOL   C160 4516   1.581   1.800   3.831  0.3058  0.6204 -0.5062
   19MOL   O161 4517   1.612   1.829   3.715 -0.6858  0.2159  0.2695
   19MOL   O162 4518   1.495   1.876   3.903  0.2480  0.0279  0.1809
   19MOL   C163 4519   1.436   1.992   3.851 -0.1595  0.5960 -0.7279
   19MOL   H164 4520   1.818   1.761   3.932 -1.3944  1.1147 -0.4225
   19MOL   H165 4521   1.813   1.663   3.802  3.3787 -0.9396  0.8243
   19MOL   H166 4522   1.586   1.703   4.007  2.1528  2.6591 -0.0458
   19MOL   H167 4523   1.338   1.975   3.806  0.2071  0.2255 -1.4039
   19MOL   H168 4524   1.503   2.035   3.777  1.2696  1.6572  1.1582
   19MOL   H169 4525   1.417   2.056   3.937 -0.0057 -0.2585 -0.0484
   19MOL   C170 4526   1.544   1.537   3.867  0.6217 -0.9541  0.4567
   19MOL   C171 4527   1.484   1.515   3.717  0.0369  0.3358 -0.4959
   19MOL   C172 4528   1.358   1.603   3.692 -0.7977  0.0416 -0.6230
   19MOL   O173 4529   1.350   1.665   3.587 -0.4916  0.3387 -0.2363
   19MOL   O174 4530   1.272   1.596   3.795  0.0268 -0.3186 -0.0454
   19MOL   C175 4531   1.161   1.691   3.801 -0.1894 -0.3543 -0.4472
   19MOL   H176 4532   1.609   1.451   3.881  1.8749  0.1402  1.3808
   19MOL   H177 4533   1.457   1.524   3.931 -2.8086 -0.0298 -3.7438
   19MOL   H178 4534   1.450   1.411   3.718 -0.1647  0.4013 -0.4273
   19MOL   H179 4535   1.111   1.700   3.704 -0.5493  0.6739 -0.1713
   19MOL   H180 4536   1.199   1.790   3.824  1.8404 -0.7649 -1.8206
   19MOL   H181 4537   1.087   1.655   3.872 -1.4960 -0.4645 -1.8306
   19MOL   C182 4538   1.593   1.527   3.611 -0.3760 -1.1162  0.2913
   19MOL   C183 4539   1.577   1.430   3.487 -1.1017  0.6626 -0.1295
   19MOL   C184 4540   1.661   1.490   3.371 -0.4826  0.1696 -0.1379
   19MOL   O185 4541   1.771   1.547   3.396 -0.4680  0.2192 -0.0291
   19MOL   O186 4542   1.609   1.466   3.249  0.0992 -0.2975 -0.4010
   19MOL   C187 4543   1.668   1.514   3.131  1.0459  0.4503  0.3999
   19MOL   H188 4544   1.598   1.631   3.580  1.4303 -1.0900  0.6121
   19MOL   H189 4545   1.694   1.517   3.652  0.2031  2.8725  0.0722
   19MOL   H190 4546   1.471   1.444   3.466 -1.6909  0.1170  2.2846
   19MOL   H191 4547   1.619   1.456   3.053  0.7559 -0.3244  1.1538
   19MOL   H192 4548   1.773   1.484   3.135  0.2069 -2.5750  0.8182
   19MOL   H193 4549   1.653   1.621   3.120  0.5769  0.3490  0.0287
   19MOL   C194 4550   1.622   1.282   3.521  0.3569  0.5030 -0.1657
   19MOL   C195 4551   1.578   1.161   3.428  0.0348  0.5162 -0.3745
   19MOL   C196 4552   1.689   1.053   3.407  0.0939 -0.9153  0.4698
   19MOL   O197 4553   1.779   1.040   3.495  0.2057  0.6109  0.2950
   19MOL   O198 4554   1.687   0.994   3.286 -0.2405 -0.4856 -0.3739
   19MOL   C199 4555   1.791   0.900   3.260 -0.6120 -0.0797  0.0726
   19MOL   H200 4556   1.731   1.285   3.520  0.5017 -1.2540  2.9152
   19MOL   H201 4557   1.603   1.261   3.626 -0.6824  0.6262 -0.3289
   19MOL   H202 4558   1.558   1.187   3.324 -0.5823 -0.3491 -0.4747
   19MOL   H203 4559   1.835   0.847   3.345  0.7401 -2.2286 -1.9003
   19MOL   H204 4560   1.869   0.936   3.193 -2.7125  1.5365 -1.5528
   19MOL   H205 4561   1.751   0.830   3.186 -0.4609  0.6316 -0.6873
   19MOL   C206 4562   1.451   1.090   3.481 -0.0816  0.0596  0.2386
   19MOL   C207 4563   1.317   1.136   3.432 -0.3949  0.1151  0.0024
   19MOL   C208 4564   1.292   1.123   3.276 -0.0406  0.0354 -0.6997
   19MOL   O209 4565   1.274   1.226   3.204  0.2332  0.1834 -1.1921
   19MOL   O210 4566   1.293   1.003   3.232 -0.6251  0.1129 -1.0200
   19MOL   C211 4567   1.303   0.984   3.088  0.3013 -0.2644  0.4305
   19MOL   H212 4568   1.447   0.981   3.476  0.0276  0.0848 -0.3713
   19MOL   H213 4569   1.448   1.111   3.588 -0.4907  1.8135 -0.1087
   19MOL   H214 4570   1.307   1.239   3.465  1.1844  0.5323 -0.8166
   19MOL   H215 4571   1.282   0.878   3.075  1.7915 -0.6994  1.4490
   19MOL   H216 4572   1.400   1.004   3.044  0.1300  1.0147  0.6210
   19MOL   H217 4573   1.220   1.038   3.042 -0.4869 -1.1613  0.7531
   19MOL   C218 4574   1.199   1.067   3.508 -0.3617  0.0315 -0.2699
   19MOL   C219 4575   1.056   1.123   3.498 -0.2508 -0.5685 -0.3836
   19MOL   C220 4576   0.953   1.017   3.455 -0.3034  0.0830 -0.3163
   19MOL   O221 4577   0.988   0.914   3.392  0.4138 -0.2979 -0.0458
   19MOL   O222 4578   0.827   1.057   3.482  0.6321  0.1393  0.3857
   19MOL   C223 4579   0.726   0.955   3.461 -0.0607 -0.8682 -0.1261
   19MOL   H224 4580   1.210   0.970   3.460  0.0174 -0.2528  0.3955
   19MOL   H225 4581   1.217   1.050   3.614  2.0257 -1.5317 -0.8849
   19MOL   H226 4582   1.041   1.190   3.413  2.3986  2.4111  1.3781
   19MOL   H227 4583   0.738   0.920   3.359  1.7971  1.7940 -0.8909
   19MOL   H228 4584   0.619   0.974   3.465  0.1839  0.3865  0.8488
   19MOL   H229 4585   0.749   0.867   3.520 -0.7976 -1.4297 -0.6638
   19MOL   C230 4586   1.022   1.184   3.633  0.0942 -0.6929  0.3500
   19MOL   C231 4587   1.086   1.325   3.649  0.2702  0.0159  0.2190
   19MOL   C232 4588   1.070   1.415   3.528  0.6458 -0.7431 -0.6410
   19MOL   O233 4589   0.965   1.468   3.496  0.6615 -0.0578 -0.0094
   19MOL   O234 4590   1.181   1.429   3.455 -0.2001  0.0558 -0.3365
   19MOL   C235 4591   1.183   1.495   3.331  0.1826 -0.7875  0.2213
   19MOL   H236 4592   0.915   1.200   3.645  0.1660 -2.1333  3.2392
   19MOL   H237 4593   1.050   1.125   3.720 -0.9596 -1.6980  0.0208
   19MOL   H238 4594   1.191   1.305   3.671  0.8751  2.0967 -0.6231
   19MOL   H239 4595   1.168   1.601   3.351  1.6222 -0.3904 -0.7335
   19MOL   H240 4596   1.099   1.464   3.269  0.1857 -2.9324  1.2283
   19MOL   H241 4597   1.281   1.478   3.285  0.4412  1.1409  0.0391
   19MOL   H242 4598   1.047   1.384   3.732  1.7010  1.2448  0.0499
   20MOL     C1 4599   1.278   7.928   6.969  0.2580  0.6562  0.2825
   20MOL     C2 4600   1.429   0.012   6.990  0.0461  0.2660 -0.2315
   20MOL     C3 4601   1.513   7.817   7.037 -0.0133  0.1793 -0.4037
   20MOL     O4 4602   1.589   7.753   6.965  0.2627  0.0837  0.7621
   20MOL     O5 4603   1.481   7.785   7.167  0.2740  0.0491  0.0942
   20MOL     C6 4604   1.544   7.673   7.222 -0.3256 -0.4692  0.0011
   20MOL     H7 4605   1.260   7.845   6.900 -2.3091 -1.9793  3.9296
   20MOL     H8 4606   1.221   0.086   6.951 -1.0649  0.0342  1.2944
   20MOL     H9 4607   1.433   0.076   7.077 -0.5942  1.2227 -0.8947
   20MOL    H10 4608   1.540   7.582   7.161  0.5288 -3.0345  3.6099
   20MOL    H11 4609   1.511   7.644   7.321 -2.5815 -0.4796 -0.7260
   20MOL    H12 4610   1.648   7.693   7.250 -0.2317 -1.1811  0.1779
   20MOL    H13 4611   1.231   7.893   7.061 -0.4247 -0.3341 -0.4264
   20MOL    C14 4612   1.499   0.083   6.868 -0.0536 -0.3142  0.1753
   20MOL    C15 4613   1.655   0.105   6.867 -0.1516 -0.9221 -0.1719
   20MOL    C16 4614   1.696   0.168   6.732  0.3318 -0.3664  0.3331
   20MOL    O17 4615   1.728   0.288   6.702 -0.5247  0.2881  0.4957
   20MOL    O18 4616   1.669   0.072   6.647 -0.0173  0.3894 -0.2953
   20MOL    C19 4617   1.675   0.119   6.512  0.1978  0.1670  0.4071
   20MOL    H20 4618   1.478   0.022   6.780  0.8613 -1.2685  0.6005
   20MOL    H21 4619   1.448   0.179   6.862 -2.1389 -1.3793  0.3502
   20MOL    H22 4620   1.696   0.004   6.870 -0.1183 -0.8672  1.5777
   20MOL    H23 4621   1.711   0.220   6.490  0.6559  0.5214  2.6447
   20MOL    H24 4622   1.574   0.122   6.472  0.4525  1.1759 -0.1946
   20MOL    H25 4623   1.731   0.043   6.458 -0.7447  0.6720 -1.3114
   20MOL    C26 4624   1.710   0.183   6.988 -0.1328 -0.2806 -0.1668
   20MOL    C27 4625   1.864   0.168   7.002 -0.1915  0.4476  0.1461
   20MOL    C28 4626   1.906   0.278   7.101 -0.3890  0.2599 -0.2501
   20MOL    O29 4627   1.900   0.259   7.224  0.3265 -0.2021  0.6629
   20MOL    O30 4628   1.947   0.388   7.036 -0.3359 -0.6335  0.2872
   20MOL    C31 4629   2.013   0.496   7.103  0.1077  0.2204 -0.1215
   20MOL    H32 4630   1.679   0.287   6.980 -1.6699 -0.7696 -0.8860
   20MOL    H33 4631   1.668   0.141   7.079 -0.2825 -0.4464 -0.3136
   20MOL    H34 4632   1.918   0.187   6.909  0.1102 -3.1897 -0.5096
   20MOL    H35 4633   1.962   0.510   7.198  0.0495  0.4218 -0.1821
   20MOL    H36 4634   2.016   0.592   7.051 -1.9831  1.2240  1.5246
   20MOL    H37 4635   2.117   0.475   7.131 -0.1669 -1.2543 -0.1749
   20MOL    C38 4636   1.904   0.023   7.047  0.0169 -0.0687  0.1062
   20MOL    C39 4637   2.050   7.930   7.090 -0.2053  0.3928 -0.0157
   20MOL    C40 4638   2.059   7.815   7.186 -0.1989 -0.4703 -0.0125
   20MOL    O41 4639   1.965   7.746   7.223  0.1194 -0.4002 -0.2275
   20MOL    O42 4640   2.188   7.789   7.227 -0.4702 -0.0147 -0.1854
   20MOL    C43 4641   2.220   7.670   7.294  0.3773 -0.5037  0.2200
   20MOL    H44 4642   1.838   0.004   7.132  2.0646  0.4474  1.8708
   20MOL    H45 4643   1.872   7.884   6.972  0.9675 -0.5989  0.2034
   20MOL    H46 4644   2.092   0.080   7.147 -0.4679 -0.5449  1.5604
   20MOL    H47 4645   2.186   7.579   7.245 -2.5933  0.7899 -0.1935
   20MOL    H48 4646   2.166   7.673   7.388 -1.2101 -1.6293 -0.6411
   20MOL    H49 4647   2.327   7.659   7.316  0.3470  0.7191  1.0070
   20MOL    C50 4648   2.143   7.928   6.962  0.4801  0.1569  0.4528
   20MOL    C51 4649   2.249   0.100   6.963 -0.0017  0.0946 -0.3930
   20MOL    C52 4650   2.368   0.054   7.047 -1.0087  0.1787  0.1999
   20MOL    O53 4651   2.421   7.879   7.030 -0.1589 -0.3101 -0.0018
   20MOL    O54 4652   2.398   0.131   7.150 -0.7856 -0.3733  0.5419
   20MOL    C55 4653   2.481   0.077   7.256 -0.1172  0.2953  0.1306
   20MOL    H56 4654   2.187   7.828   6.957 -0.8985 -0.5108  1.1572
   20MOL    H57 4655   2.091   0.002   6.867 -1.0159 -0.7588  1.1774
   20MOL    H58 4656   2.218   0.188   7.020  1.5244 -1.2622  2.6700
   20MOL    H59 4657   2.496   0.143   7.341  0.1068  0.3812  0.0249
   20MOL    H60 4658   2.579   0.049   7.217 -1.1250 -0.9117 -1.5992
   20MOL    H61 4659   2.441   7.915   7.293 -1.6934  0.4901 -1.0131
   20MOL    C62 4660   2.285   0.148   6.819  0.0328 -0.2458  0.0117
   20MOL    C63 4661   2.379   0.272   6.812 -0.3143 -0.6343 -0.5129
   20MOL    C64 4662   2.437   0.290   6.667 -0.1625 -0.3749  0.1633
   20MOL    O65 4663   2.557   0.294   6.640  0.0637 -0.0294  0.6358
   20MOL    O66 4664   2.333   0.288   6.571  0.5762 -0.1118 -0.0267
   20MOL    C67 4665   2.358   0.283   6.436 -0.1030 -0.0316 -0.5338
   20MOL    H68 4666   2.329   0.068   6.760 -2.4839 -1.5190 -0.1884
   20MOL    H69 4667   2.186   0.170   6.779 -0.7172 -1.2580  1.2937
   20MOL    H70 4668   2.463   0.263   6.881 -0.6667 -0.6785 -0.0869
   20MOL    H71 4669   2.266   0.263   6.382 -0.5810 -0.0118  0.2725
   20MOL    H72 4670   2.425   0.200   6.415  1.2579  0.7053  0.7837
   20MOL    H73 4671   2.421   0.365   6.400  1.8435 -2.5403 -3.0725
   20MOL    C74 4672   2.319   0.407   6.858  0.3375 -0.3328 -0.2919
   20MOL    C75 4673   2.427   0.495   6.925 -0.4777  0.9813 -1.0197
   20MOL    C76 4674   2.397   0.644   6.920  0.0950  1.1321 -0.0616
   20MOL    O77 4675   2.471   0.723   6.861  0.3384  0.3857 -0.0957
   20MOL    O78 4676   2.279   0.670   6.985 -0.0836 -0.7229 -0.3953
   20MOL    C79 4677   2.235   0.805   6.998 -0.3633  0.4324 -0.1749
   20MOL    H80 4678   2.272   0.456   6.773 -1.0507 -0.4331  0.3981
   20MOL    H81 4679   2.240   0.380   6.928  0.1136  1.3398  0.1337
   20MOL    H82 4680   2.524   0.491   6.876  0.8260  0.4142  1.5453
   20MOL    H83 4681   2.218   0.848   6.899 -2.0418  0.9731  0.3162
   20MOL    H84 4682   2.308   0.856   7.060 -1.5626 -0.8734  2.3664
   20MOL    H85 4683   2.148   0.805   7.064 -0.5576  0.0961 -0.4297
   20MOL    C86 4684   2.465   0.448   7.063 -0.4523  0.0838 -0.2827
   20MOL    C87 4685   2.594   0.518   7.124 -0.8443  0.5993  0.7524
   20MOL    C88 4686   2.588   0.522   7.276  0.3209 -0.4036 -0.7207
   20MOL    O89 4687   2.639   0.612   7.343  0.3051 -0.0212 -0.3097
   20MOL    O90 4688   2.544   0.407   7.329  0.3450 -0.2444 -0.0488
   20MOL    C91 4689   2.541   0.395   7.470 -0.0792  0.1657 -0.5289
   20MOL    H92 4690   2.385   0.455   7.136  0.4253 -1.8233  0.9033
   20MOL    H93 4691   2.472   0.339   7.060 -0.7386  0.0854 -1.3299
   20MOL    H94 4692   2.591   0.624   7.100  0.0917  0.9910  2.3216
   20MOL    H95 4693   2.498   0.486   7.511  0.4716 -0.5266  1.6497
   20MOL    H96 4694   2.638   0.370   7.511 -0.6099  0.8403  1.1457
   20MOL    H97 4695   2.483   0.305   7.493  1.6271 -0.1833  2.5998
   20MOL    C98 4696   2.732   0.451   7.082  0.2151 -0.2784  1.4343
   20MOL    C99 4697   2.846   0.555   7.066 -0.1246  0.5829  0.4112
   20MOL   C100 4698   2.979   0.478   7.063  0.6316  0.0543 -0.3454
   20MOL   O101 4699   3.049   0.469   6.962 -0.3189  0.4291 -0.4789
   20MOL   O102 4700   3.009   0.423   7.182  0.0215  0.1694  0.2500
   20MOL   C103 4701   3.122   0.338   7.191 -0.1919  0.6613  0.0375
   20MOL   H104 4702   2.755   0.368   7.149  0.5335 -0.9287  0.5166
   20MOL   H105 4703   2.714   0.404   6.986 -2.6614  0.6621  1.4758
   20MOL   H106 4704   2.843   0.628   7.147 -1.1514  0.3744  0.5697
   20MOL   H107 4705   3.215   0.393   7.178 -0.4703  1.0009 -0.5588
   20MOL   H108 4706   3.123   0.264   7.110 -0.0367  1.3168 -0.5656
   20MOL   H109 4707   3.130   0.290   7.288 -1.9886  0.2246 -0.0082
   20MOL   C110 4708   2.833   0.643   6.938 -0.6876 -0.3851  0.1238
   20MOL   C111 4709   2.924   0.770   6.934 -0.3352 -0.2096 -0.0875
   20MOL   C112 4710   2.956   0.819   6.792  0.1785  0.6360 -0.2066
   20MOL   O113 4711   3.069   0.859   6.759 -0.4200  0.2234 -0.1688
   20MOL   O114 4712   2.850   0.818   6.712  0.1104 -0.1060 -0.2292
   20MOL   C115 4713   2.874   0.857   6.574  0.1870 -0.5062 -0.0711
   20MOL   H116 4714   2.859   0.583   6.850  3.3265  1.5743 -0.1100
   20MOL   H117 4715   2.733   0.688   6.936  0.4546  2.1629 -2.4882
   20MOL   H118 4716   3.023   0.755   6.979 -0.9561  0.4952  1.5399
   20MOL   H119 4717   2.784   0.849   6.513 -0.2746 -0.5881  0.6193
   20MOL   H120 4718   2.944   0.788   6.527  0.4193 -0.2144 -0.1518
   20MOL   H121 4719   2.907   0.961   6.569  0.5136 -0.5893  0.3500
   20MOL   C122 4720   2.854   0.893   7.016  0.4056  1.0479 -0.6917
   20MOL   C123 4721   2.948   1.005   7.053  0.5168  0.4368  0.0130
   20MOL   C124 4722   2.878   1.141   7.088 -0.1169  0.8023 -0.4570
   20MOL   O125 4723   2.760   1.134   7.124 -0.4657  0.0720 -0.0918
   20MOL   O126 4724   2.948   1.249   7.063 -0.0930  0.3501  0.4704
   20MOL   C127 4725   2.887   1.367   7.111  0.4962 -0.1749  0.0854
   20MOL   H128 4726   2.767   0.927   6.961 -0.1278  1.1044  0.1882
   20MOL   H129 4727   2.795   0.862   7.101 -0.4577  0.1099 -1.6205
   20MOL   H130 4728   2.997   1.036   6.961  2.0955 -1.2779  0.2676
   20MOL   H131 4729   2.779   1.372   7.099  0.8057 -1.2283 -3.6338
   20MOL   H132 4730   2.927   1.447   7.049  1.4902 -1.0902 -0.4774
   20MOL   H133 4731   2.900   1.383   7.218  0.2117  0.9388 -0.0488
   20MOL   C134 4732   3.065   0.966   7.151 -0.0448 -0.3380  0.7274
   20MOL   C135 4733   3.007   0.925   7.290  0.3962 -0.1390 -0.9649
   20MOL   C136 4734   3.035   0.777   7.332  0.5858  0.9452 -0.5977
   20MOL   O137 4735   3.120   0.711   7.270  0.1815 -0.2760 -0.8794
   20MOL   O138 4736   2.944   0.737   7.422  0.4850 -0.2373 -0.7185
   20MOL   C139 4737   2.950   0.613   7.498  0.1264 -0.6796  0.8027
   20MOL   H140 4738   3.126   0.889   7.103 -0.5483  0.4888 -1.2854
   20MOL   H141 4739   3.141   1.044   7.161 -0.8845  0.4501  1.0082
   20MOL   H142 4740   2.899   0.934   7.275  0.2187  0.9761  0.8821
   20MOL   H143 4741   3.028   0.625   7.574 -0.2668  1.6698  0.8847
   20MOL   H144 4742   2.974   0.533   7.429  0.2206 -1.6818  1.9793
   20MOL   H145 4743   2.850   0.592   7.536 -1.2233  0.0512 -2.2280
   20MOL   C146 4744   3.052   1.034   7.393  0.0505 -0.8612  0.2829
   20MOL   C147 4745   2.987   1.033   7.539 -0.1475  0.3225  0.0859
   20MOL   C148 4746   3.062   0.935   7.633 -0.3514 -0.9081 -0.6595
   20MOL   O149 4747   3.168   0.891   7.594  0.4406 -0.0583 -0.5969
   20MOL   O150 4748   3.002   0.901   7.752 -0.0504  0.2650  0.3463
   20MOL   C151 4749   3.070   0.809   7.830 -0.8909 -0.3197  0.0208
   20MOL   H152 4750   3.161   1.028   7.399 -0.0181 -1.3638  1.1376
   20MOL   H153 4751   3.029   1.130   7.346  0.7215 -0.5452  0.5908
   20MOL   H154 4752   2.890   0.986   7.523 -0.2640  0.7618 -0.4746
   20MOL   H155 4753   3.014   0.786   7.920 -0.8438  0.1864  0.1793
   20MOL   H156 4754   3.161   0.857   7.866 -1.5913  0.8505  0.2568
   20MOL   H157 4755   3.088   0.715   7.777  2.0047  0.9491 -1.3689
   20MOL   C158 4756   2.980   1.171   7.608  0.4711 -0.4119  0.4901
   20MOL   C159 4757   2.877   1.271   7.538 -0.7643 -0.7936 -0.1687
   20MOL   C160 4758   2.733   1.234   7.510 -0.5921  0.6657 -0.2845
   20MOL   O161 4759   2.672   1.155   7.583 -0.5720  0.4002 -0.3470
   20MOL   O162 4760   2.682   1.299   7.409 -0.5260  0.1063  0.1306
   20MOL   C163 4761   2.550   1.294   7.370 -0.4549  0.0287  0.0395
   20MOL   H164 4762   2.934   1.162   7.707 -1.3422  0.8244 -0.1966
   20MOL   H165 4763   3.082   1.207   7.618 -0.1828  1.0945  1.9826
   20MOL   H166 4764   2.916   1.288   7.438 -2.5874  2.7782 -0.3597
   20MOL   H167 4765   2.556   1.301   7.262 -0.6729  3.1211  0.1727
   20MOL   H168 4766   2.478   1.370   7.401 -0.3083  0.4590 -0.6702
   20MOL   H169 4767   2.513   1.192   7.384  0.7929 -0.3219  0.8143
   20MOL   C170 4768   2.873   1.410   7.604 -0.2579  0.5660  1.3209
   20MOL   C171 4769   3.010   1.479   7.629 -0.4134  0.3496  0.4055
   20MOL   C172 4770   3.115   1.496   7.517  0.1057 -0.3381 -1.5224
   20MOL   O173 4771   3.090   1.489   7.395 -0.0822 -0.3095 -0.5503
   20MOL   O174 4772   3.233   1.528   7.572  0.1252 -0.0045  0.3923
   20MOL   C175 4773   3.340   1.567   7.493  0.1029 -0.3620 -0.1717
   20MOL   H176 4774   2.800   1.474   7.554  0.7532 -0.0407 -1.0448
   20MOL   H177 4775   2.839   1.391   7.705  0.0235 -1.0258  1.1401
   20MOL   H178 4776   3.075   1.412   7.685  1.4580  1.2554 -0.6315
   20MOL   H179 4777   3.439   1.564   7.539  1.2293 -0.1732 -2.5165
   20MOL   H180 4778   3.318   1.671   7.470  0.9900  0.4207  2.3284
   20MOL   H181 4779   3.347   1.509   7.401  0.2347 -0.9256  0.1888
   20MOL   C182 4780   2.996   1.603   7.717 -0.0032 -0.5759 -0.2571
   20MOL   C183 4781   2.966   1.588   7.868  0.5294 -0.1609 -0.4258
   20MOL   C184 4782   3.093   1.563   0.021 -0.0762 -0.2639 -0.2974
   20MOL   O185 4783   3.109   1.458   0.085 -0.2250  0.2993  0.5273
   20MOL   O186 4784   3.167   1.675   0.026  0.3771  0.2276 -0.4315
   20MOL   C187 4785   3.294   1.668   0.082  0.2178 -0.0223 -0.2955
   20MOL   H188 4786   3.088   1.659   7.700  0.9451 -2.5379 -1.8320
   20MOL   H189 4787   2.913   1.659   7.675 -1.5316 -2.7266 -0.1787
   20MOL   H190 4788   2.910   1.495   7.881 -3.4065  2.2193  0.8278
   20MOL   H191 4789   3.332   1.767   0.105  2.9672 -1.3855  1.2396
   20MOL   H192 4790   3.369   1.630   0.013 -1.1379  0.6099 -2.1499
   20MOL   H193 4791   3.294   1.616   0.178 -0.8463 -1.6581 -1.1571
   20MOL   C194 4792   2.878   1.701   0.012  0.4956  0.7279 -0.1247
   20MOL   C195 4793   2.726   1.708   7.894 -0.3700 -0.3569  0.7170
   20MOL   C196 4794   2.660   1.566   7.874 -0.3417  0.2513 -0.5515
   20MOL   O197 4795   2.681   1.475   0.021 -0.3821  0.0278  1.0106
   20MOL   O198 4796   2.576   1.557   7.775  0.3919  0.2320  0.3626
   20MOL   C199 4797   2.499   1.440   7.745  0.3015  0.0941  0.5266
   20MOL   H200 4798   2.871   1.677   0.119  1.2264 -0.5868 -0.3624
   20MOL   H201 4799   2.932   1.795   0.004  0.2105  0.6860 -3.0071
   20MOL   H202 4800   2.729   1.754   7.795  0.2848 -1.3153  0.2857
   20MOL   H203 4801   2.570   1.365   7.711  0.7506  0.6142  0.3095
   20MOL   H204 4802   2.426   1.472   7.671 -0.6773 -0.8462  1.0731
   20MOL   H205 4803   2.449   1.392   7.829  0.7929 -2.7846 -0.7873
   20MOL   C206 4804   2.640   1.796   0.057 -0.0162 -0.0145 -0.4707
   20MOL   C207 4805   2.503   1.837   0.009  0.0380  0.3469 -0.2525
   20MOL   C208 4806   2.406   1.877   0.129  0.2493 -0.5311  0.9265
   20MOL   O209 4807   2.364   1.991   0.149  0.4527  0.4764 -0.4218
   20MOL   O210 4808   2.378   1.769   0.207  0.0862 -0.1078  0.2743
   20MOL   C211 4809   2.287   1.790   0.312 -0.6213 -0.0903  0.1173
   20MOL   H212 4810   2.625   1.747   0.153 -2.2007 -0.5445 -1.0419
   20MOL   H213 4811   2.691   1.890   0.079 -0.2629 -0.0795  0.3984
   20MOL   H214 4812   2.461   1.741   7.913 -0.4812 -0.9734  4.6009
   20MOL   H215 4813   2.325   1.857   0.389 -0.3433 -0.1059 -0.0075
   20MOL   H216 4814   2.291   1.689   0.352  1.5741 -0.0045  0.1726
   20MOL   H217 4815   2.186   1.809   0.274  0.0631  0.7034 -1.3333
   20MOL   C218 4816   2.492   1.932   7.818 -0.2959 -0.4503  0.5775
   20MOL   C219 4817   2.556   2.076   7.839 -0.0576  0.2658 -0.2655
   20MOL   C220 4818   2.704   2.086   7.810 -0.2976 -0.3949  0.5606
   20MOL   O221 4819   2.766   1.997   7.751 -0.1754 -0.0693 -0.0590
   20MOL   O222 4820   2.765   2.195   7.857 -0.2809 -0.2104  0.1654
   20MOL   C223 4821   2.908   2.201   7.855  0.2091 -0.8312 -0.1843
   20MOL   H224 4822   2.530   1.883   7.728 -1.9299 -0.0330 -0.3608
   20MOL   H225 4823   2.387   1.933   7.788 -1.5520  2.9732  4.5617
   20MOL   H226 4824   2.533   2.101   0.010  0.1217 -1.9644  0.3449
   20MOL   H227 4825   2.925   2.306   7.882 -4.0078 -0.5286  1.7310
   20MOL   H228 4826   2.947   2.187   7.754  1.3274 -2.2635  0.4274
   20MOL   H229 4827   2.972   2.132   7.909  2.0078  0.4341 -0.6806
   20MOL   C230 4828   2.473   2.171   7.752 -1.0328 -0.6080 -0.2483
   20MOL   C231 4829   2.327   2.209   7.790 -0.3975  0.1127  0.5685
   20MOL   C232 4830   2.304   2.309   7.902 -0.2754  0.1059 -0.1379
   20MOL   O233 4831   2.194   2.309   0.028 -0.4453 -0.0505 -0.7810
   20MOL   O234 4832   2.411   2.375   7.932  0.1357  0.6147  0.9763
   20MOL   C235 4833   2.402   2.488   0.089  0.0354 -0.7293  0.3055
   20MOL   H236 4834   2.519   2.262   7.713  1.9254 -2.1540 -0.5101
   20MOL   H237 4835   2.459   2.123   7.655 -0.2074  0.0834 -0.7114
   20MOL   H238 4836   2.261   2.124   7.810 -0.6260  0.4164  1.1200
   20MOL   H239 4837   2.358   2.476   0.188 -1.9043 -0.1574 -0.4672
   20MOL   H240 4838   2.342   2.563   0.039 -0.8382 -2.1759 -0.8719
   20MOL   H241 4839   2.503   2.528   0.095  0.8307 -2.5916 -0.0929
   20MOL   H242 4840   2.289   2.258   7.700  1.0658 -1.9181 -1.2055
   21MOL     C1 4841   0.192   6.144   0.123 -0.6560  0.5315  0.2644
   21MOL     C2 4842   0.195   6.164   7.902  0.3779  0.2151  0.6878
   21MOL     C3 4843   0.318   6.224   7.856  0.1223 -0.1676  0.2980
   21MOL     O4 4844   0.376   6.169   7.758  0.0218  0.2287  0.5010
   21MOL     O5 4845   0.364   6.328   7.919  0.1320  0.1981 -0.5827
   21MOL     C6 4846   0.485   6.396   7.871 -0.3155 -0.3155  0.3075
   21MOL     H7 4847   0.270   6.073   0.150  0.2959  1.7622  0.8275
   21MOL     H8 4848   0.101   6.098   0.161 -0.4680 -2.2747 -2.5267
   21MOL     H9 4849   0.134   6.247   7.868  0.5691  0.3148  0.5897
   21MOL    H10 4850   0.566   6.323   7.865 -1.7127 -1.8213 -0.5452
   21MOL    H11 4851   0.523   6.483   7.926  0.9898  2.0728 -4.1267
   21MOL    H12 4852   0.479   6.436   7.770 -1.8097  2.5998  1.4747
   21MOL    H13 4853   0.217   6.236   0.176  0.7379  0.8581 -0.9009
   21MOL    C14 4854   0.157   6.034   7.827 -0.5919 -0.4441  0.4921
   21MOL    C15 4855   0.007   6.003   7.831  0.3035 -0.7630  0.0638
   21MOL    C16 4856   7.861   6.080   7.726 -0.0712  0.2090 -0.2644
   21MOL    O17 4857   7.781   6.024   7.647  0.2320 -0.1784  0.2266
   21MOL    O18 4858   7.877   6.212   7.725  0.0805  0.3344  0.4869
   21MOL    C19 4859   7.812   6.296   7.631  0.5336 -0.6354 -0.0088
   21MOL    H20 4860   0.177   6.033   7.720  2.9379  1.3567  1.0598
   21MOL    H21 4861   0.210   5.947   7.865  0.9869  0.2543 -0.0807
   21MOL    H22 4862   7.910   6.049   7.925  0.2680  0.3826 -0.5069
   21MOL    H23 4863   7.823   6.261   7.529 -0.2288  1.9263 -0.9823
   21MOL    H24 4864   7.866   6.390   7.641  0.0704 -0.5401  1.8573
   21MOL    H25 4865   7.707   6.295   7.660  0.1239  1.4068 -1.3579
   21MOL    C26 4866   7.888   5.856   7.851  0.8061 -0.6442 -0.0020
   21MOL    C27 4867   7.903   5.819   0.063 -0.3415 -0.0780  0.0089
   21MOL    C28 4868   7.792   5.877   0.150 -0.4829 -0.4766 -0.5675
   21MOL    O29 4869   7.687   5.925   0.097 -0.1189  0.5357 -0.1356
   21MOL    O30 4870   7.819   5.855   0.286  0.3569 -0.7928 -0.3171
   21MOL    C31 4871   7.719   5.874   0.384 -0.4169 -0.2469 -0.1442
   21MOL    H32 4872   7.784   5.843   7.824  0.0288  0.4905  2.2821
   21MOL    H33 4873   0.017   5.791   7.790  0.7404 -0.3055 -0.4276
   21MOL    H34 4874   0.066   5.861   0.094 -0.6997  1.2257 -0.5995
   21MOL    H35 4875   7.694   5.980   0.381 -1.0491 -0.4196 -2.5416
   21MOL    H36 4876   7.752   5.843   0.483  1.3641 -2.5506 -1.4278
   21MOL    H37 4877   7.640   5.805   0.353 -0.3144 -0.2900 -0.3128
   21MOL    C38 4878   7.918   5.662   0.082 -0.9627  0.6227  0.0963
   21MOL    C39 4879   0.132   5.611   0.046  0.1942  0.3787 -0.1036
   21MOL    C40 4880   0.236   5.642   0.156  0.1248  0.2154  0.1647
   21MOL    O41 4881   0.333   5.719   0.141 -0.5438  0.3012 -0.6931
   21MOL    O42 4882   0.206   5.572   0.274 -0.0373 -0.1401 -0.0970
   21MOL    C43 4883   0.305   5.548   0.371 -0.2334 -0.1807  0.6149
   21MOL    H44 4884   7.898   5.639   0.187  0.7037 -0.0696  0.2792
   21MOL    H45 4885   7.848   5.611   0.016 -0.9209 -3.6488  3.1404
   21MOL    H46 4886   0.179   5.663   7.895  0.3346 -0.4515 -0.5449
   21MOL    H47 4887   0.403   5.529   0.326 -0.0730  0.1184  0.8345
   21MOL    H48 4888   0.276   5.454   0.418  1.1821 -0.8651  0.1356
   21MOL    H49 4889   0.306   5.628   0.446  0.2367 -0.5298  0.9859
   21MOL    C50 4890   0.146   5.463   7.931 -0.3563 -0.7003 -0.3112
   21MOL    C51 4891   0.287   5.418   7.887 -0.0643 -0.1263 -1.0621
   21MOL    C52 4892   0.358   5.323   0.055 -0.2148 -0.6340 -0.7479
   21MOL    O53 4893   0.298   5.233   0.115  0.4441  0.1577 -0.1106
   21MOL    O54 4894   0.485   5.355   0.066 -0.0430 -0.3506  0.0942
   21MOL    C55 4895   0.567   5.269   0.146  0.0287 -0.3167 -0.6526
   21MOL    H56 4896   0.100   5.385   0.059 -0.1378 -0.1301  0.5957
   21MOL    H57 4897   0.087   5.459   7.839 -1.3065 -1.7836  0.3345
   21MOL    H58 4898   0.341   5.512   7.875  1.7804 -1.2044 -1.2646
   21MOL    H59 4899   0.533   5.272   0.249  1.7173 -1.2385 -0.0578
   21MOL    H60 4900   0.671   5.301   0.138 -0.2134  0.8619  0.7348
   21MOL    H61 4901   0.552   5.168   0.108 -2.8389  0.2135 -1.0115
   21MOL    C62 4902   0.287   5.358   7.744 -0.1255 -0.2143 -0.3956
   21MOL    C63 4903   0.287   5.467   7.635 -0.4278 -0.8805  0.6023
   21MOL    C64 4904   0.417   5.546   7.637 -0.2163  0.1338 -0.1657
   21MOL    O65 4905   0.518   5.492   7.600 -0.5974  0.0371 -0.4743
   21MOL    O66 4906   0.412   5.657   7.708 -0.1941  0.1657  1.1025
   21MOL    C67 4907   0.525   5.733   7.729  0.1164  0.0735  0.1646
   21MOL    H68 4908   0.367   5.292   7.712 -1.3248 -1.6243 -0.5225
   21MOL    H69 4909   0.200   5.294   7.731 -0.0343 -0.6795  1.1511
   21MOL    H70 4910   0.205   5.536   7.654  1.4704  0.9478  2.6090
   21MOL    H71 4911   0.620   5.680   7.735  1.5535  2.3928 -1.3580
   21MOL    H72 4912   0.529   5.769   7.831  1.2780  1.3003 -0.2934
   21MOL    H73 4913   0.542   5.811   7.654  2.5833 -1.5868 -1.1065
   21MOL    C74 4914   0.263   5.403   7.496  0.3009 -0.9229 -0.4994
   21MOL    C75 4915   0.121   5.347   7.466  0.4694  0.1368  0.2979
   21MOL    C76 4916   0.020   5.453   7.435 -0.6458 -0.3944  0.8274
   21MOL    O77 4917   7.926   5.484   7.319 -0.0763  0.1008  0.2725
   21MOL    O78 4918   7.908   5.525   7.539  0.2051 -0.5047 -0.2712
   21MOL    C79 4919   7.811   5.629   7.507 -0.2119  0.6568  0.3210
   21MOL    H80 4920   0.271   5.484   7.422  1.2466  2.6528  3.3253
   21MOL    H81 4921   0.345   5.336   7.469  1.2146 -0.4537  1.0627
   21MOL    H82 4922   0.079   5.305   7.558  1.4182  1.2165  1.2358
   21MOL    H83 4923   7.743   5.593   7.430 -0.6776  1.3391  0.4100
   21MOL    H84 4924   7.844   5.726   7.467 -0.0142  1.4985  2.4287
   21MOL    H85 4925   7.756   5.653   7.598 -1.1591 -0.0923 -0.0608
   21MOL    C86 4926   0.129   5.243   7.346 -0.0928  0.3746 -0.0320
   21MOL    C87 4927   0.137   5.097   7.400 -1.6053  0.4196 -0.5458
   21MOL    C88 4928   0.253   5.080   7.492 -0.1842 -0.6350  0.4497
   21MOL    O89 4929   0.249   5.076   7.616 -0.9414 -0.2082  0.0082
   21MOL    O90 4930   0.368   5.081   7.431 -0.8999  0.2968  0.1284
   21MOL    C91 4931   0.494   5.045   7.503 -0.3224  0.2045 -0.2263
   21MOL    H92 4932   0.050   5.256   7.272  0.2600 -2.5945 -1.0074
   21MOL    H93 4933   0.215   5.266   7.284  1.1900  0.9948  1.9173
   21MOL    H94 4934   0.159   5.041   7.309 -1.0508  0.8543 -0.6796
   21MOL    H95 4935   0.581   5.032   7.440  2.5807  1.3124  3.3432
   21MOL    H96 4936   0.481   4.963   7.574 -1.1715 -0.4450 -1.1158
   21MOL    H97 4937   0.512   5.140   7.554 -1.5771  0.3193  0.0251
   21MOL    C98 4938   0.002   5.044   7.459  0.1105  0.4515 -0.3545
   21MOL    C99 4939   7.818   5.068   7.364  0.1437  0.3132  0.1858
   21MOL   C100 4940   7.832   5.024   7.214  0.8877 -0.4259  0.2438
   21MOL   O101 4941   7.928   4.961   7.181  0.0418  0.4697 -0.0711
   21MOL   O102 4942   7.735   5.062   7.134  0.0885  0.5729 -0.1710
   21MOL   C103 4943   7.738   5.015   7.001 -0.2331 -0.2036 -0.9495
   21MOL   H104 4944   0.015   4.936   7.465 -0.7435  0.2617 -1.6273
   21MOL   H105 4945   7.916   5.085   7.558 -1.6400  2.3611 -1.4452
   21MOL   H106 4946   7.801   5.176   7.362  3.1189  0.8769  2.3975
   21MOL   H107 4947   7.836   5.031   6.957  0.1780 -0.1634 -0.0343
   21MOL   H108 4948   7.661   5.068   6.945 -0.4674  0.0021 -0.4379
   21MOL   H109 4949   7.707   4.911   6.998 -2.4874  0.3570  0.7783
   21MOL   C110 4950   7.686   5.004   7.426 -0.3040 -0.6110  0.1945
   21MOL   C111 4951   7.558   5.084   7.392 -0.5714 -0.0910 -0.1922
   21MOL   C112 4952   7.448   4.978   7.410 -0.0206 -0.1695  0.7914
   21MOL   O113 4953   7.372   4.952   7.316  0.1682  0.2541  0.2177
   21MOL   O114 4954   7.442   4.926   7.536  0.0370 -0.1406  0.3712
   21MOL   C115 4955   7.347   4.827   7.563 -0.3320  0.4515  0.4973
   21MOL   H116 4956   7.685   4.899   7.396 -1.9106 -0.2059 -1.2388
   21MOL   H117 4957   7.701   5.008   7.534  0.9729 -1.2319  0.0548
   21MOL   H118 4958   7.552   5.111   7.287  0.3884 -1.7443 -0.6978
   21MOL   H119 4959   7.357   4.760   7.478  2.6002 -0.3780  1.4402
   21MOL   H120 4960   7.244   4.863   7.561 -1.5765 -2.8586  1.6463
   21MOL   H121 4961   7.369   4.776   7.657  1.6505  0.1785 -0.0891
   21MOL   C122 4962   7.535   5.213   7.472  0.0671  0.1354 -0.2536
   21MOL   C123 4963   7.418   5.313   7.414 -0.0182  0.3153  0.5792
   21MOL   C124 4964   7.276   5.254   7.409  0.9052 -0.0087  0.1678
   21MOL   O125 4965   7.238   5.186   7.501  0.1670 -0.0101  0.1211
   21MOL   O126 4966   7.204   5.287   7.299 -0.0257 -0.4637 -0.3055
   21MOL   C127 4967   7.071   5.235   7.286 -0.9688 -0.7792  0.3796
   21MOL   H128 4968   7.517   5.185   7.575  0.3001  0.4144 -0.1341
   21MOL   H129 4969   7.633   5.261   7.466 -0.6251  1.6236  0.0534
   21MOL   H130 4970   7.439   5.344   7.312  0.4914  1.0376  0.8984
   21MOL   H131 4971   7.043   5.153   7.351  0.1084 -1.1537  0.3816
   21MOL   H132 4972   7.060   5.194   7.185 -3.0316  1.3101 -0.2851
   21MOL   H133 4973   6.990   5.304   7.311 -0.7390 -0.1117 -0.6575
   21MOL   C134 4974   7.424   5.448   7.490  0.0555 -0.0725  0.8089
   21MOL   C135 4975   7.409   5.584   7.411 -0.0729  0.1909 -0.3367
   21MOL   C136 4976   7.287   5.582   7.323  0.1162 -0.1574 -0.3573
   21MOL   O137 4977   7.173   5.576   7.365 -0.3342  0.3940  0.3997
   21MOL   O138 4978   7.318   5.597   7.194  0.3440  0.4715 -0.2520
   21MOL   C139 4979   7.226   5.582   7.092  0.6466  0.0979  0.4200
   21MOL   H140 4980   7.351   5.436   7.570  0.0324  0.9763  0.9514
   21MOL   H141 4981   7.525   5.447   7.531  0.0485 -1.2883  0.8136
   21MOL   H142 4982   7.499   5.611   7.356 -0.0192  0.7831  0.0326
   21MOL   H143 4983   7.187   5.480   7.087 -1.1064  0.5181  3.8215
   21MOL   H144 4984   7.268   5.593   6.992  1.6258  2.8361  1.0961
   21MOL   H145 4985   7.146   5.655   7.101  0.0985 -0.3419 -0.7361
   21MOL   C146 4986   7.419   5.690   7.517 -0.6268  0.6576 -0.2542
   21MOL   C147 4987   7.404   5.840   7.480  0.0360 -0.1582 -0.1510
   21MOL   C148 4988   7.384   5.931   7.600  1.2198 -0.6451 -0.3161
   21MOL   O149 4989   7.380   5.890   7.718  0.1805 -0.1731  0.2822
   21MOL   O150 4990   7.374   6.062   7.572  0.6529  0.1401 -0.0385
   21MOL   C151 4991   7.343   6.158   7.674 -0.4170  0.1601 -0.6324
   21MOL   H152 4992   7.350   5.673   7.599 -1.0133 -1.7313 -1.0462
   21MOL   H153 4993   7.517   5.689   7.565 -1.0002 -0.2517  0.4817
   21MOL   H154 4994   7.309   5.842   7.425  0.0392  0.8832 -0.1308
   21MOL   H155 4995   7.236   6.172   7.690 -0.2340 -0.6649  1.5421
   21MOL   H156 4996   7.387   6.250   7.637  3.9134 -1.7541 -0.5307
   21MOL   H157 4997   7.400   6.133   7.764 -0.0474  0.3022 -0.8294
   21MOL   C158 4998   7.511   5.889   7.383  0.2663  1.0599  0.5791
   21MOL   C159 4999   7.497   5.863   7.222  0.3093  0.0323 -0.5252
   21MOL   C160 5000   7.391   5.953   7.159 -0.2348 -0.1450 -0.6728
   21MOL   O161 5001   7.347   6.052   7.225 -0.3838  0.5486 -0.0435
   21MOL   O162 5002   7.364   5.926   7.033  0.4276  0.5084 -0.1157
   21MOL   C163 5003   7.268   6.003   6.955 -0.2674 -0.0562  0.0733
   21MOL   H164 5004   7.519   5.997   7.397 -2.2434  1.4561 -0.7684
   21MOL   H165 5005   7.607   5.854   7.420  1.2188  1.0374 -1.8377
   21MOL   H166 5006   7.478   5.758   7.202 -1.4330  0.3040 -0.3439
   21MOL   H167 5007   7.218   5.947   6.876  0.1388  0.0691 -0.2773
   21MOL   H168 5008   7.317   6.079   6.894  0.9504 -0.0534  1.0267
   21MOL   H169 5009   7.193   6.044   7.022  0.5237  2.4016 -0.4967
   21MOL   C170 5010   7.629   5.897   7.144 -0.3255  0.9491 -0.2789
   21MOL   C171 5011   7.750   5.799   7.145 -0.3692 -0.0779  0.5776
   21MOL   C172 5012   7.720   5.665   7.068 -0.3135  0.4794 -0.0965
   21MOL   O173 5013   7.741   5.640   6.945 -0.0782  0.3190  0.0454
   21MOL   O174 5014   7.681   5.569   7.150 -0.6963 -0.3467 -0.8981
   21MOL   C175 5015   7.642   5.447   7.098 -0.0544  0.0725  0.3762
   21MOL   H176 5016   7.609   5.909   7.037  0.6627  0.2125 -0.5560
   21MOL   H177 5017   7.658   5.995   7.180 -0.4255  0.2781  1.6556
   21MOL   H178 5018   7.782   5.767   7.244 -1.2973  0.4291  1.0506
   21MOL   H179 5019   7.617   5.451   6.992  1.1633  0.5110  0.0989
   21MOL   H180 5020   7.557   5.405   7.152 -0.9475  0.1206 -0.9541
   21MOL   H181 5021   7.720   5.371   7.102  0.2556  0.3140 -0.9095
   21MOL   C182 5022   7.862   5.880   7.072  0.6305  0.0257 -0.0887
   21MOL   C183 5023   7.930   5.988   7.150  0.0983 -0.2008 -0.4893
   21MOL   C184 5024   0.101   5.923   7.248 -0.5942  0.1680 -0.4768
   21MOL   O185 5025   0.076   5.921   7.369 -0.8401  0.5593  0.0287
   21MOL   O186 5026   0.205   5.866   7.182  0.9318  0.2219 -0.3520
   21MOL   C187 5027   0.291   5.784   7.260  0.0553  0.0013  0.6319
   21MOL   H188 5028   0.006   5.809   7.041  1.1532  0.3403  0.4803
   21MOL   H189 5029   7.828   5.911   6.973 -0.2658  1.2704  0.6041
   21MOL   H190 5030   7.859   6.038   7.217  0.0458  0.5448 -1.0882
   21MOL   H191 5031   0.237   5.705   7.312 -1.0294  0.7255  0.6417
   21MOL   H192 5032   0.353   5.847   7.324  2.4925  0.2537 -1.8972
   21MOL   H193 5033   0.362   5.745   7.187  2.3544 -0.9011  3.2620
   21MOL   C194 5034   0.054   6.094   7.058  0.0499 -0.5640  0.2088
   21MOL   C195 5035   0.093   6.233   7.123 -0.5116 -0.3972 -0.1002
   21MOL   C196 5036   0.245   6.260   7.110  0.2192 -0.2961  0.6136
   21MOL   O197 5037   0.296   6.315   7.009  0.2275  0.7187 -0.2258
   21MOL   O198 5038   0.309   6.204   7.203  0.0712  0.6889 -0.5141
   21MOL   C199 5039   0.448   6.214   7.198 -0.6653 -0.0090 -0.2783
   21MOL   H200 5040   0.145   6.053   7.012  0.3224  0.1138  0.1367
   21MOL   H201 5041   7.918   6.115   6.977  0.3371 -1.6984 -0.3445
   21MOL   H202 5042   0.077   6.234   7.231 -1.2821 -0.0796 -0.2120
   21MOL   H203 5043   0.490   6.188   7.295  1.0357  1.7372 -0.5049
   21MOL   H204 5044   0.482   6.317   7.184  2.2930 -1.1007 -1.5340
   21MOL   H205 5045   0.481   6.151   7.116 -1.2818 -1.4178  0.5496
   21MOL   C206 5046   0.010   6.353   7.060  0.1017 -0.1468  0.4757
   21MOL   C207 5047   7.793   6.340   7.082  0.2646  0.7286  0.0919
   21MOL   C208 5048   7.752   6.353   7.228  0.5401 -0.6501  0.7506
   21MOL   O209 5049   7.821   6.396   7.318 -0.2195 -0.3290  0.1316
   21MOL   O210 5050   7.632   6.296   7.238  0.3341 -0.0457 -0.1555
   21MOL   C211 5051   7.572   6.290   7.366 -0.0542  0.6874 -0.4543
   21MOL   H212 5052   0.047   6.445   7.104  0.4667 -0.4534  0.8068
   21MOL   H213 5053   0.029   6.353   6.953  0.4398 -2.6420  0.4938
   21MOL   H214 5054   7.751   6.242   7.062  0.5619  1.1759 -2.9970
   21MOL   H215 5055   7.548   6.381   7.420 -0.3568  0.6817 -0.5799
   21MOL   H216 5056   7.639   6.234   7.432 -1.1266 -0.3449 -0.2316
   21MOL   H217 5057   7.485   6.226   7.356 -0.1097  0.2942  2.0760
   21MOL   C218 5058   7.715   6.435   6.988 -0.3410 -0.1931  0.5198
   21MOL   C219 5059   7.688   6.392   6.843  0.0487 -0.6892 -0.4793
   21MOL   C220 5060   7.608   6.255   6.843 -0.3323  0.7195 -0.3327
   21MOL   O221 5061   7.555   6.205   6.948 -0.2621 -0.1440 -0.4170
   21MOL   O222 5062   7.601   6.195   6.724  0.0526  0.0512 -0.2899
   21MOL   C223 5063   7.525   6.077   6.717 -0.4521 -0.2022 -0.3322
   21MOL   H224 5064   7.618   6.444   7.038 -1.8246 -1.8147 -1.9266
   21MOL   H225 5065   7.760   6.534   6.998  0.3638 -0.3141 -1.2230
   21MOL   H226 5066   7.785   6.376   6.795  1.7350  1.0582  2.1782
   21MOL   H227 5067   7.423   6.114   6.720 -0.0345  1.4437 -3.7039
   21MOL   H228 5068   7.560   5.995   6.779  1.4385 -0.3658 -1.5556
   21MOL   H229 5069   7.545   6.041   6.616  1.3647  0.3067 -0.1809
   21MOL   C230 5070   7.620   6.494   6.759  0.9166 -0.6661  0.4355
   21MOL   C231 5071   7.495   6.572   6.815 -0.5677 -0.3268 -0.1126
   21MOL   C232 5072   7.450   6.679   6.716 -0.3099  0.1507  0.0198
   21MOL   O233 5073   7.366   6.646   6.630 -0.1044 -0.0072 -0.6622
   21MOL   O234 5074   7.520   6.792   6.729 -0.6086  1.2563  0.2147
   21MOL   C235 5075   7.461   6.907   6.655  0.0993 -0.2877 -0.1727
   21MOL   H236 5076   7.696   6.569   6.737  0.2022  0.2407  0.9985
   21MOL   H237 5077   7.591   6.445   6.666  1.2224 -0.7818  0.4014
   21MOL   H238 5078   7.513   6.625   6.909 -1.0302  0.3738 -0.4208
   21MOL   H239 5079   7.519   6.993   6.688 -2.1301  1.2077 -0.0592
   21MOL   H240 5080   7.361   6.924   6.695 -0.6551 -0.7250 -1.8268
   21MOL   H241 5081   7.458   6.892   6.547 -2.6865 -2.1472  0.1199
   21MOL   H242 5082   7.414   6.503   6.837  0.5512 -1.5449  0.2405
   22MOL     C1 5083   0.986   7.639   7.217 -0.4357 -0.4479  0.7496
   22MOL     C2 5084   1.083   7.596   7.330  0.0608 -0.0137 -0.2904
   22MOL     C3 5085   1.176   7.711   7.381  1.1405  0.1760  0.0788
   22MOL     O4 5086   1.184   7.817   7.323  0.2957  0.0387  0.3035
   22MOL     O5 5087   1.251   7.672   7.487 -0.1702  0.2157 -0.0308
   22MOL     C6 5088   1.358   7.754   7.532 -0.4048  0.3784 -0.9107
   22MOL     H7 5089   1.039   7.677   7.129 -2.0968 -0.1534 -0.1579
   22MOL     H8 5090   0.907   7.709   7.244 -0.6732 -0.4773  0.1406
   22MOL     H9 5091   1.150   7.529   7.275 -1.2151  0.3709 -2.3306
   22MOL    H10 5092   1.354   7.741   7.640 -5.1025 -3.5847 -1.3670
   22MOL    H11 5093   1.340   7.858   7.505 -0.4339  1.0583  1.5964
   22MOL    H12 5094   1.455   7.712   7.508 -0.2859 -0.3776  0.7994
   22MOL    H13 5095   0.936   7.548   7.181  1.1732 -0.9242 -0.3751
   22MOL    C14 5096   1.012   7.517   7.444 -0.1582 -0.3526  1.0538
   22MOL    C15 5097   0.918   7.607   7.531  0.8127 -0.0342 -0.3372
   22MOL    C16 5098   0.774   7.603   7.478 -0.6216  0.2861 -0.6003
   22MOL    O17 5099   0.715   7.707   7.462  0.0669 -0.2005 -0.2461
   22MOL    O18 5100   0.724   7.478   7.471 -0.2301  0.0229  0.1024
   22MOL    C19 5101   0.594   7.444   7.422 -0.0731 -0.1126  0.0459
   22MOL    H20 5102   0.960   7.433   7.398 -2.9726  2.0150 -0.2407
   22MOL    H21 5103   1.087   7.474   7.510  2.4681  1.2177 -0.8332
   22MOL    H22 5104   0.946   7.711   7.517  0.2179  0.1579 -0.1270
   22MOL    H23 5105   0.575   7.464   7.316 -0.5270  2.0970  0.5173
   22MOL    H24 5106   0.520   7.496   7.482 -2.0519 -2.3393 -0.4071
   22MOL    H25 5107   0.566   7.341   7.441  1.1111 -0.5459 -0.4994
   22MOL    C26 5108   0.911   7.568   7.676 -0.3255  0.1478  1.1403
   22MOL    C27 5109   1.026   7.626   7.756  0.4005  0.1902  0.5022
   22MOL    C28 5110   1.002   7.772   7.786 -0.2566  0.5677  0.0707
   22MOL    O29 5111   1.046   7.863   7.715 -0.4702  0.1537 -0.3402
   22MOL    O30 5112   0.934   7.800   7.894 -0.0991  0.0379  0.4632
   22MOL    C31 5113   0.900   7.927   7.932 -0.5167  0.0488 -0.5487
   22MOL    H32 5114   0.817   7.588   7.728  0.4604  1.7788  1.9743
   22MOL    H33 5115   0.906   7.460   7.690 -1.5269 -0.0317 -0.5266
   22MOL    H34 5116   1.100   7.621   7.676  2.0436  2.8075  1.7627
   22MOL    H35 5117   0.880   0.011   0.105  1.9991 -2.9824  0.4699
   22MOL    H36 5118   0.827   0.037   7.863 -0.2496 -1.0579 -1.5398
   22MOL    H37 5119   0.980   0.066   7.912  0.0289 -0.5605 -0.5443
   22MOL    C38 5120   1.074   7.542   7.880 -0.5738  0.5865 -0.0603
   22MOL    C39 5121   1.128   7.405   7.834  0.0259  0.3580  0.5552
   22MOL    C40 5122   1.257   7.416   7.754 -1.0262 -0.5500 -0.0844
   22MOL    O41 5123   1.263   7.355   7.649 -0.5465  0.7695  0.1724
   22MOL    O42 5124   1.351   7.484   7.812  0.1766 -0.5209  0.4567
   22MOL    C43 5125   1.477   7.485   7.761 -0.0102  0.2242 -0.0774
   22MOL    H44 5126   1.144   7.603   0.004 -0.3571  0.8004 -0.5561
   22MOL    H45 5127   0.987   7.544   0.014 -0.0970  1.6766  0.5469
   22MOL    H46 5128   1.061   7.357   7.762  1.1512 -0.4963  0.0619
   22MOL    H47 5129   1.482   7.528   7.661  1.2624  1.4551  0.4994
   22MOL    H48 5130   1.518   7.384   7.760 -1.6504 -0.4374 -0.5077
   22MOL    H49 5131   1.545   7.539   7.827  0.6891  2.0624 -2.2289
   22MOL    C50 5132   1.140   7.299   0.013  0.4228 -0.7755  0.0512
   22MOL    C51 5133   1.005   7.257   0.068 -0.6562 -0.0863  0.4954
   22MOL    C52 5134   0.924   7.176   7.899 -0.2375  0.5416 -0.3008
   22MOL    O53 5135   0.818   7.218   7.853  0.1277  0.1482  0.0895
   22MOL    O54 5136   0.977   7.051   7.879  0.3569 -0.3687  0.9193
   22MOL    C55 5137   0.907   6.960   7.788  0.3577 -0.3813  0.0172
   22MOL    H56 5138   1.200   7.217   7.909  0.3046 -1.2250  0.8564
   22MOL    H57 5139   1.201   7.351   0.088  0.6202 -0.8960 -0.0260
   22MOL    H58 5140   0.941   7.344   0.079  1.1663  1.1167  1.8508
   22MOL    H59 5141   0.880   7.007   7.694 -0.6238 -0.5624  0.2048
   22MOL    H60 5142   0.811   6.924   7.825  0.5598 -0.7277  0.2020
   22MOL    H61 5143   0.968   6.876   7.756  0.9675  0.9987 -2.5690
   22MOL    C62 5144   1.007   7.191   0.204  0.7118 -0.1165 -0.5613
   22MOL    C63 5145   0.868   7.168   0.281  0.3365 -0.0768  0.4055
   22MOL    C64 5146   0.800   7.033   0.242  0.1765 -0.5836  0.2778
   22MOL    O65 5147   0.857   6.924   0.253  0.6395 -0.5881  0.8782
   22MOL    O66 5148   0.673   7.050   0.202  0.5430 -0.2753 -0.0948
   22MOL    C67 5149   0.589   6.944   0.160 -0.2123  0.4601 -0.1647
   22MOL    H68 5150   1.068   7.101   0.198 -1.3865 -1.6758  0.6697
   22MOL    H69 5151   1.069   7.250   0.271  0.5644 -1.8600  1.1404
   22MOL    H70 5152   0.807   7.249   0.241 -0.7039 -1.1382 -0.1675
   22MOL    H71 5153   0.585   6.868   0.238  0.6858 -0.6903 -1.2176
   22MOL    H72 5154   0.637   6.898   0.074 -1.3785  0.1275 -0.6463
   22MOL    H73 5155   0.491   6.983   0.134  0.1224  0.0695 -2.0386
   22MOL    C74 5156   0.883   7.181   0.435 -0.5038  0.3986  0.2263
   22MOL    C75 5157   0.920   7.322   0.486  0.4474  0.3584  0.7706
   22MOL    C76 5158   0.837   7.433   0.419 -0.1728  0.0856 -0.0556
   22MOL    O77 5159   0.873   7.486   0.316  0.0552 -0.1473  0.1487
   22MOL    O78 5160   0.711   7.425   0.451 -0.2333  0.2635  0.8277
   22MOL    C79 5161   0.615   7.515   0.392  0.5077 -0.0978 -0.1632
   22MOL    H80 5162   0.798   7.138   0.487 -1.1510  0.0982 -1.0482
   22MOL    H81 5163   0.963   7.110   0.457 -1.3841 -0.3988  0.9174
   22MOL    H82 5164   1.023   7.346   0.459 -0.0168  0.1533 -1.2847
   22MOL    H83 5165   0.643   7.618   0.412 -0.0029 -0.0202  0.1857
   22MOL    H84 5166   0.515   7.477   0.415  0.5804 -0.0889  0.1669
   22MOL    H85 5167   0.619   7.497   0.284  1.4437 -0.5084 -0.0564
   22MOL    C86 5168   0.901   7.335   0.638 -0.7119 -0.5010  0.6650
   22MOL    C87 5169   1.017   7.276   0.717  0.3612  0.4114  0.0562
   22MOL    C88 5170   1.153   7.355   0.703 -0.2648 -0.3386  0.2910
   22MOL    O89 5171   1.250   7.304   0.645  0.0877  0.1501 -0.5405
   22MOL    O90 5172   1.149   7.468   0.764  0.2884 -0.3622  0.2197
   22MOL    C91 5173   1.246   7.565   0.750 -0.0754  0.8137  0.0709
   22MOL    H92 5174   0.889   7.436   0.677  1.0015  0.1242 -0.3372
   22MOL    H93 5175   0.803   7.292   0.655 -0.7573 -1.7348 -2.2812
   22MOL    H94 5176   1.036   7.180   0.669  0.6678  1.2261 -1.4854
   22MOL    H95 5177   1.199   7.659   0.720 -0.3360  0.1963 -1.5328
   22MOL    H96 5178   1.318   7.545   0.670 -0.8851  1.3295 -0.7886
   22MOL    H97 5179   1.292   7.582   0.847 -1.6022 -1.5763  1.2349
   22MOL    C98 5180   0.978   7.251   0.867 -0.4256  0.3985  0.3357
   22MOL    C99 5181   1.071   7.155   0.947  0.2628 -0.1587  0.5227
   22MOL   C100 5182   1.052   7.175   1.104 -0.1148 -0.3826  0.1829
   22MOL   O101 5183   0.940   7.201   1.147 -0.7080 -0.4518  0.4478
   22MOL   O102 5184   1.152   7.152   1.172  0.4743  0.1609  0.5277
   22MOL   C103 5185   1.146   7.167   1.310 -1.0477  0.8275  0.1306
   22MOL   H104 5186   0.954   7.343   0.919 -2.3960 -0.6328  1.3068
   22MOL   H105 5187   0.879   7.205   0.861 -0.4996  0.5422  0.4623
   22MOL   H106 5188   1.176   7.175   0.927 -0.5415  1.5065 -2.3764
   22MOL   H107 5189   1.161   7.268   1.347 -0.6222  0.6413  0.4682
   22MOL   H108 5190   1.237   7.129   1.357 -0.0628  2.6476 -0.2754
   22MOL   H109 5191   1.064   7.122   1.366  0.2150  1.2643  2.3909
   22MOL   C110 5192   1.037   7.016   0.911 -0.1701 -0.5163 -0.7632
   22MOL   C111 5193   1.131   6.898   0.959  0.0967  0.9384 -0.0728
   22MOL   C112 5194   1.061   6.766   0.941  0.0255 -0.9054  0.0711
   22MOL   O113 5195   0.977   6.742   0.850 -0.5080 -0.7721  0.2973
   22MOL   O114 5196   1.093   6.685   1.037 -0.5310  0.1008  0.4922
   22MOL   C115 5197   1.057   6.549   1.026  0.8165  0.3991  0.2036
   22MOL   H116 5198   0.933   6.997   0.939 -0.2408  1.4475  0.3877
   22MOL   H117 5199   1.024   7.011   0.803 -1.5893  0.2598 -0.6329
   22MOL   H118 5200   1.143   6.904   1.067 -0.4666  0.4566  0.0242
   22MOL   H119 5201   1.097   6.490   1.109  0.8845 -0.1106 -0.1912
   22MOL   H120 5202   1.102   6.501   0.939  0.2583  1.9199 -0.9363
   22MOL   H121 5203   0.948   6.543   1.032  0.7794  1.7742  1.3188
   22MOL   C122 5204   1.270   6.895   0.885 -0.4743 -0.7680  0.6269
   22MOL   C123 5205   1.381   6.963   0.956 -0.0755 -0.2934 -0.2037
   22MOL   C124 5206   1.406   6.889   1.089 -0.0509  0.8210  0.8444
   22MOL   O125 5207   1.370   6.938   1.197 -0.3455 -0.0821  0.1530
   22MOL   O126 5208   1.449   6.757   1.070 -0.7052  0.1137 -0.1651
   22MOL   C127 5209   1.448   6.676   1.188 -0.7286 -0.1544  0.5737
   22MOL   H128 5210   1.291   6.797   0.843 -1.3140 -0.4387 -0.6037
   22MOL   H129 5211   1.259   6.954   0.793 -0.5553 -1.3488  0.2617
   22MOL   H130 5212   1.372   7.065   0.992  0.5651 -0.2334 -0.2050
   22MOL   H131 5213   1.481   6.576   1.160  2.6504  1.3040 -0.9187
   22MOL   H132 5214   1.347   6.682   1.227 -0.0020  2.5300  2.1218
   22MOL   H133 5215   1.519   6.708   1.264  1.1543 -1.0725 -0.7599
   22MOL   C134 5216   1.512   6.954   0.873  0.2849 -0.2843 -0.4417
   22MOL   C135 5217   1.524   7.055   0.758 -0.4041 -0.5080  0.2196
   22MOL   C136 5218   1.556   7.201   0.814  0.8798  0.2785 -0.8883
   22MOL   O137 5219   1.661   7.257   0.780 -0.2045 -0.2513 -0.9449
   22MOL   O138 5220   1.465   7.261   0.897  0.5985  0.0680  0.2592
   22MOL   C139 5221   1.490   7.391   0.945  0.0971  0.1236  0.5718
   22MOL   H140 5222   1.591   6.990   0.939 -0.1413 -0.8491  0.3847
   22MOL   H141 5223   1.548   6.856   0.844 -0.4803 -0.6682 -0.1152
   22MOL   H142 5224   1.425   7.058   0.712 -0.9995 -2.1281  1.3478
   22MOL   H143 5225   1.492   7.461   0.862 -0.3181  0.2469  0.6657
   22MOL   H144 5226   1.581   7.410   1.002  1.3240  2.1617 -1.9757
   22MOL   H145 5227   1.406   7.426   1.005 -1.2493  0.1234 -1.2904
   22MOL   C146 5228   1.634   7.009   0.661 -0.5459 -0.2520 -0.2061
   22MOL   C147 5229   1.598   6.891   0.557 -0.0133  0.4365 -1.2569
   22MOL   C148 5230   1.446   6.903   0.518 -0.6364  0.0405  0.4478
   22MOL   O149 5231   1.374   6.804   0.518 -0.6650 -0.0426 -0.1121
   22MOL   O150 5232   1.412   7.022   0.482  0.0591  0.0488  0.3418
   22MOL   C151 5233   1.278   7.041   0.444  0.2886 -0.2964 -0.4457
   22MOL   H152 5234   1.661   7.096   0.601  2.4458  0.5230  2.1407
   22MOL   H153 5235   1.732   6.982   0.698 -0.0932 -0.1241 -1.2919
   22MOL   H154 5236   1.612   6.794   0.605 -0.1473  0.3478 -1.3979
   22MOL   H155 5237   1.203   7.002   0.512  0.8739  0.8082  0.8613
   22MOL   H156 5238   1.257   6.997   0.346  0.7946 -2.0556  0.2193
   22MOL   H157 5239   1.250   7.146   0.434  0.3808 -0.4780 -3.0667
   22MOL   C158 5240   1.695   6.877   0.435  0.1381  0.1144 -0.0480
   22MOL   C159 5241   1.812   6.775   0.449  0.7612 -0.3579 -0.1962
   22MOL   C160 5242   1.765   6.632   0.477  0.9609  0.6369 -0.3739
   22MOL   O161 5243   1.827   6.554   0.561  0.6075  0.1439 -0.2641
   22MOL   O162 5244   1.656   6.606   0.402  0.5617 -0.0829 -0.7302
   22MOL   C163 5245   1.592   6.481   0.416  0.0445  0.9520  0.3050
   22MOL   H164 5246   1.634   6.864   0.346 -1.0995  0.9181  0.6775
   22MOL   H165 5247   1.737   6.976   0.415  0.3320 -0.0710 -0.5736
   22MOL   H166 5248   1.875   6.813   0.530  2.6269 -0.1730 -1.7156
   22MOL   H167 5249   1.650   6.417   0.349  0.5007 -0.2537  1.8161
   22MOL   H168 5250   1.487   6.485   0.387  0.4676  1.0816 -1.2482
   22MOL   H169 5251   1.594   6.438   0.516 -1.3597  0.7579  0.2591
   22MOL   C170 5252   1.906   6.785   0.325 -0.4174  0.1397  0.1874
   22MOL   C171 5253   1.968   6.922   0.293 -0.7547 -1.0323 -0.4058
   22MOL   C172 5254   2.040   6.976   0.417  0.0862 -0.2843  0.2338
   22MOL   O173 5255   2.003   7.073   0.476 -0.1147  0.3037  0.0110
   22MOL   O174 5256   2.137   6.889   0.455 -0.1481 -0.8616  0.3960
   22MOL   C175 5257   2.206   6.910   0.586 -0.4685 -0.2289  0.1028
   22MOL   H176 5258   1.981   6.708   0.342 -1.2438 -0.2018  2.4344
   22MOL   H177 5259   1.844   6.760   0.239 -0.4925  2.3198 -0.4183
   22MOL   H178 5260   1.888   6.995   0.278 -1.3208 -1.1604  1.7989
   22MOL   H179 5261   2.137   6.900   0.670 -0.6353 -0.6534 -0.0832
   22MOL   H180 5262   2.253   7.008   0.585  0.3564 -0.6198  0.0568
   22MOL   H181 5263   2.289   6.840   0.586 -0.0433  0.2777  0.1617
   22MOL   C182 5264   2.056   6.925   0.171 -0.4489  0.9681  0.7825
   22MOL   C183 5265   2.094   7.063   0.118 -0.3029 -0.2429 -0.6830
   22MOL   C184 5266   2.249   7.081   0.117  0.8167 -0.5059 -0.1878
   22MOL   O185 5267   2.315   7.086   0.017  0.3630  0.1330  0.0730
   22MOL   O186 5268   2.298   7.073   0.240 -0.1776  0.2720 -0.1128
   22MOL   C187 5269   2.433   7.090   0.262  0.1781  0.1308  0.4249
   22MOL   H188 5270   2.147   6.870   0.194 -0.1298  1.6235  1.0906
   22MOL   H189 5271   2.001   6.871   0.093 -1.1807  1.2531  1.0904
   22MOL   H190 5272   2.070   7.150   0.178  1.3820 -0.3134  0.1174
   22MOL   H191 5273   2.478   7.168   0.202 -1.9983  1.5961  0.6787
   22MOL   H192 5274   2.495   7.004   0.233  1.2601  0.7742  0.8060
   22MOL   H193 5275   2.444   7.096   0.371 -4.6252  2.8900  0.8611
   22MOL   C194 5276   2.026   7.093   7.911  0.5299 -0.3130 -0.6307
   22MOL   C195 5277   1.879   7.136   7.923 -0.4955  0.1724 -0.3842
   22MOL   C196 5278   1.862   7.273   0.045  0.8232 -0.4300 -0.9401
   22MOL   O197 5279   1.781   7.304   0.139 -0.6835  0.6300  0.2894
   22MOL   O198 5280   1.930   7.363   7.919 -0.2116  0.4146 -0.3925
   22MOL   C199 5281   1.928   7.495   0.027  0.1504 -0.5900  0.2374
   22MOL   H200 5282   2.086   7.168   7.858 -1.7985  2.6025  0.7401
   22MOL   H201 5283   2.029   7.001   7.852  0.3755 -0.4451 -0.4327
   22MOL   H202 5284   1.818   7.064   0.046  1.0107  0.0567  1.1567
   22MOL   H203 5285   2.030   7.531   0.015  0.6088 -1.4420  1.4589
   22MOL   H204 5286   1.910   7.506   0.134 -1.0784  2.4278 -0.2444
   22MOL   H205 5287   1.863   7.561   7.902 -1.3815 -1.5975  0.7740
   22MOL   C206 5288   1.816   7.117   7.781  0.1659  0.3305  0.3361
   22MOL   C207 5289   1.887   7.177   7.658  0.3587  0.5471 -0.8855
   22MOL   C208 5290   1.969   7.072   7.575  0.3180 -0.7224 -0.6724
   22MOL   O209 5291   2.094   7.066   7.591 -0.1469  0.1129 -0.5169
   22MOL   O210 5292   1.894   6.997   7.496  0.3572  0.1072  0.5425
   22MOL   C211 5293   1.961   6.917   7.398  0.0453 -0.0341 -0.2122
   22MOL   H212 5294   1.807   7.010   7.766  1.1977  0.2848  0.0127
   22MOL   H213 5295   1.710   7.145   7.789  0.2721  0.1598  2.6452
   22MOL   H214 5296   1.964   7.240   7.702  1.0047  0.2324 -1.5519
   22MOL   H215 5297   2.032   6.977   7.341  3.4519 -2.1636  1.6688
   22MOL   H216 5298   1.886   6.876   7.329  1.2702  0.2463 -1.7410
   22MOL   H217 5299   2.019   6.835   7.440  1.8498  1.1802 -0.3073
   22MOL   C218 5300   1.785   7.258   7.571  0.0786 -0.5851 -0.1256
   22MOL   C219 5301   1.839   7.382   7.490  0.3836  0.4523  0.3389
   22MOL   C220 5302   1.867   7.504   7.579 -0.6106 -0.4231 -0.3480
   22MOL   O221 5303   1.966   7.503   7.650  0.5777 -0.3326  0.4310
   22MOL   O222 5304   1.776   7.606   7.556 -1.0277  0.2956  0.1903
   22MOL   C223 5305   1.802   7.731   7.612 -0.4975  0.1764 -0.6035
   22MOL   H224 5306   1.744   7.198   7.490 -1.0855 -1.5750  1.1863
   22MOL   H225 5307   1.706   7.298   7.635  0.3741 -2.8841  1.7243
   22MOL   H226 5308   1.744   7.409   7.444  0.4526 -0.0209 -0.0810
   22MOL   H227 5309   1.707   7.782   7.630 -0.8355 -0.3092 -0.9880
   22MOL   H228 5310   1.847   7.805   7.547  0.9878  1.6632  2.0484
   22MOL   H229 5311   1.858   7.724   7.705 -1.2806  0.2587 -0.1180
   22MOL   C230 5312   1.944   7.360   7.378  0.1380 -0.1868  0.1070
   22MOL   C231 5313   1.902   7.284   7.249  0.8111 -0.1220 -0.1969
   22MOL   C232 5314   1.788   7.347   7.164 -0.3967 -0.6161  1.2735
   22MOL   O233 5315   1.680   7.382   7.206  0.1134  0.1083 -0.6312
   22MOL   O234 5316   1.823   7.360   7.035 -0.1218  0.0924 -0.8661
   22MOL   C235 5317   1.730   7.399   6.935  0.0739 -0.2616  0.5268
   22MOL   H236 5318   1.969   7.460   7.341 -2.8528  0.3490 -0.5650
   22MOL   H237 5319   2.040   7.322   7.415 -0.1762  1.2045  2.4901
   22MOL   H238 5320   1.871   7.188   7.291  1.5930  0.6443  2.2537
   22MOL   H239 5321   1.782   7.439   6.848 -0.4766  1.5065  0.9863
   22MOL   H240 5322   1.672   7.482   6.975  0.6863  0.6569 -0.4784
   22MOL   H241 5323   1.669   7.318   6.895  0.6709 -0.9568  0.9973
   22MOL   H242 5324   1.987   7.259   7.186  0.8288  0.4171 -0.3883
   23MOL     C1 5325   4.938   7.003   4.551  0.2349 -0.7871  0.3885
   23MOL     C2 5326   4.968   7.046   4.406  0.2520  0.3991  0.5197
   23MOL     C3 5327   4.952   7.197   4.403 -1.5881 -0.3261 -0.2192
   23MOL     O4 5328   4.878   7.255   4.325 -0.0426 -0.2937  1.1633
   23MOL     O5 5329   5.024   7.263   4.480 -0.3526 -0.4806  0.0879
   23MOL     C6 5330   5.046   7.398   4.471  0.1046 -0.6161 -0.0732
   23MOL     H7 5331   5.028   6.989   4.610 -1.0551 -2.4563  2.0445
   23MOL     H8 5332   4.882   6.909   4.554  2.0548 -1.8855  0.8970
   23MOL     H9 5333   4.888   7.004   4.344  3.4732 -2.8621 -1.6051
   23MOL    H10 5334   4.971   7.444   4.535 -1.0048 -0.6724 -1.3090
   23MOL    H11 5335   5.028   7.441   4.372 -0.6807 -0.8441 -0.0297
   23MOL    H12 5336   5.148   7.425   4.500 -0.1255  0.7145 -0.4761
   23MOL    H13 5337   4.867   7.068   4.602 -1.0617 -1.7194 -0.2018
   23MOL    C14 5338   5.110   6.991   4.358 -0.5127  1.5024 -0.3564
   23MOL    C15 5339   5.121   6.834   4.340  0.4390 -0.5331 -0.7911
   23MOL    C16 5340   5.015   6.775   4.244 -0.5757 -0.2599  0.2460
   23MOL    O17 5341   4.974   6.853   4.155  0.2661  0.0049  0.1339
   23MOL    O18 5342   4.973   6.658   4.270 -0.2614  0.5124  0.1782
   23MOL    C19 5343   4.868   6.615   4.184  0.2232  0.4428 -0.8226
   23MOL    H20 5344   5.136   7.032   4.260  0.0233  1.7599 -0.1093
   23MOL    H21 5345   5.183   7.027   4.431 -0.4003  1.3292 -0.3839
   23MOL    H22 5346   5.102   6.782   4.434 -0.8369  0.6548 -0.3777
   23MOL    H23 5347   4.836   6.513   4.208 -0.8738  0.5965 -1.5770
   23MOL    H24 5348   4.879   6.628   4.076  0.4188 -2.4839 -1.1846
   23MOL    H25 5349   4.781   6.678   4.204  1.6375  1.2098  3.4901
   23MOL    C26 5350   5.264   6.808   4.295  0.2935  0.3665  0.4486
   23MOL    C27 5351   5.306   6.657   4.286  0.4462 -0.2511 -0.5012
   23MOL    C28 5352   5.423   6.645   4.187 -0.7433 -0.1231  0.0933
   23MOL    O29 5353   5.517   6.711   4.215 -0.3056 -0.1515  0.4032
   23MOL    O30 5354   5.422   6.564   4.085 -0.6127 -0.0727  0.3499
   23MOL    C31 5355   5.536   6.573   4.007 -0.3081 -0.3792 -0.2729
   23MOL    H32 5356   5.270   6.863   4.201 -1.3220 -0.0775  0.0641
   23MOL    H33 5357   5.322   6.859   4.372 -0.2492 -1.8396  2.3765
   23MOL    H34 5358   5.226   6.598   4.240  0.0518  0.1356 -0.3075
   23MOL    H35 5359   5.542   6.667   3.952 -1.9058 -0.1189 -0.0347
   23MOL    H36 5360   5.513   6.504   3.925 -0.1202  1.9443 -2.3322
   23MOL    H37 5361   5.629   6.555   4.061  0.2669  0.7727 -0.8603
   23MOL    C38 5362   5.335   6.610   4.427  0.5423 -0.1900 -0.3264
   23MOL    C39 5363   5.338   6.452   4.453  0.3689 -0.0083 -0.4214
   23MOL    C40 5364   5.198   6.384   4.455 -0.0784  0.3941  0.6080
   23MOL    O41 5365   5.132   6.369   4.555  0.3645 -0.3626  0.1574
   23MOL    O42 5366   5.154   6.356   4.329 -0.2411  0.0801 -0.0374
   23MOL    C43 5367   5.035   6.287   4.313 -0.4012 -0.1702  0.3525
   23MOL    H44 5368   5.432   6.649   4.457  1.0975 -0.0544 -2.2503
   23MOL    H45 5369   5.273   6.660   4.501 -0.6848  1.7525 -2.5889
   23MOL    H46 5370   5.371   6.454   4.556 -1.6286 -2.3907  0.3194
   23MOL    H47 5371   5.022   6.279   4.205 -0.3483  1.4468  0.2111
   23MOL    H48 5372   4.951   6.348   4.346  0.7427  1.6504 -0.0010
   23MOL    H49 5373   5.035   6.186   4.353  0.3838 -0.6152 -0.7439
   23MOL    C50 5374   5.441   6.378   4.368  0.3259  0.3413 -0.6835
   23MOL    C51 5375   5.472   6.237   4.415  0.3961  1.0076  0.5637
   23MOL    C52 5376   5.543   6.157   4.308  0.2050 -0.1926  0.5732
   23MOL    O53 5377   5.657   6.109   4.327 -0.0721  0.2864  0.3996
   23MOL    O54 5378   5.469   6.141   4.191 -0.1197 -0.0265  0.2307
   23MOL    C55 5379   5.519   6.054   4.088 -0.1203  0.3288  0.6502
   23MOL    H56 5380   5.412   6.373   4.263 -0.8013  2.6098 -0.4961
   23MOL    H57 5381   5.534   6.434   4.353  1.1423 -0.7070  0.4296
   23MOL    H58 5382   5.385   6.173   4.429  0.4475  0.5962 -0.9039
   23MOL    H59 5383   5.442   6.003   4.031  0.7416  0.2497 -0.4471
   23MOL    H60 5384   5.571   5.972   4.138  0.4404 -0.3803 -1.0903
   23MOL    H61 5385   5.577   6.092   4.004 -1.7693  0.7422 -0.3140
   23MOL    C62 5386   5.557   6.241   4.550 -0.0009 -0.2592  0.2908
   23MOL    C63 5387   5.582   6.116   4.638  0.1196  0.7817 -0.1949
   23MOL    C64 5388   5.698   6.144   4.740 -0.1724  0.5156  0.2483
   23MOL    O65 5389   5.682   6.234   4.824 -0.4859  0.3856  0.1513
   23MOL    O66 5390   5.798   6.051   4.734  0.0665  0.3217 -0.1990
   23MOL    C67 5391   5.885   6.037   4.843  0.7016  0.1537 -0.0099
   23MOL    H68 5392   5.655   6.280   4.521 -1.1722  1.6122 -1.3032
   23MOL    H69 5393   5.514   6.321   4.612 -1.3735 -1.3710  0.7934
   23MOL    H70 5394   5.618   6.044   4.564 -1.3885 -0.5663  0.3361
   23MOL    H71 5395   5.974   6.097   4.830 -0.4672  1.5789 -1.6881
   23MOL    H72 5396   5.940   5.943   4.840 -0.0535 -0.3435  1.1939
   23MOL    H73 5397   5.837   6.053   4.941 -0.3951  1.1295 -0.6859
   23MOL    C74 5398   5.456   6.059   4.704 -0.2900  0.5662  0.2485
   23MOL    C75 5399   5.447   5.900   4.722  0.0782 -0.0623  0.5121
   23MOL    C76 5400   5.412   5.842   4.590  0.5542 -0.0524 -0.4884
   23MOL    O77 5401   5.469   5.747   4.536  0.2512  0.2693 -1.3958
   23MOL    O78 5402   5.299   5.904   4.543 -0.0990  0.1672  0.2954
   23MOL    C79 5403   5.273   5.910   4.404 -0.3284  0.0959  0.8103
   23MOL    H80 5404   5.460   6.095   4.806  4.8046 -1.4967  0.9596
   23MOL    H81 5405   5.363   6.102   4.667 -1.1827 -1.9197 -0.5556
   23MOL    H82 5406   5.365   5.883   4.791 -0.3490  1.4597  0.3951
   23MOL    H83 5407   5.278   6.013   4.368  0.6937 -1.3383 -3.4072
   23MOL    H84 5408   5.173   5.876   4.379  0.1981 -1.1432  0.3519
   23MOL    H85 5409   5.329   5.839   4.344 -1.0288  1.3518 -1.3916
   23MOL    C86 5410   5.568   5.826   4.786  0.8382  0.4599 -0.0191
   23MOL    C87 5411   5.554   5.677   4.835  0.4135  0.1608 -0.0337
   23MOL    C88 5412   5.687   5.640   4.904 -0.4137 -0.3711  0.1403
   23MOL    O89 5413   5.699   5.629   5.026  0.3002  0.2169 -0.1751
   23MOL    O90 5414   5.790   5.632   4.818 -0.1733 -0.1488  0.0372
   23MOL    C91 5415   5.918   5.629   4.878 -0.3935 -0.3985  0.7397
   23MOL    H92 5416   5.657   5.836   4.723 -0.2595 -1.1890 -1.8967
   23MOL    H93 5417   5.585   5.891   4.872  0.4661  0.2093  0.2427
   23MOL    H94 5418   5.546   5.613   4.747 -2.6535  0.5172 -0.0847
   23MOL    H95 5419   5.995   5.614   4.802 -0.0551  0.0450  0.9874
   23MOL    H96 5420   5.938   5.554   4.955  2.2224  1.1697  1.6725
   23MOL    H97 5421   5.939   5.725   4.926 -0.6593  0.9207 -1.7276
   23MOL    C98 5422   5.434   5.648   4.934  0.8494  0.0726 -0.5843
   23MOL    C99 5423   5.302   5.616   4.866 -0.1592 -0.0598  0.7679
   23MOL   C100 5424   5.302   5.476   4.801  0.0013  0.0296 -0.0956
   23MOL   O101 5425   5.233   5.391   4.860 -0.2320  0.1851 -0.1331
   23MOL   O102 5426   5.356   5.457   4.683  0.8985  0.0481 -0.4437
   23MOL   C103 5427   5.375   5.327   4.632  0.2322  0.4563  0.0652
   23MOL   H104 5428   5.459   5.556   4.988 -0.8445 -0.8606 -1.3521
   23MOL   H105 5429   5.417   5.730   5.004 -0.0692 -1.8127  1.5038
   23MOL   H106 5430   5.289   5.682   4.780 -1.2879 -2.3963 -0.9554
   23MOL   H107 5431   5.276   5.281   4.625 -0.3199  1.6533 -0.1175
   23MOL   H108 5432   5.438   5.258   4.688 -0.4972  0.6802  1.1926
   23MOL   H109 5433   5.407   5.327   4.528  2.7452  0.9723  0.8074
   23MOL   C110 5434   5.179   5.646   4.954 -1.0694  0.1073 -0.1465
   23MOL   C111 5435   5.159   5.795   4.964  0.1161 -0.0084  0.6861
   23MOL   C112 5436   5.109   5.863   4.833  0.8009 -0.1304  0.0614
   23MOL   O113 5437   5.059   5.798   4.743 -0.0304 -0.2568  0.3448
   23MOL   O114 5438   5.134   5.997   4.825 -0.1325  0.2188  0.4226
   23MOL   C115 5439   5.070   6.075   4.730  0.4872 -0.0886  0.1537
   23MOL   H116 5440   5.086   5.607   4.913 -0.4468  0.9810 -2.4734
   23MOL   H117 5441   5.185   5.598   5.052  2.8745  2.8558  1.0786
   23MOL   H118 5442   5.252   5.846   4.987 -0.6860  3.1672 -2.6232
   23MOL   H119 5443   5.134   6.163   4.723  0.7964 -0.4180 -1.4653
   23MOL   H120 5444   4.971   6.121   4.734  0.3992 -0.3387  0.8539
   23MOL   H121 5445   5.086   6.017   4.639  1.5820  1.4976 -0.6796
   23MOL   C122 5446   5.067   5.833   5.090  0.0165 -0.5003  0.1350
   23MOL   C123 5447   5.079   5.972   5.145 -0.0401  0.1927  0.6496
   23MOL   C124 5448   4.937   6.038   5.169  0.5040 -0.1010  0.3148
   23MOL   O125 5449   4.833   5.971   5.188  0.0412  0.2064 -0.2962
   23MOL   O126 5450   4.939   6.173   5.156  0.3569 -0.3020 -0.1258
   23MOL   C127 5451   4.826   6.250   5.165 -0.4863  0.3792 -0.1000
   23MOL   H128 5452   4.971   5.815   5.041  0.5088 -1.0810 -0.6173
   23MOL   H129 5453   5.072   5.760   5.170 -0.7765  0.2900  0.9229
   23MOL   H130 5454   5.123   6.033   5.067 -2.2895 -1.7283 -2.2521
   23MOL   H131 5455   4.773   6.237   5.260  0.9328  0.6802  0.7483
   23MOL   H132 5456   4.758   6.222   5.084 -2.1195  0.0613  1.3475
   23MOL   H133 5457   4.842   6.357   5.151  1.6809 -0.3453 -3.5333
   23MOL   C134 5458   5.171   5.972   5.262 -0.3460  0.3639  0.0268
   23MOL   C135 5459   5.326   5.968   5.246  0.1523 -0.4855 -0.2411
   23MOL   C136 5460   5.381   6.044   5.129 -0.4590  0.6641  0.6185
   23MOL   O137 5461   5.475   5.998   5.063  0.7002  0.0893 -0.5612
   23MOL   O138 5462   5.349   6.168   5.125  0.5032 -0.4127 -0.1468
   23MOL   C139 5463   5.409   6.249   5.024 -0.6606  0.3239  0.5336
   23MOL   H140 5464   5.145   6.065   5.312 -0.3598 -0.6176  1.9179
   23MOL   H141 5465   5.130   5.892   5.325 -0.4141 -0.8824 -1.5781
   23MOL   H142 5466   5.349   5.864   5.223 -3.6560 -1.6391  0.8168
   23MOL   H143 5467   5.517   6.245   5.012 -0.5703  0.8052  1.1472
   23MOL   H144 5468   5.392   6.350   5.063 -1.0604  0.9954 -1.3451
   23MOL   H145 5469   5.359   6.244   4.927  1.0115 -1.8462 -0.2576
   23MOL   C146 5470   5.392   6.004   5.377 -0.4955 -0.0375 -0.3185
   23MOL   C147 5471   5.374   5.898   5.485  0.0739  1.4446 -0.8226
   23MOL   C148 5472   5.415   5.754   5.438  0.4024 -0.4636 -0.0264
   23MOL   O149 5473   5.340   5.661   5.413  0.4103  0.0186 -0.4845
   23MOL   O150 5474   5.548   5.748   5.401  0.4365 -0.0751  0.3274
   23MOL   C151 5475   5.594   5.631   5.334  0.3480  0.4619  0.0369
   23MOL   H152 5476   5.499   6.022   5.363 -0.4344  0.0355  0.2276
   23MOL   H153 5477   5.346   6.098   5.410 -1.8374 -0.4688 -0.9099
   23MOL   H154 5478   5.267   5.887   5.501 -0.0466 -0.9975 -2.8907
   23MOL   H155 5479   5.679   5.649   5.268 -0.5486  1.2734 -0.9338
   23MOL   H156 5480   5.515   5.570   5.289  1.2253  0.1927 -1.1701
   23MOL   H157 5481   5.631   5.568   5.414  0.4796  0.0981 -0.3100
   23MOL   C158 5482   5.452   5.948   5.611 -0.1760  0.1342  1.0012
   23MOL   C159 5483   5.438   5.858   5.743 -0.6562 -1.2369  0.3435
   23MOL   C160 5484   5.514   5.909   5.859  1.1635 -1.0818  0.1036
   23MOL   O161 5485   5.570   5.833   5.932 -0.1788  0.2673  0.7651
   23MOL   O162 5486   5.503   6.039   5.866 -0.8365 -0.3878 -0.0135
   23MOL   C163 5487   5.536   6.116   5.982 -0.3408  0.4337  0.5040
   23MOL   H164 5488   5.558   5.966   5.593 -0.2638 -1.2258 -0.9986
   23MOL   H165 5489   5.404   6.044   5.631  0.4971  0.0273  3.3043
   23MOL   H166 5490   5.483   5.761   5.719  0.1271 -1.4392  2.5608
   23MOL   H167 5491   5.447   6.161   6.025 -2.8464 -2.2720 -1.6856
   23MOL   H168 5492   5.606   6.198   5.970 -0.3748  0.6097  1.4959
   23MOL   H169 5493   5.578   6.043   6.052 -1.9140 -0.7109  0.2893
   23MOL   C170 5494   5.286   5.835   5.777  0.1102 -0.7453 -0.3122
   23MOL   C171 5495   5.261   5.745   5.897 -0.1398  0.1564 -0.3020
   23MOL   C172 5496   5.259   5.818   6.032  0.0220  0.5560  0.3137
   23MOL   O173 5497   5.337   5.781   6.124  0.2807 -0.0038  0.8332
   23MOL   O174 5498   5.165   5.911   6.050 -0.8209  0.2225  0.3779
   23MOL   C175 5499   5.194   6.019   6.142 -0.1687 -0.4849  0.0392
   23MOL   H176 5500   5.233   5.930   5.785  1.3228 -0.1237  0.3905
   23MOL   H177 5501   5.244   5.779   5.693 -1.4341 -0.9987  0.6042
   23MOL   H178 5502   5.339   5.670   5.909 -1.5805 -0.9449  2.7720
   23MOL   H179 5503   5.296   6.057   6.144 -0.2007 -0.4454  0.7592
   23MOL   H180 5504   5.153   5.987   6.237 -3.9795  0.3222 -1.2334
   23MOL   H181 5505   5.132   6.104   6.112 -0.8725 -1.3989 -1.2042
   23MOL   C182 5506   5.140   5.656   5.881  0.4580 -0.1683 -0.6398
   23MOL   C183 5507   5.130   5.556   5.767  0.4021  0.3458 -0.8951
   23MOL   C184 5508   5.253   5.462   5.761 -0.2607  0.2351  0.1495
   23MOL   O185 5509   5.251   5.350   5.810  0.3572  0.7511 -0.1122
   23MOL   O186 5510   5.357   5.521   5.707 -0.2951  0.2368 -0.0501
   23MOL   C187 5511   5.471   5.450   5.679 -0.4380 -0.2118 -0.0416
   23MOL   H188 5512   5.124   5.595   5.970  1.2554 -0.0805 -0.4323
   23MOL   H189 5513   5.055   5.724   5.881  0.3002 -0.3452 -2.6276
   23MOL   H190 5514   5.145   5.617   5.678  2.1903  1.3999  0.0957
   23MOL   H191 5515   5.519   5.420   5.772 -1.5932 -1.7161  0.0713
   23MOL   H192 5516   5.536   5.513   5.618 -0.7161  2.0766  1.9751
   23MOL   H193 5517   5.457   5.360   5.619  1.2988  0.1100 -0.9744
   23MOL   C194 5518   4.994   5.483   5.755 -0.4761  0.0783  0.9551
   23MOL   C195 5519   4.951   5.500   5.604  0.1290  0.2339  0.1437
   23MOL   C196 5520   4.895   5.640   5.573  0.3820 -0.8569  0.2238
   23MOL   O197 5521   4.782   5.652   5.545  0.4592 -0.0883  0.6885
   23MOL   O198 5522   4.986   5.744   5.574 -0.3311  0.6284  0.4351
   23MOL   C199 5523   4.954   5.870   5.535  0.3898 -0.2953 -0.2340
   23MOL   H200 5524   5.002   5.378   5.783 -1.6881  0.2336  1.9191
   23MOL   H201 5525   4.927   5.528   5.829 -1.1970  0.2562  0.1988
   23MOL   H202 5526   4.865   5.434   5.598  0.1740 -0.0038  1.8100
   23MOL   H203 5527   4.908   5.866   5.436 -0.8968  0.1792  0.3352
   23MOL   H204 5528   5.040   5.934   5.521  0.1517 -0.2480 -1.5151
   23MOL   H205 5529   4.898   5.926   5.610 -0.9649 -0.9863 -0.6927
   23MOL   C206 5530   5.046   5.456   5.493 -0.1198 -0.2083  0.0053
   23MOL   C207 5531   4.997   5.383   5.370 -0.2026 -0.1897 -0.4053
   23MOL   C208 5532   4.873   5.441   5.311  0.4078 -0.4359  0.0822
   23MOL   O209 5533   4.759   5.387   5.320 -0.4407  0.2877  0.2704
   23MOL   O210 5534   4.890   5.559   5.254  0.2549  0.0410  0.0551
   23MOL   C211 5535   4.778   5.619   5.191 -0.3521 -1.0438  0.0499
   23MOL   H212 5536   5.098   5.546   5.463 -1.6878  0.3957 -0.9276
   23MOL   H213 5537   5.127   5.392   5.528 -0.8485  0.8617  3.9313
   23MOL   H214 5538   4.968   5.279   5.385 -0.2273 -0.3122 -1.2853
   23MOL   H215 5539   4.789   5.725   5.214  0.0891 -1.4221  1.6773
   23MOL   H216 5540   4.677   5.601   5.229 -0.4044  0.6224  0.7439
   23MOL   H217 5541   4.779   5.591   5.086 -1.8873  1.1406 -0.5883
   23MOL   C218 5542   5.102   5.374   5.264 -0.7513 -0.1382 -0.4383
   23MOL   C219 5543   5.241   5.319   5.295 -0.0627 -0.0063 -0.4640
   23MOL   C220 5544   5.236   5.169   5.335 -0.4265 -0.0775  0.8134
   23MOL   O221 5545   5.306   5.133   5.427 -0.2765 -0.4579  0.2111
   23MOL   O222 5546   5.181   5.085   5.244 -0.4167  0.3368 -0.3513
   23MOL   C223 5547   5.170   4.948   5.283  0.1556 -0.2531 -0.1593
   23MOL   H224 5548   5.059   5.325   5.177 -1.1496 -1.2616  0.3748
   23MOL   H225 5549   5.127   5.476   5.235 -1.0660 -0.4754 -1.9106
   23MOL   H226 5550   5.283   5.378   5.377 -0.4741  1.6062 -1.3980
   23MOL   H227 5551   5.080   4.931   5.343 -0.1189  1.3022 -0.1069
   23MOL   H228 5552   5.258   4.916   5.340 -1.6561 -2.0200  1.7383
   23MOL   H229 5553   5.161   4.883   5.196  0.4730 -2.3566  1.3264
   23MOL   C230 5554   5.342   5.331   5.178  0.6201  0.0233  0.3335
   23MOL   C231 5555   5.491   5.310   5.222 -0.3950  0.0419  0.6903
   23MOL   C232 5556   5.596   5.326   5.108 -0.0995  0.3078  0.6176
   23MOL   O233 5557   5.566   5.319   4.988 -0.7008 -0.0615  0.1505
   23MOL   O234 5558   5.715   5.361   5.159  0.1318 -0.3479  0.3246
   23MOL   C235 5559   5.838   5.336   5.087 -0.2416 -0.5039 -0.1326
   23MOL   H236 5560   5.315   5.263   5.098 -0.6486  0.1424  0.6626
   23MOL   H237 5561   5.343   5.428   5.128 -0.4539  0.0147  0.2849
   23MOL   H238 5562   5.517   5.215   5.269 -0.7222 -0.5798 -0.3645
   23MOL   H239 5563   5.932   5.373   5.128 -0.3073 -0.7182  0.2141
   23MOL   H240 5564   5.829   5.360   4.981  0.3635  1.5220  0.2450
   23MOL   H241 5565   5.851   5.229   5.100  2.0496 -0.1882  0.4344
   23MOL   H242 5566   5.518   5.379   5.301  0.7134  2.2429 -1.5403
   24MOL     C1 5567   5.583   4.266   4.819 -0.1240  0.6115 -0.0156
   24MOL     C2 5568   5.608   4.306   4.676 -0.1023 -0.1759  0.3460
   24MOL     C3 5569   5.757   4.298   4.645  0.2360  0.3889 -0.1779
   24MOL     O4 5570   5.817   4.394   4.595  0.6542  0.0608  0.0212
   24MOL     O5 5571   5.814   4.169   4.661  0.1671  0.4791 -0.0586
   24MOL     C6 5572   5.946   4.144   4.608  0.0807 -0.2586 -0.5944
   24MOL     H7 5573   5.630   4.331   4.893  2.2564  0.0776 -1.0100
   24MOL     H8 5574   5.595   4.161   4.846 -1.9373  0.4690  0.2934
   24MOL     H9 5575   5.578   4.410   4.666 -1.1977 -0.5053  0.0396
   24MOL    H10 5576   5.987   4.238   4.571 -1.6676  0.3414 -1.0734
   24MOL    H11 5577   5.946   4.079   4.521  0.8764  1.6778 -2.0970
   24MOL    H12 5578   6.008   4.092   4.681 -0.8288 -2.1005 -1.0991
   24MOL    H13 5579   5.476   4.283   4.828  0.0389  1.5155  0.2412
   24MOL    C14 5580   5.530   4.227   4.574  0.0452  0.4190  0.4334
   24MOL    C15 5581   5.539   4.291   4.438 -0.5419 -0.3510 -0.2536
   24MOL    C16 5582   5.513   4.189   4.325 -0.7131 -0.1484 -0.8735
   24MOL    O17 5583   5.456   4.078   4.350  0.3985 -0.4197  0.3743
   24MOL    O18 5584   5.549   4.229   4.202  0.0266 -0.5166  0.0565
   24MOL    C19 5585   5.536   4.146   4.091  0.0949 -0.0893  0.7519
   24MOL    H20 5586   5.577   4.129   4.580 -0.5614  0.1595  1.0407
   24MOL    H21 5587   5.427   4.208   4.602 -0.3932  2.3168  0.1843
   24MOL    H22 5588   5.643   4.320   4.421 -0.2333 -1.2419  0.0358
   24MOL    H23 5589   5.560   4.040   4.102  1.8426  0.2327  0.2233
   24MOL    H24 5590   5.612   4.179   4.020  0.0640 -2.0413 -0.2123
   24MOL    H25 5591   5.438   4.164   4.046 -0.6202 -0.0028  2.3319
   24MOL    C26 5592   5.460   4.421   4.401  0.0345  0.1416 -0.2128
   24MOL    C27 5593   5.554   4.545   4.415  0.0399  0.1808  0.6959
   24MOL    C28 5594   5.648   4.533   4.295  0.1946  0.6793 -0.6927
   24MOL    O29 5595   5.768   4.537   4.310  0.5278 -0.1736  0.0063
   24MOL    O30 5596   5.584   4.532   4.170  0.2600  0.3660  0.2286
   24MOL    C31 5597   5.665   4.497   4.063 -0.4205 -0.3499  0.2806
   24MOL    H32 5598   5.411   4.418   4.303 -0.4809  3.0649 -0.0786
   24MOL    H33 5599   5.371   4.426   4.465 -1.1672 -0.1126 -1.8156
   24MOL    H34 5600   5.611   4.536   4.507 -0.7766 -0.0494  1.1836
   24MOL    H35 5601   5.703   4.396   4.078  1.3376  0.6874  3.0806
   24MOL    H36 5602   5.752   4.562   4.053 -1.8474  1.6778  0.6504
   24MOL    H37 5603   5.605   4.494   3.972  1.6234 -1.5192 -1.0688
   24MOL    C38 5604   5.485   4.686   4.414 -0.3156 -0.5306 -0.1774
   24MOL    C39 5605   5.539   4.807   4.493  0.1554 -0.3195 -0.3529
   24MOL    C40 5606   5.522   4.784   4.647 -0.5822  0.1432 -0.6461
   24MOL    O41 5607   5.420   4.807   4.709  0.0153 -0.4251  0.6588
   24MOL    O42 5608   5.624   4.713   4.694 -0.2149 -0.2936 -0.6478
   24MOL    C43 5609   5.613   4.653   4.820  0.4417  0.1728 -0.7084
   24MOL    H44 5610   5.444   4.711   4.316 -0.8004 -0.8779 -0.0646
   24MOL    H45 5611   5.381   4.666   4.442 -0.7694  1.4560 -0.4118
   24MOL    H46 5612   5.477   4.892   4.465 -1.0356 -0.6638  1.1468
   24MOL    H47 5613   5.606   4.723   4.903 -0.9408 -0.2717 -0.4384
   24MOL    H48 5614   5.708   4.602   4.838  1.3562  1.9707 -0.3533
   24MOL    H49 5615   5.532   4.580   4.825 -2.0856  2.9575  1.3514
   24MOL    C50 5616   5.679   4.854   4.463 -0.4594  0.4132  0.1558
   24MOL    C51 5617   5.706   4.901   4.315  0.3193 -0.1586 -0.1662
   24MOL    C52 5618   5.613   5.010   4.263 -0.9230 -0.5330 -0.3358
   24MOL    O53 5619   5.544   4.985   4.166  0.1675  0.1643 -0.3712
   24MOL    O54 5620   5.623   5.135   4.328  0.6280  0.4297  0.1585
   24MOL    C55 5621   5.555   5.240   4.269  0.6321  0.0973  0.6248
   24MOL    H56 5622   5.702   4.939   4.527  0.0525 -0.1578  0.7498
   24MOL    H57 5623   5.756   4.779   4.485  0.7911  1.4249 -0.7108
   24MOL    H58 5624   5.689   4.820   4.245  0.1505  1.0249 -1.5344
   24MOL    H59 5625   5.468   5.280   4.321  0.8147  0.0029  1.0064
   24MOL    H60 5626   5.523   5.234   4.165  0.8892 -1.7575  0.6350
   24MOL    H61 5627   5.633   5.316   4.270 -0.0189  0.7538  1.3177
   24MOL    C62 5628   5.854   4.935   4.295 -0.6939 -0.2955 -0.1059
   24MOL    C63 5629   5.937   4.839   4.205 -0.0462 -0.4579  0.6953
   24MOL    C64 5630   5.906   4.857   4.056  0.0236  0.1688  0.2420
   24MOL    O65 5631   5.993   4.902   3.978 -0.5073 -0.3689  0.0189
   24MOL    O66 5632   5.780   4.822   4.026  0.4504  0.1165  0.0564
   24MOL    C67 5633   5.728   4.820   3.894  0.3995 -0.2223  0.6381
   24MOL    H68 5634   5.876   5.029   4.245 -1.7899  1.1742  2.0714
   24MOL    H69 5635   5.898   4.949   4.394 -0.6422 -1.9426  0.1281
   24MOL    H70 5636   5.899   4.738   4.222  1.2978 -0.9536  0.8127
   24MOL    H71 5637   5.630   4.865   3.909 -0.4878 -1.1831 -2.0754
   24MOL    H72 5638   5.696   4.721   3.863 -0.9495  0.4081 -0.0492
   24MOL    H73 5639   5.774   4.874   3.811 -0.3819 -0.0300  0.3329
   24MOL    C74 5640   6.089   4.836   4.238 -0.3819  0.5781  0.3607
   24MOL    C75 5641   6.156   4.710   4.184 -0.1144  0.1234 -0.7259
   24MOL    C76 5642   6.299   4.735   4.130 -0.5782  0.3968  0.5098
   24MOL    O77 5643   6.363   4.841   4.139 -0.0403 -0.0642  0.1835
   24MOL    O78 5644   6.339   4.630   4.063 -0.0402 -0.0704  0.3233
   24MOL    C79 5645   6.462   4.617   4.001 -0.2549  0.4678 -0.0983
   24MOL    H80 5646   6.146   4.923   4.205  2.7191 -0.9532  1.4593
   24MOL    H81 5647   6.098   4.835   4.347  0.0083 -2.2468  0.3296
   24MOL    H82 5648   6.115   4.670   4.091  1.6368  0.0879 -1.4941
   24MOL    H83 5649   6.500   4.715   3.972  0.5674 -0.4222 -2.1547
   24MOL    H84 5650   6.454   4.557   3.910 -3.3225  2.1093 -0.9713
   24MOL    H85 5651   6.539   4.586   4.072  1.3215 -2.0053 -2.7262
   24MOL    C86 5652   6.155   4.598   4.294  0.0539  0.0140 -0.1453
   24MOL    C87 5653   6.158   4.455   4.233 -0.4081  0.0743 -0.0306
   24MOL    C88 5654   6.259   4.374   4.318 -0.3558  0.8315 -0.3592
   24MOL    O89 5655   6.235   4.272   4.380 -0.5499 -0.2456  0.3696
   24MOL    O90 5656   6.386   4.431   4.322  0.1839 -0.0896  0.2732
   24MOL    C91 5657   6.486   4.370   4.397  0.3956  0.3060  0.2444
   24MOL    H92 5658   6.239   4.607   4.363 -0.4965  0.2315  0.4956
   24MOL    H93 5659   6.076   4.601   4.368  0.8009  1.0846  0.6368
   24MOL    H94 5660   6.211   4.459   4.138  2.4388 -3.2136  1.3134
   24MOL    H95 5661   6.449   4.315   4.484  0.4531  0.1942  0.1979
   24MOL    H96 5662   6.552   4.449   4.433  2.8530 -0.9901 -1.2541
   24MOL    H97 5663   6.551   4.298   4.346  0.5061 -0.8988  2.0165
   24MOL    C98 5664   6.022   4.391   4.215 -0.0049  0.8466  0.5818
   24MOL    C99 5665   6.023   4.262   4.123  0.6940  0.2193  0.1330
   24MOL   C100 5666   5.945   4.148   4.196 -0.6891 -0.6341  0.7675
   24MOL   O101 5667   5.856   4.172   4.273 -0.1088  0.6267  0.1891
   24MOL   O102 5668   5.994   4.027   4.164 -0.0409 -0.8498 -0.0249
   24MOL   C103 5669   5.931   3.909   4.202 -0.1519 -0.4373 -0.3138
   24MOL   H104 5670   5.987   4.368   4.316 -2.3769  1.7680 -0.0016
   24MOL   H105 5671   5.950   4.460   4.172  0.9585  1.1845 -0.5255
   24MOL   H106 5672   6.127   4.232   4.112  0.3165 -0.9185 -0.4214
   24MOL   H107 5673   5.949   3.880   4.306 -2.2132 -0.5999  0.0282
   24MOL   H108 5674   5.961   3.824   4.140  2.0100 -0.7789  1.1542
   24MOL   H109 5675   5.823   3.924   4.192  0.1354  2.0880  0.2012
   24MOL   C110 5676   5.971   4.292   3.983  0.0916  0.3187  0.3644
   24MOL   C111 5677   6.055   4.389   3.899 -0.1114 -0.6014  0.5644
   24MOL   C112 5678   6.193   4.323   3.865  0.6610 -0.3886 -0.0692
   24MOL   O113 5679   6.296   4.370   3.899 -0.0426 -0.4186  0.3435
   24MOL   O114 5680   6.168   4.216   3.786  0.0068  0.2451 -0.3096
   24MOL   C115 5681   6.274   4.128   3.754  0.5898 -0.1733 -0.9558
   24MOL   H116 5682   5.953   4.191   3.945  0.0621  0.2006  0.6920
   24MOL   H117 5683   5.869   4.330   3.989  0.3237  0.9101  0.5336
   24MOL   H118 5684   6.083   4.473   3.962 -0.3784  1.5022 -2.0220
   24MOL   H119 5685   6.375   4.168   3.765 -0.5077  2.2808  0.4790
   24MOL   H120 5686   6.277   4.107   3.647 -0.4886 -0.1265 -0.9974
   24MOL   H121 5687   6.247   4.038   3.810 -0.5393  1.5795  1.3763
   24MOL   C122 5688   5.965   4.448   3.786 -0.0934  0.1559 -0.2263
   24MOL   C123 5689   6.028   4.548   3.688  0.0151  0.3674 -0.4587
   24MOL   C124 5690   5.929   4.590   3.582  0.2558 -0.3342  0.0755
   24MOL   O125 5691   5.821   4.634   3.615  0.2032 -0.2278  0.5306
   24MOL   O126 5692   5.972   4.571   3.461 -0.4436  0.5363  0.2373
   24MOL   C127 5693   5.904   4.621   3.350  0.0461 -0.2341  0.6933
   24MOL   H128 5694   5.914   4.369   3.732  1.8234 -0.5607 -1.0401
   24MOL   H129 5695   5.892   4.506   3.841 -0.6239 -3.2413  2.8957
   24MOL   H130 5696   6.110   4.503   3.632  0.6069  2.2681 -1.1518
   24MOL   H131 5697   5.924   4.545   3.274 -2.3993 -0.2897  0.0327
   24MOL   H132 5698   5.944   4.716   3.317 -0.8717  0.6573  2.0959
   24MOL   H133 5699   5.796   4.635   3.357 -0.2242 -2.3402  1.1039
   24MOL   C134 5700   6.095   4.668   3.764  0.4606  1.4679 -0.3743
   24MOL   C135 5701   6.175   4.777   3.686  0.1022  0.5595 -0.7953
   24MOL   C136 5702   6.287   4.712   3.600 -0.2155  0.8474 -0.8890
   24MOL   O137 5703   6.293   4.739   3.481  0.2682 -0.2536  0.2049
   24MOL   O138 5704   6.357   4.613   3.669  0.8021 -0.0585  0.2217
   24MOL   C139 5705   6.448   4.528   3.601  0.3270  0.3673  0.4847
   24MOL   H140 5706   6.018   4.714   3.827 -1.1606 -2.7864  0.9311
   24MOL   H141 5707   6.157   4.624   3.842 -1.0606 -1.8858 -0.9418
   24MOL   H142 5708   6.225   4.850   3.748  1.0774 -0.5308 -0.2794
   24MOL   H143 5709   6.526   4.575   3.540 -2.1184  2.5600 -1.0691
   24MOL   H144 5710   6.398   4.462   3.530  0.2173 -0.9450  1.7606
   24MOL   H145 5711   6.487   4.460   3.676  0.8461 -0.5922 -0.6326
   24MOL   C146 5712   6.077   4.868   3.602  0.2048 -0.2003  0.3720
   24MOL   C147 5713   6.107   5.018   3.599 -0.0796  0.6211 -0.3181
   24MOL   C148 5714   6.246   5.040   3.528  0.5273  0.3828  0.1827
   24MOL   O149 5715   6.338   5.077   3.597  0.3573  0.1301 -0.2884
   24MOL   O150 5716   6.246   5.025   3.394 -0.3823 -1.1898  0.0059
   24MOL   C151 5717   6.360   5.030   3.319  0.2369 -0.4262  0.3530
   24MOL   H152 5718   6.057   4.821   3.506  0.7653  0.5553 -0.1229
   24MOL   H153 5719   5.985   4.866   3.660  0.6309  0.1067  1.0695
   24MOL   H154 5720   6.125   5.052   3.700  0.0962  1.4480 -0.6236
   24MOL   H155 5721   6.414   4.938   3.340  0.4865 -1.2508 -3.4814
   24MOL   H156 5722   6.403   5.123   3.354 -0.2942 -0.0726  0.0761
   24MOL   H157 5723   6.336   5.036   3.212  1.1440  0.4333  0.1949
   24MOL   C158 5724   6.002   5.112   3.545 -0.4180  0.8419  0.5234
   24MOL   C159 5725   5.877   5.133   3.634 -0.1260 -0.1854  0.2205
   24MOL   C160 5726   5.901   5.222   3.757 -0.1302 -0.7231 -0.3296
   24MOL   O161 5727   6.014   5.266   3.784  0.3616 -0.5658 -0.1253
   24MOL   O162 5728   5.791   5.245   3.833  0.0589  0.5447 -0.0743
   24MOL   C163 5729   5.805   5.296   3.964  0.4958 -0.5005 -0.0061
   24MOL   H164 5730   6.052   5.207   3.526 -1.2224  1.2399  0.3787
   24MOL   H165 5731   5.964   5.070   3.452 -2.6486 -0.1848  1.8505
   24MOL   H166 5732   5.854   5.036   3.677 -1.1213  0.5577  1.3859
   24MOL   H167 5733   5.707   5.305   4.010 -0.0200  0.4947 -1.2442
   24MOL   H168 5734   5.848   5.396   3.975  3.6380 -1.7280 -0.4768
   24MOL   H169 5735   5.862   5.225   4.023 -0.2027  0.1759  1.4990
   24MOL   C170 5736   5.760   5.186   3.550 -0.5430 -0.2783 -0.2316
   24MOL   C171 5737   5.645   5.090   3.505  0.3885  0.0067  0.7900
   24MOL   C172 5738   5.651   5.060   3.358  0.1147  0.2977 -0.1186
   24MOL   O173 5739   5.677   4.945   3.315  0.0064  0.1134 -0.2124
   24MOL   O174 5740   5.611   5.164   3.280 -0.2607 -0.3047 -0.6327
   24MOL   C175 5741   5.609   5.147   3.140 -0.1749 -0.0241 -0.4558
   24MOL   H176 5742   5.711   5.254   3.621  0.9916  0.2836  0.3020
   24MOL   H177 5743   5.801   5.249   3.471  0.7692 -0.5370  0.2303
   24MOL   H178 5744   5.552   5.147   3.512 -1.4470 -2.9261  1.2523
   24MOL   H179 5745   5.706   5.108   3.108  0.1341 -0.0028  0.4562
   24MOL   H180 5746   5.606   5.249   3.101  1.4374  0.8002  1.4737
   24MOL   H181 5747   5.528   5.089   3.097 -1.3681 -0.0545  1.7834
   24MOL   C182 5748   5.619   4.965   3.594  0.7195 -0.2740 -0.6092
   24MOL   C183 5749   5.475   4.899   3.595 -0.3125  0.4767  1.5134
   24MOL   C184 5750   5.358   4.993   3.635 -0.1967 -0.5206  0.1810
   24MOL   O185 5751   5.268   5.029   3.567 -0.3531  0.5489  0.0860
   24MOL   O186 5752   5.371   5.040   3.768 -0.0700 -0.5719  0.5061
   24MOL   C187 5753   5.286   5.146   3.818  0.3683 -0.1456  0.4839
   24MOL   H188 5754   5.704   4.900   3.572 -0.2188 -1.2612 -1.3124
   24MOL   H189 5755   5.637   5.001   3.696  0.2150 -0.1523 -0.5642
   24MOL   H190 5756   5.472   4.847   3.691 -0.7947 -2.4689 -0.0433
   24MOL   H191 5757   5.193   5.107   3.859 -1.3988  2.2712 -1.1188
   24MOL   H192 5758   5.262   5.212   3.734 -0.4599  1.4200  1.9161
   24MOL   H193 5759   5.347   5.210   3.881 -3.1446  3.7151  0.1486
   24MOL   C194 5760   5.452   4.789   3.492 -0.1561 -0.2917  0.3861
   24MOL   C195 5761   5.408   4.647   3.553  0.3290  0.1258  0.0226
   24MOL   C196 5762   5.272   4.645   3.613  0.8249 -0.1086  0.1182
   24MOL   O197 5763   5.254   4.663   3.730 -0.2553  0.0451  0.1201
   24MOL   O198 5764   5.172   4.640   3.514 -0.1375 -0.5994 -0.3064
   24MOL   C199 5765   5.040   4.668   3.547 -0.4861 -0.1121  0.4273
   24MOL   H200 5766   5.386   4.826   3.414  1.7101  0.6610 -0.7888
   24MOL   H201 5767   5.551   4.774   3.449 -0.5821 -2.4642  0.0912
   24MOL   H202 5768   5.482   4.650   3.633 -2.8416  0.5949  3.0862
   24MOL   H203 5769   4.976   4.659   3.460  0.7019  2.7685 -0.7998
   24MOL   H204 5770   5.037   4.774   3.575  0.4467  0.1973 -0.6211
   24MOL   H205 5771   5.004   4.607   3.630 -1.2574 -0.7890 -0.3949
   24MOL   C206 5772   5.445   4.519   3.467 -0.4168 -0.3710 -0.8039
   24MOL   C207 5773   5.533   4.417   3.544 -0.3436 -0.4755  0.4642
   24MOL   C208 5774   5.449   4.356   3.658 -0.8129 -0.0824  0.6429
   24MOL   O209 5775   5.377   4.257   3.635 -0.6323 -0.7019  0.3140
   24MOL   O210 5776   5.440   4.424   3.770  0.2494 -0.2815 -0.5108
   24MOL   C211 5777   5.353   4.381   3.866  0.1410  0.4512 -0.3241
   24MOL   H212 5778   5.356   4.464   3.435 -1.2637 -0.0130  0.8737
   24MOL   H213 5779   5.477   4.540   3.365 -1.7522  2.8275 -0.6379
   24MOL   H214 5780   5.625   4.465   3.577  0.1640 -1.6313  0.7591
   24MOL   H215 5781   5.361   4.447   3.953 -0.6109 -1.2232  1.0483
   24MOL   H216 5782   5.383   4.280   3.894 -3.2117 -0.7783 -0.9541
   24MOL   H217 5783   5.250   4.385   3.829  0.4994 -0.3844 -1.4062
   24MOL   C218 5784   5.597   4.310   3.443 -0.3068 -0.1083  0.1379
   24MOL   C219 5785   5.723   4.236   3.497 -1.1414  0.4794  0.6661
   24MOL   C220 5786   5.707   4.156   3.628  0.6005 -0.0581  0.1920
   24MOL   O221 5787   5.774   4.191   3.725 -0.0483 -0.2364 -0.7571
   24MOL   O222 5788   5.611   4.063   3.626 -0.1797 -0.2189 -0.5747
   24MOL   C223 5789   5.582   3.986   3.743 -0.3528  0.3215 -0.1397
   24MOL   H224 5790   5.522   4.244   3.401 -0.4838 -0.9356  1.6910
   24MOL   H225 5791   5.641   4.372   3.365  0.9560  1.0171  1.7074
   24MOL   H226 5792   5.799   4.308   3.527 -0.7592  0.6243 -0.6277
   24MOL   H227 5793   5.478   3.955   3.749  0.2317 -1.5249  0.8238
   24MOL   H228 5794   5.602   4.032   3.841 -1.1375  2.1244 -0.7939
   24MOL   H229 5795   5.630   3.889   3.738 -0.6995  0.2212 -1.5544
   24MOL   C230 5796   5.778   4.143   3.387 -0.6614 -0.1794  0.5946
   24MOL   C231 5797   5.884   4.204   3.295  0.0570  0.0560 -0.3230
   24MOL   C232 5798   6.015   4.235   3.372 -0.3239  0.3986 -0.6593
   24MOL   O233 5799   6.033   4.198   3.489  0.0644  0.4898  0.4446
   24MOL   O234 5800   6.098   4.297   3.280 -1.0079 -0.1733 -0.1093
   24MOL   C235 5801   6.224   4.346   3.322 -0.2962  0.2497  0.7170
   24MOL   H236 5802   5.832   4.055   3.423  0.3113  0.1185 -0.1132
   24MOL   H237 5803   5.700   4.112   3.318  0.9989  0.5066 -1.6752
   24MOL   H238 5804   5.839   4.300   3.269 -1.1868 -0.3747  0.2302
   24MOL   H239 5805   6.288   4.345   3.234 -0.9010 -1.8046  0.2487
   24MOL   H240 5806   6.276   4.290   3.400  0.3563 -1.1312 -0.6808
   24MOL   H241 5807   6.212   4.447   3.361  1.8778 -0.3961  3.1142
   24MOL   H242 5808   5.904   4.152   3.201 -0.9768  0.6028 -0.8452
   25MOL     C1 5809   7.485   6.363   0.981 -0.1000 -0.2135  0.2013
   25MOL     C2 5810   7.638   6.393   0.972 -0.8632  0.8368 -0.0459
   25MOL     C3 5811   7.672   6.485   0.852  0.0255  0.6685  0.3099
   25MOL     O4 5812   7.588   6.569   0.821 -0.0353  0.0292 -0.5957
   25MOL     O5 5813   7.799   6.478   0.800  0.6014 -0.5860  0.2226
   25MOL     C6 5814   7.827   6.556   0.679 -1.0846 -0.2790  0.5514
   25MOL     H7 5815   7.449   6.330   0.884 -1.7215  1.8144  0.0888
   25MOL     H8 5816   7.426   6.452   1.002  0.2107 -0.4361  2.1584
   25MOL     H9 5817   7.696   6.301   0.961 -1.0307  0.7224  0.0116
   25MOL    H10 5818   7.765   6.645   0.677  1.5768  1.6973  2.2442
   25MOL    H11 5819   7.791   6.510   0.587 -1.4885  1.9392 -0.4288
   25MOL    H12 5820   7.932   6.578   0.664 -1.4105 -1.0473 -3.2587
   25MOL    H13 5821   7.452   6.282   1.046  0.1878 -0.2498  0.3027
   25MOL    C14 5822   7.695   6.459   1.105  0.1609 -0.4120  0.1441
   25MOL    C15 5823   7.852   6.444   1.130  0.4368  0.4330  0.8478
   25MOL    C16 5824   7.911   6.539   1.241 -0.1962 -0.1596 -0.3586
   25MOL    O17 5825   0.074   6.614   1.224  0.0587 -0.4183  0.9378
   25MOL    O18 5826   7.842   6.529   1.357  0.1362 -0.0509  0.1874
   25MOL    C19 5827   7.865   6.619   1.461  0.4933  0.4047  0.2193
   25MOL    H20 5828   7.670   6.565   1.110  1.6642  0.0336 -1.2600
   25MOL    H21 5829   7.643   6.425   1.195 -1.0895  1.8818  0.3376
   25MOL    H22 5830   7.907   6.481   1.044  1.6372  0.8905  1.7970
   25MOL    H23 5831   0.038   6.643   1.464  0.6187  0.0875 -1.4258
   25MOL    H24 5832   7.850   6.569   1.557  0.1590 -0.8260 -0.4593
   25MOL    H25 5833   7.801   6.708   1.457 -1.0835 -0.5396  2.8332
   25MOL    C26 5834   7.890   6.292   1.142 -0.3405  0.3404 -0.1649
   25MOL    C27 5835   0.016   6.243   1.012  0.4148  0.5951  0.7546
   25MOL    C28 5836   0.143   6.323   0.973 -0.7221 -0.1175 -0.1789
   25MOL    O29 5837   0.160   6.381   0.865 -0.4959  0.3949  0.0699
   25MOL    O30 5838   0.232   6.332   1.072  0.0861  0.3912 -0.4155
   25MOL    C31 5839   0.350   6.407   1.060 -0.2240  0.0919 -0.1116
   25MOL    H32 5840   0.028   6.278   1.224 -0.3634  0.9871 -0.0313
   25MOL    H33 5841   7.810   6.226   1.175 -0.7581  0.7641 -0.3224
   25MOL    H34 5842   7.883   6.268   0.929  1.1094  1.8739  0.5720
   25MOL    H35 5843   0.325   6.493   0.997 -1.8650  0.3837  0.9152
   25MOL    H36 5844   0.435   6.355   1.016 -0.8174 -1.0372  0.0768
   25MOL    H37 5845   0.369   6.448   1.159 -0.5252 -1.0268  0.4122
   25MOL    C38 5846   0.041   6.091   1.026 -0.5944 -0.3488 -0.3645
   25MOL    C39 5847   0.068   6.001   0.906  0.7895  0.3805 -0.1055
   25MOL    C40 5848   7.885   5.985   0.810 -0.2381 -0.6933  0.3527
   25MOL    O41 5849   7.840   5.873   0.787 -0.3547  0.2234 -0.1955
   25MOL    O42 5850   7.845   6.106   0.760 -0.3359  0.6000  0.0495
   25MOL    C43 5851   7.757   6.112   0.651  0.2534 -0.8814  0.3124
   25MOL    H44 5852   0.122   6.082   1.098  0.8003  1.5417 -1.6706
   25MOL    H45 5853   7.894   6.057   1.092 -0.6326  1.1750  0.3948
   25MOL    H46 5854   0.086   5.904   0.952  1.7299  0.0936 -1.0579
   25MOL    H47 5855   7.810   6.088   0.559 -1.0923  0.7424 -0.9308
   25MOL    H48 5856   7.723   6.215   0.644  0.4893 -0.9202 -1.6232
   25MOL    H49 5857   7.669   6.052   0.674 -2.1429  1.1507 -3.0129
   25MOL    C50 5858   0.202   6.035   0.838 -0.2013  0.9246 -0.3001
   25MOL    C51 5859   0.254   5.901   0.768 -0.0014  0.0541 -0.0166
   25MOL    C52 5860   0.217   5.895   0.624 -0.2327  0.3209 -0.5313
   25MOL    O53 5861   0.140   5.814   0.574  0.4221 -0.0695  0.2719
   25MOL    O54 5862   0.282   5.988   0.549  0.2785  0.2582  0.4534
   25MOL    C55 5863   0.279   5.979   0.408  0.2037 -0.0038  0.1858
   25MOL    H56 5864   0.185   6.108   0.759 -0.3128  1.7083  0.4372
   25MOL    H57 5865   0.268   6.069   0.917 -0.6990 -0.7088  0.8530
   25MOL    H58 5866   0.204   5.817   0.817 -1.6406 -0.1613 -2.0125
   25MOL    H59 5867   0.263   5.880   0.366  2.0688 -0.6384  0.8705
   25MOL    H60 5868   0.383   5.992   0.377 -0.5336 -2.3928 -3.5337
   25MOL    H61 5869   0.220   6.057   0.361  1.3582  0.2886 -0.7951
   25MOL    C62 5870   0.408   5.888   0.778 -0.4767  0.4007  0.6760
   25MOL    C63 5871   0.467   5.837   0.915 -0.3778  0.0398 -0.3798
   25MOL    C64 5872   0.425   5.688   0.944  0.1339  0.2609 -0.0159
   25MOL    O65 5873   0.365   5.663   1.051 -0.4086 -0.6310 -0.2144
   25MOL    O66 5874   0.449   5.590   0.844  0.2439  0.3606 -1.0146
   25MOL    C67 5875   0.409   5.460   0.875  0.2342  0.3241  0.1558
   25MOL    H68 5876   0.445   5.826   0.697 -0.6545  1.7609 -0.4749
   25MOL    H69 5877   0.465   5.978   0.755  0.0158 -0.1589 -0.3156
   25MOL    H70 5878   0.418   5.893   0.994  0.5721 -0.1099  0.3214
   25MOL    H71 5879   0.308   5.457   0.915  0.7149 -0.9991  1.3198
   25MOL    H72 5880   0.479   5.412   0.943  2.6299  3.2753 -0.0994
   25MOL    H73 5881   0.407   5.400   0.785  0.4189 -0.6561  0.7989
   25MOL    C74 5882   0.619   5.853   0.922 -0.5730  0.7054 -0.4305
   25MOL    C75 5883   0.677   5.895   1.067  0.2865 -0.1007 -0.2105
   25MOL    C76 5884   0.621   6.034   1.106  0.0473  0.1020  0.0680
   25MOL    O77 5885   0.559   6.108   1.026 -0.0622 -0.3314  0.0938
   25MOL    O78 5886   0.640   6.061   1.238 -0.5665  0.1880  0.2339
   25MOL    C79 5887   0.599   6.181   1.290 -0.5248  0.5858  0.0439
   25MOL    H80 5888   0.662   5.766   0.873  2.2852  0.8325  1.6913
   25MOL    H81 5889   0.661   5.927   0.854  1.5464  0.8226  0.9459
   25MOL    H82 5890   0.785   5.901   1.063  0.5236 -2.5155  1.4808
   25MOL    H83 5891   0.676   6.210   1.361  0.6264  0.6897 -1.2202
   25MOL    H84 5892   0.501   6.168   1.336 -0.2697  2.7222  1.2047
   25MOL    H85 5893   0.604   6.254   1.210  0.4912  0.2905 -0.1717
   25MOL    C86 5894   0.648   5.783   1.175 -0.1915  0.4538 -1.0092
   25MOL    C87 5895   0.735   5.792   1.305  0.6816  0.5318  0.0354
   25MOL    C88 5896   0.666   5.737   1.429 -0.4652 -0.0474 -0.2214
   25MOL    O89 5897   0.693   5.629   1.483  0.0138  0.2039 -0.2430
   25MOL    O90 5898   0.577   5.819   1.479  0.7191 -0.1682  0.0501
   25MOL    C91 5899   0.488   5.780   1.583 -0.2413  0.2206  0.3188
   25MOL    H92 5900   0.543   5.793   1.202  0.4156 -0.6339  1.9377
   25MOL    H93 5901   0.665   5.688   1.125 -0.0791  0.5051 -1.0701
   25MOL    H94 5902   0.771   5.892   1.331 -0.5168  1.2622 -1.0617
   25MOL    H95 5903   0.534   5.783   1.682 -2.7127 -3.7981  1.6942
   25MOL    H96 5904   0.449   5.680   1.564 -2.3445  0.3043  3.7200
   25MOL    H97 5905   0.404   5.848   1.570 -0.2039  0.0503 -0.9156
   25MOL    C98 5906   0.868   5.718   1.283  0.2126  0.4237  0.9326
   25MOL    C99 5907   0.977   5.693   1.397 -1.1202  0.3222 -0.3652
   25MOL   C100 5908   1.105   5.629   1.331  0.0084  0.6130  0.1491
   25MOL   O101 5909   1.121   5.619   1.207 -0.0730  0.1763  0.1959
   25MOL   O102 5910   1.191   5.585   1.421  0.3138  0.5321 -0.4532
   25MOL   C103 5911   1.307   5.513   1.372 -0.2151 -0.4040  0.4548
   25MOL   H104 5912   0.852   5.612   1.264 -0.8027  0.8909 -0.9899
   25MOL   H105 5913   0.912   5.751   1.189 -0.5868  2.1228  1.1277
   25MOL   H106 5914   0.939   5.618   1.465 -0.9033 -1.2515 -1.9527
   25MOL   H107 5915   1.395   5.568   1.338 -0.4546  0.7177  1.5974
   25MOL   H108 5916   1.279   5.447   1.291 -1.0211 -0.2879  0.6314
   25MOL   H109 5917   1.338   5.448   1.454 -1.0916 -2.2715 -0.6870
   25MOL   C110 5918   1.011   5.828   1.473 -0.2034  0.2823  0.0397
   25MOL   C111 5919   1.074   5.948   1.390 -0.3080  0.5436 -0.1032
   25MOL   C112 5920   1.014   6.079   1.439  0.5182  0.0003 -0.5086
   25MOL   O113 5921   0.932   6.132   1.366 -0.3151  0.1505 -0.7093
   25MOL   O114 5922   1.048   6.105   1.561  0.1019 -0.1199 -0.2131
   25MOL   C115 5923   1.001   6.220   1.624  0.3013 -0.6099 -0.0500
   25MOL   H116 5924   0.926   5.867   1.529 -0.1067 -0.9641  1.0862
   25MOL   H117 5925   1.070   5.806   1.562 -3.1105 -1.0814  1.7087
   25MOL   H118 5926   1.048   5.949   1.284 -0.5513  0.3146 -0.0465
   25MOL   H119 5927   0.892   6.222   1.613  0.4185  2.8242 -0.9160
   25MOL   H120 5928   1.030   6.310   1.571 -0.2651 -0.0885  0.5104
   25MOL   H121 5929   1.022   6.236   1.730 -0.2226 -1.2101  0.1521
   25MOL   C122 5930   1.224   5.941   1.398  0.2996 -0.1638 -0.0044
   25MOL   C123 5931   1.298   6.033   1.298 -0.2480 -0.3580  0.6354
   25MOL   C124 5932   1.441   6.064   1.350  0.4781  0.4641 -0.2308
   25MOL   O125 5933   1.543   6.025   1.290  0.5209 -0.2091 -0.2519
   25MOL   O126 5934   1.433   6.138   1.454 -0.1711  0.4575  0.2476
   25MOL   C127 5935   1.547   6.203   1.504  0.0068  0.5087 -0.9352
   25MOL   H128 5936   1.260   5.966   1.498  1.1378 -1.4090  0.0127
   25MOL   H129 5937   1.262   5.841   1.381  2.7012  0.4903  1.2498
   25MOL   H130 5938   1.244   6.128   1.306  2.3926  1.1724  0.7763
   25MOL   H131 5939   1.564   6.295   1.448  0.3350  0.6080 -0.6797
   25MOL   H132 5940   1.636   6.141   1.509  1.1196  2.0529 -0.9241
   25MOL   H133 5941   1.522   6.231   1.606  0.0422  1.3667 -1.1564
   25MOL   C134 5942   1.301   5.969   1.156  0.1693  0.3962  0.7922
   25MOL   C135 5943   1.289   6.068   1.042 -0.2089 -0.5860  0.1426
   25MOL   C136 5944   1.152   6.139   1.040  0.0141  0.4757 -0.2220
   25MOL   O137 5945   1.139   6.256   1.066  0.0407 -0.1393  0.1006
   25MOL   O138 5946   1.047   6.066   0.985 -0.2129 -0.6707  0.4914
   25MOL   C139 5947   0.925   6.124   0.960  0.3785 -0.1970  0.0174
   25MOL   H140 5948   1.390   5.910   1.133 -0.4691  0.1164 -1.1082
   25MOL   H141 5949   1.214   5.905   1.139  1.2545 -0.8594 -0.1765
   25MOL   H142 5950   1.280   6.016   0.946  0.7740  0.8967 -0.7768
   25MOL   H143 5951   0.932   6.188   0.872  0.3413  1.0047  0.8927
   25MOL   H144 5952   0.881   6.173   1.047  1.6335 -0.5600  0.8641
   25MOL   H145 5953   0.859   6.045   0.922 -1.4025  0.1558  2.2879
   25MOL   C146 5954   1.406   6.172   1.029  0.3983 -0.3781 -0.7411
   25MOL   C147 5955   1.418   6.256   0.897  0.0390 -0.6538 -0.1510
   25MOL   C148 5956   1.505   6.380   0.912 -0.2362 -0.6973  0.4633
   25MOL   O149 5957   1.561   6.400   1.020 -0.1481  0.3117 -0.1677
   25MOL   O150 5958   1.526   6.444   0.798  1.2134  0.1153 -0.2835
   25MOL   C151 5959   1.598   6.567   0.795  0.1564  0.1174 -0.1574
   25MOL   H152 5960   1.376   6.230   1.116  1.8484  0.0470 -0.5087
   25MOL   H153 5961   1.494   6.110   1.048  1.0706  0.6247 -0.5444
   25MOL   H154 5962   1.321   6.299   0.874  0.8476  0.4828 -1.5176
   25MOL   H155 5963   1.544   6.649   0.843  0.3240  0.1341 -0.0014
   25MOL   H156 5964   1.609   6.616   0.698  0.4808  0.3103 -0.0217
   25MOL   H157 5965   1.698   6.555   0.835  1.0659  2.2045 -1.7279
   25MOL   C158 5966   1.464   6.170   0.778  0.2319  0.2172  0.2688
   25MOL   C159 5967   1.353   6.151   0.674 -0.2665  0.1352 -0.2946
   25MOL   C160 5968   1.337   6.281   0.590  0.3347  0.7832  0.5025
   25MOL   O161 5969   1.375   6.293   0.474 -0.3903 -0.0081  0.4907
   25MOL   O162 5970   1.258   6.372   0.644  0.1812  0.4661  0.2401
   25MOL   C163 5971   1.236   6.501   0.584  0.3137  0.0401  0.0379
   25MOL   H164 5972   1.552   6.214   0.730  1.3708 -2.1280  0.1431
   25MOL   H165 5973   1.495   6.074   0.820 -1.0302 -0.5344 -0.4874
   25MOL   H166 5974   1.258   6.147   0.726  0.8874  0.4116  1.8980
   25MOL   H167 5975   1.163   6.485   0.505  0.6805 -0.7580 -0.1450
   25MOL   H168 5976   1.328   6.549   0.551  0.1011  0.6598  0.3283
   25MOL   H169 5977   1.196   6.571   0.657 -0.0305 -0.6435  0.5068
   25MOL   C170 5978   1.363   6.027   0.576  0.2799  0.6215 -0.0393
   25MOL   C171 5979   1.358   5.888   0.652 -0.1914  0.3902  0.4332
   25MOL   C172 5980   1.220   5.854   0.714  0.7140 -0.2768 -0.3163
   25MOL   O173 5981   1.207   5.827   0.833  0.1219 -0.1998  0.1472
   25MOL   O174 5982   1.125   5.852   0.621  0.0915 -0.1345 -0.3296
   25MOL   C175 5983   1.002   5.827   0.666  0.2035  0.4260 -0.6309
   25MOL   H176 5984   1.284   6.023   0.501 -0.4100 -0.2030  0.7159
   25MOL   H177 5985   1.458   6.043   0.524  0.2084  0.2384 -0.2879
   25MOL   H178 5986   1.427   5.895   0.735  0.3795  2.1556 -0.1724
   25MOL   H179 5987   0.928   5.829   0.586  0.2077  1.4663 -0.6197
   25MOL   H180 5988   0.983   5.902   0.743  1.0319  0.1195 -0.1300
   25MOL   H181 5989   1.002   5.735   0.723  0.6502  3.0814  3.8475
   25MOL   C182 5990   1.399   5.773   0.550 -0.1497 -0.1851  0.6624
   25MOL   C183 5991   1.387   5.619   0.595  0.0672  0.1727 -0.2127
   25MOL   C184 5992   1.299   5.531   0.502  0.6779 -0.4688 -0.3984
   25MOL   O185 5993   1.284   5.565   0.387 -0.1663 -0.2231  0.4174
   25MOL   O186 5994   1.258   5.419   0.561 -0.1439 -0.3758 -0.4542
   25MOL   C187 5995   1.179   5.329   0.484 -0.4777 -0.6969  0.0692
   25MOL   H188 5996   1.348   5.789   0.455  2.4546 -0.4651 -0.8152
   25MOL   H189 5997   1.498   5.800   0.513 -1.0955  3.1711  0.4310
   25MOL   H190 5998   1.351   5.611   0.698  0.0151  0.9616 -0.1596
   25MOL   H191 5999   1.226   5.319   0.386 -2.5405  0.0082 -1.0253
   25MOL   H192 6000   1.083   5.374   0.458 -0.5975 -1.2458 -0.4407
   25MOL   H193 6001   1.172   5.230   0.528 -0.9814 -0.2604  0.9936
   25MOL   C194 6002   1.535   5.568   0.599 -0.6343 -0.2495  0.3806
   25MOL   C195 6003   1.615   5.617   0.719 -0.2283 -0.0311 -0.3222
   25MOL   C196 6004   1.553   5.547   0.845  0.1855 -0.0340 -1.1582
   25MOL   O197 6005   1.566   5.429   0.866 -0.3803 -0.3505 -0.1985
   25MOL   O198 6006   1.477   5.635   0.920 -0.6739 -0.2561  0.0160
   25MOL   C199 6007   1.416   5.609   1.041  0.3962 -0.4873  0.2804
   25MOL   H200 6008   1.535   5.459   0.594  1.3568 -0.1942 -1.5061
   25MOL   H201 6009   1.585   5.605   0.509  0.0904  0.6329  1.1372
   25MOL   H202 6010   1.580   5.719   0.737 -2.9886 -0.8569 -0.9152
   25MOL   H203 6011   1.412   5.500   1.051 -3.8486 -0.5239 -0.7713
   25MOL   H204 6012   1.319   5.658   1.043  1.8461  2.4497  1.0640
   25MOL   H205 6013   1.477   5.655   1.119 -0.4948  0.4809  0.4126
   25MOL   C206 6014   1.772   5.609   0.716  0.6988 -0.2713 -0.3167
   25MOL   C207 6015   1.837   5.687   0.836 -0.3151 -0.2667 -0.0951
   25MOL   C208 6016   1.986   5.646   0.844 -0.0120  0.3866 -0.5271
   25MOL   O209 6017   2.072   5.722   0.816 -0.2795 -0.5519 -0.3400
   25MOL   O210 6018   2.000   5.515   0.876  1.3343 -0.5885 -0.3665
   25MOL   C211 6019   2.120   5.446   0.889 -0.9190 -0.5654  0.8936
   25MOL   H212 6020   1.802   5.506   0.736  1.3412  0.2222  1.3824
   25MOL   H213 6021   1.801   5.651   0.620 -0.1670  1.2330  0.0736
   25MOL   H214 6022   1.792   5.646   0.927  0.1493 -1.5985 -0.4475
   25MOL   H215 6023   2.200   5.505   0.844 -1.3809 -0.9640 -0.4866
   25MOL   H216 6024   2.115   5.348   0.842  1.1899 -0.8853  1.2985
   25MOL   H217 6025   2.144   5.425   0.993 -0.1523  1.3026  1.1055
   25MOL   C218 6026   1.820   5.841   0.836  0.1704 -0.0779  0.2315
   25MOL   C219 6027   1.884   5.919   0.961  0.4106  1.1244 -0.0719
   25MOL   C220 6028   1.921   6.067   0.933 -0.0238  0.1577 -0.3651
   25MOL   O221 6029   2.029   6.111   0.975  0.2184 -0.9357 -0.2090
   25MOL   O222 6030   1.823   6.139   0.874  0.0852  0.3847 -0.2652
   25MOL   C223 6031   1.841   6.281   0.863 -0.0764  0.0534 -0.2314
   25MOL   H224 6032   1.861   5.879   0.743  1.0379  0.3706  0.7913
   25MOL   H225 6033   1.717   5.875   0.827 -0.0746 -1.0496 -0.7829
   25MOL   H226 6034   1.983   5.878   0.983 -0.9342 -1.5512  1.1231
   25MOL   H227 6035   1.754   6.318   0.808  0.6052  2.8376  0.4874
   25MOL   H228 6036   1.931   6.313   0.812 -1.2665  1.2366 -1.6551
   25MOL   H229 6037   1.824   6.338   0.954  1.9327 -0.5361  0.5246
   25MOL   C230 6038   1.804   5.902   1.084  0.5071 -0.4523 -0.0771
   25MOL   C231 6039   1.874   5.899   1.228  0.2178  0.0217  0.0481
   25MOL   C232 6040   1.955   5.778   1.268  0.1957 -0.6069 -0.2600
   25MOL   O233 6041   1.946   5.722   1.377  0.6800  0.2058  0.1269
   25MOL   O234 6042   2.037   5.731   1.166 -0.5197 -0.4130 -0.4271
   25MOL   C235 6043   2.131   5.629   1.182 -0.1108  0.2575  0.4615
   25MOL   H236 6044   1.731   5.983   1.083 -1.4526 -2.1951 -0.4982
   25MOL   H237 6045   1.746   5.811   1.072  3.7453 -2.6331 -0.0554
   25MOL   H238 6046   1.794   5.905   1.302  0.8111  0.5343  0.6486
   25MOL   H239 6047   2.218   5.662   1.238  0.2087 -0.7057  0.5388
   25MOL   H240 6048   2.167   5.604   1.082 -1.4120  1.8066 -0.4227
   25MOL   H241 6049   2.090   5.541   1.230  0.4820 -1.3057 -1.7919
   25MOL   H242 6050   1.930   5.991   1.242  0.0544 -0.0237  0.9794
   26MOL     C1 6051   6.330   3.021   3.460 -0.1562 -0.2096  0.0966
   26MOL     C2 6052   6.251   2.888   3.431  0.0031  0.3897 -0.0641
   26MOL     C3 6053   6.282   2.782   3.537 -1.1801 -0.1100  0.0873
   26MOL     O4 6054   6.228   2.774   3.646 -0.0661  0.0542 -0.3010
   26MOL     O5 6055   6.372   2.684   3.490  0.0135 -1.0451 -0.4629
   26MOL     C6 6056   6.430   2.591   3.576 -0.4944  0.2089  0.6686
   26MOL     H7 6057   6.437   3.004   3.473 -0.4117 -0.3650  2.0749
   26MOL     H8 6058   6.285   3.066   3.548 -2.6828 -0.2473 -1.1412
   26MOL     H9 6059   6.284   2.838   3.339 -3.2220 -1.6902 -0.1527
   26MOL    H10 6060   6.394   2.493   3.546 -0.2567  0.5061 -0.6252
   26MOL    H11 6061   6.410   2.598   3.683  3.5431 -1.6698  1.6516
   26MOL    H12 6062   6.539   2.589   3.573 -0.3262  0.7853  4.1067
   26MOL    H13 6063   6.323   3.082   3.370  1.9971  2.0648  1.4127
   26MOL    C14 6064   6.102   2.920   3.427  0.2662  0.5808 -0.7551
   26MOL    C15 6065   6.021   2.829   3.336  0.0483 -0.0006  0.0237
   26MOL    C16 6066   5.873   2.833   3.374 -0.7953  0.8893  0.5295
   26MOL    O17 6067   5.812   2.936   3.391 -0.7705 -0.5873  0.4959
   26MOL    O18 6068   5.822   2.708   3.372 -0.5148  0.8599 -0.0778
   26MOL    C19 6069   5.683   2.698   3.382 -0.0530 -0.3540  0.0237
   26MOL    H20 6070   6.067   2.916   3.530  1.8135 -2.1534 -0.2935
   26MOL    H21 6071   6.094   3.018   3.380 -0.4709  1.6440  1.5255
   26MOL    H22 6072   6.060   2.728   3.341 -2.4385 -0.9501  1.4666
   26MOL    H23 6073   5.648   2.718   3.281  2.6909 -0.1443 -0.9310
   26MOL    H24 6074   5.638   2.764   3.456 -0.4795 -1.1102  0.4537
   26MOL    H25 6075   5.657   2.598   3.417  1.0570 -1.1239 -1.2986
   26MOL    C26 6076   6.033   2.870   3.184 -0.5090 -0.6510  0.0099
   26MOL    C27 6077   5.955   2.784   3.081  0.4474 -0.0795  0.0592
   26MOL    C28 6078   5.947   2.865   2.947  0.5436  0.1320  0.3859
   26MOL    O29 6079   6.050   2.890   2.888  0.4984  0.4931  0.5884
   26MOL    O30 6080   5.822   2.886   2.903 -0.6829  0.1244 -0.4309
   26MOL    C31 6081   5.808   2.914   2.763 -0.4427 -0.2784  0.2581
   26MOL    H32 6082   5.998   2.973   3.186 -0.9435 -0.8184  2.5739
   26MOL    H33 6083   6.138   2.864   3.155 -0.6435  0.0798 -0.6445
   26MOL    H34 6084   5.854   2.760   3.113  0.9306  0.9390  2.4435
   26MOL    H35 6085   5.725   2.984   2.757 -0.9497 -1.0792 -2.7971
   26MOL    H36 6086   5.789   2.821   2.709 -4.6230 -0.3202  1.6357
   26MOL    H37 6087   5.892   2.970   2.723 -0.8071  0.0885  0.0009
   26MOL    C38 6088   6.026   2.650   3.058 -0.0683 -0.3905  0.5756
   26MOL    C39 6089   5.957   2.529   3.131 -0.5706  0.6774 -0.7028
   26MOL    C40 6090   5.811   2.499   3.086  0.2517 -0.0926 -0.6945
   26MOL    O41 6091   5.781   2.515   2.967 -0.1121  0.4964 -0.5293
   26MOL    O42 6092   5.735   2.440   3.177  0.7087 -0.3037 -0.8696
   26MOL    C43 6093   5.626   2.368   3.137 -0.3988  0.1805 -0.2870
   26MOL    H44 6094   6.022   2.627   2.951 -2.1445  1.4306  0.2102
   26MOL    H45 6095   6.130   2.654   3.087  0.1955  1.1990 -0.5376
   26MOL    H46 6096   5.949   2.557   3.237  1.9657  1.7191 -0.7391
   26MOL    H47 6097   5.656   2.294   3.063  0.7619  0.8059 -0.4413
   26MOL    H48 6098   5.548   2.430   3.093  1.2323 -0.3957 -4.1576
   26MOL    H49 6099   5.583   2.323   3.227  0.1135  2.3568  1.0711
   26MOL    C50 6100   6.054   2.402   3.127  0.2128 -0.2219 -0.6910
   26MOL    C51 6101   6.036   2.276   3.223  0.4628  0.2115 -0.0052
   26MOL    C52 6102   5.989   2.323   3.359  0.4647 -0.1064  0.3941
   26MOL    O53 6103   5.878   2.294   3.402 -0.6389  0.1339 -0.5810
   26MOL    O54 6104   6.084   2.394   3.423  0.0001  0.2344 -0.0347
   26MOL    C55 6105   6.046   2.477   3.534  0.3529  0.0170  0.3701
   26MOL    H56 6106   6.078   2.368   3.026  1.5037  1.2722 -0.8958
   26MOL    H57 6107   6.153   2.435   3.158 -0.9496  1.1697  1.5941
   26MOL    H58 6108   6.128   2.220   3.240  0.4423 -0.4321 -1.9385
   26MOL    H59 6109   5.945   2.519   3.526 -0.3227 -1.7598 -1.0348
   26MOL    H60 6110   6.119   2.555   3.554 -0.7976  1.6074 -1.4316
   26MOL    H61 6111   6.049   2.430   3.632 -3.2170 -1.0616  0.0620
   26MOL    C62 6112   5.935   2.182   3.153 -0.3849  0.1152 -0.4382
   26MOL    C63 6113   5.970   2.033   3.183  0.5482  0.0074  0.1502
   26MOL    C64 6114   5.836   1.958   3.194  0.2932  0.5334  0.3962
   26MOL    O65 6115   5.805   1.911   3.302 -0.0469  0.0253  0.3281
   26MOL    O66 6116   5.772   1.933   3.084  0.3218  0.2245  0.3399
   26MOL    C67 6117   5.647   1.856   3.085 -0.4446 -0.1823  0.0070
   26MOL    H68 6118   5.832   2.205   3.181 -0.1030  1.6511 -0.6481
   26MOL    H69 6119   5.930   2.185   3.045 -2.2658 -1.7629 -0.4536
   26MOL    H70 6120   6.015   2.030   3.282  3.6396  0.0624 -1.1697
   26MOL    H71 6121   5.653   1.780   3.162  0.5682 -0.0675  0.0492
   26MOL    H72 6122   5.624   1.814   2.987 -3.5665  2.0988 -0.3357
   26MOL    H73 6123   5.569   1.923   3.119 -0.4471 -1.1412  1.9386
   26MOL    C74 6124   6.069   1.969   3.087 -0.3944  0.0174 -0.7711
   26MOL    C75 6125   6.177   1.884   3.162 -0.1744  0.3161 -0.1148
   26MOL    C76 6126   6.124   1.769   3.246  0.4706 -0.1808  0.0755
   26MOL    O77 6127   6.156   1.755   3.363  0.2713 -0.3225 -0.1253
   26MOL    O78 6128   6.037   1.688   3.185 -0.5787 -0.7509 -0.1868
   26MOL    C79 6129   5.978   1.584   3.257 -0.4631  0.0335 -1.0000
   26MOL    H80 6130   6.013   1.902   3.022 -1.4037  0.4220 -0.3286
   26MOL    H81 6131   6.113   2.043   3.020 -0.2791  0.3129 -0.3676
   26MOL    H82 6132   6.218   1.949   3.239  0.5553  0.3083 -0.4878
   26MOL    H83 6133   5.882   1.619   3.296 -0.2182  0.4180 -0.7307
   26MOL    H84 6134   6.039   1.549   3.340 -0.6823  2.6502  0.3303
   26MOL    H85 6135   5.966   1.490   3.205 -2.2594 -0.8004  0.8783
   26MOL    C86 6136   6.298   1.839   3.074 -0.1018  0.5353 -0.4476
   26MOL    C87 6137   6.432   1.816   3.146  0.0818  0.1511 -0.1984
   26MOL    C88 6138   6.532   1.731   3.063  0.5355  0.3246  0.4710
   26MOL    O89 6139   6.571   1.628   3.116 -0.0105 -0.1133 -0.4010
   26MOL    O90 6140   6.560   1.778   2.943 -0.8043 -0.2668  0.2063
   26MOL    C91 6141   6.664   1.728   2.862 -0.2059  0.6664  0.4218
   26MOL    H92 6142   6.263   1.749   3.023  1.8884 -1.0820  0.9584
   26MOL    H93 6143   6.327   1.908   2.994  0.7647  1.5326  0.7133
   26MOL    H94 6144   6.411   1.750   3.230  1.4674  0.4112  0.3541
   26MOL    H95 6145   6.764   1.718   2.904 -0.5959 -1.1097  0.9689
   26MOL    H96 6146   6.685   1.803   2.786  0.2024 -0.9882 -1.1369
   26MOL    H97 6147   6.640   1.638   2.806 -0.0002  0.1840  1.1013
   26MOL    C98 6148   6.489   1.960   3.184 -0.7238  0.1771  0.0828
   26MOL    C99 6149   6.613   1.976   3.269 -0.3967 -0.7106 -0.4977
   26MOL   C100 6150   6.604   1.883   3.390 -0.8562 -0.2717 -0.0746
   26MOL   O101 6151   6.676   1.786   3.389  0.7253  0.4936 -0.4656
   26MOL   O102 6152   6.529   1.926   3.489  0.2427 -0.0684 -0.0844
   26MOL   C103 6153   6.523   1.838   3.606  0.1566  0.0055  0.0574
   26MOL   H104 6154   6.486   2.023   3.095  0.3036  0.6013  0.3464
   26MOL   H105 6155   6.413   2.011   3.244 -1.6401 -0.1900 -0.7426
   26MOL   H106 6156   6.619   2.078   3.308 -1.0733 -0.3239 -1.3944
   26MOL   H107 6157   6.587   1.869   3.689 -1.2181  2.7851  0.1247
   26MOL   H108 6158   6.510   1.733   3.582 -0.1892 -0.2570  1.3968
   26MOL   H109 6159   6.423   1.851   3.647  0.5508  0.4494  0.8878
   26MOL   C110 6160   6.746   1.966   3.190  0.1324  0.7283  0.0432
   26MOL   C111 6161   6.776   2.075   3.084 -0.7468  0.1007 -0.0090
   26MOL   C112 6162   6.832   2.206   3.150 -0.5182  0.4178 -0.1865
   26MOL   O113 6163   6.881   2.207   3.266  0.1077 -0.9529  0.2035
   26MOL   O114 6164   6.820   2.299   3.062 -0.3884 -0.2327  0.4272
   26MOL   C115 6165   6.883   2.423   3.097 -0.2863  0.6889  0.5761
   26MOL   H116 6166   6.832   1.973   3.256 -1.0924  2.9105  1.4552
   26MOL   H117 6167   6.755   1.863   3.155  3.0372  1.3429 -1.1116
   26MOL   H118 6168   6.685   2.107   3.034 -0.6395 -1.2234 -1.0885
   26MOL   H119 6169   6.829   2.441   3.190 -1.9761  0.2108 -0.2990
   26MOL   H120 6170   6.873   2.502   3.023  2.1573  0.8348  0.3376
   26MOL   H121 6171   6.990   2.405   3.112 -0.3374  0.6258  0.8701
   26MOL   C122 6172   6.879   2.001   2.989 -0.2783 -0.1420 -0.0660
   26MOL   C123 6173   6.948   2.076   2.872  0.3336 -0.4796  0.3598
   26MOL   C124 6174   7.063   1.994   2.815 -0.5654  0.1620 -0.8714
   26MOL   O125 6175   7.070   1.951   2.702  0.4111  0.3800  0.3604
   26MOL   O126 6176   7.153   1.981   2.910 -0.1061  0.9845  0.3817
   26MOL   C127 6177   7.265   1.909   2.863  0.2616 -0.5012 -0.1357
   26MOL   H128 6178   6.950   1.945   3.049 -0.9365 -2.0176 -1.0074
   26MOL   H129 6179   6.819   1.931   2.932  0.5138 -1.6148  0.9039
   26MOL   H130 6180   6.997   2.166   2.908 -0.7161  0.4631 -0.5047
   26MOL   H131 6181   7.343   1.891   2.936 -2.7269 -1.3790  2.9480
   26MOL   H132 6182   7.324   1.963   2.789 -0.7870  0.4496 -0.2820
   26MOL   H133 6183   7.239   1.809   2.829  0.2804 -1.0495  1.4207
   26MOL   C134 6184   6.851   2.127   2.766  0.0277 -0.2780  0.1014
   26MOL   C135 6185   6.897   2.231   2.655  0.6669  0.6104  0.1309
   26MOL   C136 6186   6.808   2.218   2.527  0.1446  0.0547 -0.0826
   26MOL   O137 6187   6.705   2.150   2.528  0.4694  0.3735  0.3171
   26MOL   O138 6188   6.862   2.288   2.423  0.6267  0.3298 -0.0111
   26MOL   C139 6189   6.788   2.324   2.307 -0.5603  0.0749  0.8976
   26MOL   H140 6190   6.814   2.040   2.711 -1.3504 -0.8754  1.9440
   26MOL   H141 6191   6.762   2.167   2.814 -0.4062 -0.0524 -0.8806
   26MOL   H142 6192   6.991   2.196   2.612  0.7076 -0.0424  0.7310
   26MOL   H143 6193   6.712   2.249   2.286  0.1395 -0.3932 -0.0328
   26MOL   H144 6194   6.855   2.342   2.222 -0.9033 -0.7793  0.4404
   26MOL   H145 6195   6.737   2.419   2.323 -0.3417  0.5625 -1.1066
   26MOL   C146 6196   6.898   2.379   2.712 -0.3206 -0.0806 -0.1603
   26MOL   C147 6197   6.947   2.491   2.621  0.1081  0.4251 -0.0777
   26MOL   C148 6198   6.922   2.633   2.673 -0.6132 -0.1429  0.4913
   26MOL   O149 6199   6.989   2.732   2.638 -0.2389 -0.1736 -0.2232
   26MOL   O150 6200   6.802   2.642   2.746  0.4418  0.1246  0.3388
   26MOL   C151 6201   6.760   2.762   2.815  0.1333 -0.0288  0.3114
   26MOL   H152 6202   6.798   2.392   2.752 -0.1325  1.2680 -0.1068
   26MOL   H153 6203   6.952   2.377   2.806 -0.0645 -0.1365 -0.3091
   26MOL   H154 6204   6.873   2.490   2.541 -0.4584  2.6207  0.3575
   26MOL   H155 6205   6.783   2.847   2.751 -1.6320  0.9375  0.9008
   26MOL   H156 6206   6.816   2.758   2.909 -1.0347 -1.4194  0.9850
   26MOL   H157 6207   6.652   2.753   2.829  0.0155 -0.8435 -1.0916
   26MOL   C158 6208   7.089   2.467   2.580  0.3821 -0.3515  0.4429
   26MOL   C159 6209   7.203   2.433   2.683  0.3120 -0.2893 -0.0922
   26MOL   C160 6210   7.297   2.328   2.634 -0.4355  0.7035 -0.0435
   26MOL   O161 6211   7.313   2.230   2.702 -0.0823 -0.8024  0.3713
   26MOL   O162 6212   7.361   2.358   2.519 -0.2301  0.1498 -0.2510
   26MOL   C163 6213   7.423   2.252   2.441  0.4483  0.0291  0.2010
   26MOL   H164 6214   7.092   2.397   2.496 -2.6236  0.0724 -0.0854
   26MOL   H165 6215   7.119   2.556   2.525 -0.1958 -1.1453 -1.2254
   26MOL   H166 6216   7.154   2.391   2.771 -0.9190  1.5127  0.1093
   26MOL   H167 6217   7.498   2.308   2.385 -1.4104  4.0601  1.5440
   26MOL   H168 6218   7.360   2.205   2.365  0.9664  0.2245 -0.3488
   26MOL   H169 6219   7.491   2.180   2.486  2.5663 -1.0947 -4.4546
   26MOL   C170 6220   7.276   2.560   2.730  0.2369  0.5998 -0.4823
   26MOL   C171 6221   7.247   2.594   2.877 -0.3011  0.5912 -0.5572
   26MOL   C172 6222   7.309   2.488   2.975 -0.0072  0.6042 -0.3232
   26MOL   O173 6223   7.420   2.500   3.034 -0.0380  0.3807  0.2247
   26MOL   O174 6224   7.221   2.378   2.985  0.0976 -0.3618 -0.0084
   26MOL   C175 6225   7.244   2.287   3.091  0.4313  0.1584  0.0688
   26MOL   H176 6226   7.383   2.547   2.714  0.3774  0.4102  0.5575
   26MOL   H177 6227   7.249   2.645   2.668  0.4459  1.3708  0.4679
   26MOL   H178 6228   7.138   2.584   2.883 -0.2719  0.6306  0.0542
   26MOL   H179 6229   7.151   2.234   3.071  0.2755 -0.2624  1.9200
   26MOL   H180 6230   7.239   2.325   3.193  0.6378  1.3059 -0.3373
   26MOL   H181 6231   7.323   2.212   3.080  0.2698  0.2006 -1.5804
   26MOL   C182 6232   7.287   2.740   2.903  0.7772  0.0847  0.0745
   26MOL   C183 6233   7.251   2.803   3.036  0.2854 -0.2171 -1.1293
   26MOL   C184 6234   7.340   2.927   3.046 -0.2144  0.3050  0.2918
   26MOL   O185 6235   7.313   3.030   2.985  0.5054  0.0471  1.0294
   26MOL   O186 6236   7.452   2.901   3.120 -0.1279  0.1281 -0.3008
   26MOL   C187 6237   7.549   2.999   3.137 -0.3139  0.1759 -0.7566
   26MOL   H188 6238   7.392   2.755   2.876 -0.0261 -0.3033 -3.5043
   26MOL   H189 6239   7.238   2.798   2.825  1.1697 -0.5396 -0.6545
   26MOL   H190 6240   7.287   2.735   3.113 -1.9415  1.7952  1.7715
   26MOL   H191 6241   7.623   2.983   3.058 -0.1297  0.8579 -0.7237
   26MOL   H192 6242   7.583   2.998   3.240 -1.8105 -0.3231 -0.2642
   26MOL   H193 6243   7.510   3.100   3.133 -0.8435 -0.0674 -2.0363
   26MOL   C194 6244   7.100   2.825   3.061 -0.5949 -0.2461  0.6796
   26MOL   C195 6245   7.052   2.844   3.211 -0.4770  0.9043  0.1384
   26MOL   C196 6246   7.120   2.741   3.301 -0.1947 -0.0947  1.5974
   26MOL   O197 6247   7.103   2.624   3.276  0.3797 -0.3137  0.7616
   26MOL   O198 6248   7.216   2.794   3.385  0.0638 -0.3981  0.1023
   26MOL   C199 6249   7.286   2.713   3.476 -0.2866 -0.1783  0.3346
   26MOL   H200 6250   7.062   2.882   2.976 -0.1083 -0.6856  0.1545
   26MOL   H201 6251   7.066   2.723   3.042 -2.7161  0.1312  2.2734
   26MOL   H202 6252   6.945   2.823   3.216 -0.7248  2.2170  0.9447
   26MOL   H203 6253   7.276   2.764   3.572 -0.2053 -0.6662  0.6050
   26MOL   H204 6254   7.393   2.712   3.457  0.1030 -0.5710  2.4559
   26MOL   H205 6255   7.250   2.610   3.483 -0.3423 -0.0895  1.4997
   26MOL   C206 6256   7.070   2.989   3.260 -0.6922 -0.2212 -0.3557
   26MOL   C207 6257   6.989   3.025   3.392 -0.3544 -0.4285 -0.0711
   26MOL   C208 6258   7.070   3.068   3.508  0.2017 -0.0236 -0.1193
   26MOL   O209 6259   7.142   3.162   3.504  0.5011  0.1101 -0.0978
   26MOL   O210 6260   7.035   2.988   3.611 -0.3862 -0.4075  0.2458
   26MOL   C211 6261   7.059   3.014   3.754 -0.3649 -1.1362  0.6731
   26MOL   H212 6262   7.174   3.011   3.281 -0.5731 -0.4475 -0.6992
   26MOL   H213 6263   7.039   3.052   3.177  0.7151 -0.5534 -1.1507
   26MOL   H214 6264   6.948   2.935   3.440  3.7104 -3.0045 -1.2187
   26MOL   H215 6265   7.165   3.008   3.774  0.0386 -2.0971 -1.5720
   26MOL   H216 6266   7.013   2.942   3.822  1.4057 -1.5832  1.4250
   26MOL   H217 6267   7.024   3.115   3.776  1.7612 -0.6240  1.7622
   26MOL   C218 6268   6.890   3.137   3.353  0.0581 -0.0002  0.0850
   26MOL   C219 6269   6.777   3.096   3.248  0.0752  0.5920  0.3220
   26MOL   C220 6270   6.712   2.962   3.288 -0.3535 -0.9573 -0.3250
   26MOL   O221 6271   6.707   2.928   3.405 -0.2140 -0.7003 -0.0361
   26MOL   O222 6272   6.651   2.895   3.188  0.0226  0.3939  0.1658
   26MOL   C223 6273   6.594   2.769   3.213 -0.0478  0.3936 -0.1628
   26MOL   H224 6274   6.842   3.162   3.448 -0.2825 -1.3121  0.2573
   26MOL   H225 6275   6.941   3.229   3.326  0.9453 -0.8112 -1.0267
   26MOL   H226 6276   6.827   3.086   3.151 -2.1218  3.5622 -1.1974
   26MOL   H227 6277   6.529   2.766   3.300  0.7501 -1.4449  0.3959
   26MOL   H228 6278   6.664   2.685   3.219 -0.3866  0.1176 -0.0582
   26MOL   H229 6279   6.534   2.735   3.128 -0.3155 -3.3485  1.4134
   26MOL   C230 6280   6.674   3.206   3.237  0.2020 -0.8782 -0.2569
   26MOL   C231 6281   6.635   3.250   3.089  0.0659  0.3861 -0.6830
   26MOL   C232 6282   6.552   3.153   3.005  0.0845  0.6537 -0.0761
   26MOL   O233 6283   6.566   3.147   2.881 -0.1366 -0.0710 -0.3021
   26MOL   O234 6284   6.451   3.107   3.078 -0.2717 -0.5867  0.7386
   26MOL   C235 6285   6.348   3.025   3.023 -0.1552 -0.8176  0.3527
   26MOL   H236 6286   6.592   3.185   3.307 -0.7876 -2.3560 -1.8278
   26MOL   H237 6287   6.722   3.290   3.287  2.7339 -1.9784 -0.7963
   26MOL   H238 6288   6.722   3.270   3.026  0.2091 -1.7135 -1.1767
   26MOL   H239 6289   6.268   3.001   3.092 -0.2917 -2.6170 -0.3851
   26MOL   H240 6290   6.392   2.927   3.002 -0.2571 -0.9308  0.6638
   26MOL   H241 6291   6.304   3.071   2.935  3.5027 -0.1175 -1.2232
   26MOL   H242 6292   6.572   3.339   3.096 -1.9799 -1.2074  2.1946
   27MOL     C1 6293   4.421   4.035   2.945 -0.2173  0.2723 -0.5492
   27MOL     C2 6294   4.305   4.004   2.845  0.4766  0.1746  0.1046
   27MOL     C3 6295   4.352   3.909   2.727 -0.0834  0.1963  0.1212
   27MOL     O4 6296   4.471   3.863   2.725  0.2023 -0.3340 -0.2276
   27MOL     O5 6297   4.265   3.896   2.622 -0.4548 -0.2269 -0.0509
   27MOL     C6 6298   4.311   3.840   2.508 -0.2797  0.3585  0.0754
   27MOL     H7 6299   4.435   3.963   3.026  1.5679  1.0765 -0.1277
   27MOL     H8 6300   4.383   4.129   2.986 -2.7208  0.0576 -2.2497
   27MOL     H9 6301   4.287   4.099   2.795 -0.1237 -0.4607 -0.9004
   27MOL    H10 6302   4.220   3.810   2.457  0.9828  0.6656 -2.4555
   27MOL    H11 6303   4.373   3.753   2.530  1.3188  1.4033 -0.1636
   27MOL    H12 6304   4.370   3.903   2.441  0.1894  0.0470  0.1937
   27MOL    H13 6305   4.522   4.046   2.906  0.0113  2.1050  0.4870
   27MOL    C14 6306   4.169   3.972   2.899  0.6108  0.5164  0.0879
   27MOL    C15 6307   4.156   3.852   2.989 -0.5742 -0.4298  0.3133
   27MOL    C16 6308   4.207   3.869   3.132  0.1548 -0.1811  0.5740
   27MOL    O17 6309   4.270   3.784   3.197  0.3562 -0.3099 -0.4908
   27MOL    O18 6310   4.160   3.986   3.176  0.2381  0.0401  0.0112
   27MOL    C19 6311   4.227   4.043   3.292  0.1153  0.3905  0.5499
   27MOL    H20 6312   4.117   4.053   2.950 -2.3780 -2.3169  1.6430
   27MOL    H21 6313   4.101   3.956   2.815 -0.2046 -0.7188  0.9753
   27MOL    H22 6314   4.222   3.773   2.952  0.9962 -0.6569  3.3758
   27MOL    H23 6315   4.217   4.151   3.293  2.1186  0.5853  0.9058
   27MOL    H24 6316   4.336   4.035   3.284  0.0449 -0.6867  0.5211
   27MOL    H25 6317   4.200   4.000   3.388  1.0832 -1.0321  0.2113
   27MOL    C26 6318   4.021   3.766   2.989  0.0759 -0.5917 -0.0779
   27MOL    C27 6319   3.888   3.840   3.001 -0.6430 -0.2878 -1.0896
   27MOL    C28 6320   3.777   3.774   2.923  0.9184  0.0904  0.3282
   27MOL    O29 6321   3.738   3.661   2.954  0.1210 -0.2645 -0.2405
   27MOL    O30 6322   3.737   3.843   2.818  0.1264 -0.7399  0.5785
   27MOL    C31 6323   3.633   3.794   2.732 -0.7119  0.4679 -0.0452
   27MOL    H32 6324   4.027   3.708   2.897  0.5601 -0.0640 -0.3797
   27MOL    H33 6325   4.035   3.697   3.072 -2.5754 -2.5375 -1.1480
   27MOL    H34 6326   3.915   3.934   2.954  0.8040 -0.8773 -1.4760
   27MOL    H35 6327   3.659   3.699   2.686 -2.1659  0.9063 -1.8306
   27MOL    H36 6328   3.611   3.864   2.651  1.1583  0.7830 -0.2959
   27MOL    H37 6329   3.535   3.788   2.780  0.0158 -0.7493  1.3377
   27MOL    C38 6330   3.849   3.870   3.149 -0.1561 -0.1485  0.4118
   27MOL    C39 6331   3.738   3.973   3.174 -0.4770 -0.1395  0.1194
   27MOL    C40 6332   3.699   3.980   3.323 -0.3195 -0.0576  0.7933
   27MOL    O41 6333   3.580   3.973   3.361 -0.6933 -0.0890  0.5542
   27MOL    O42 6334   3.801   3.982   3.400  0.2874 -0.1288  0.4057
   27MOL    C43 6335   3.782   3.995   3.537  0.0017  0.4023 -0.2237
   27MOL    H44 6336   3.844   3.780   3.211 -1.0559  0.5532  1.3802
   27MOL    H45 6337   3.937   3.916   3.193 -0.2424 -1.6482  2.2254
   27MOL    H46 6338   3.651   3.935   3.120 -1.0455  0.4727  0.5993
   27MOL    H47 6339   3.769   4.103   3.551 -1.0597  0.2057  0.3256
   27MOL    H48 6340   3.871   3.952   3.582 -1.1327 -1.5723  0.1834
   27MOL    H49 6341   3.696   3.940   3.574  1.3281 -2.5714 -1.4565
   27MOL    C50 6342   3.785   4.110   3.117  0.2456  0.7067  0.0088
   27MOL    C51 6343   3.667   4.185   3.057  0.2252 -0.1796  0.2262
   27MOL    C52 6344   3.548   4.209   3.151 -0.1141 -0.1652 -0.1502
   27MOL    O53 6345   3.438   4.160   3.128 -0.2841 -0.2952  0.6013
   27MOL    O54 6346   3.589   4.273   3.260 -0.0837  0.1047 -0.0834
   27MOL    C55 6347   3.497   4.298   3.361  0.8035  0.7071 -0.3368
   27MOL    H56 6348   3.838   4.161   3.197 -2.3184  1.9425  0.9678
   27MOL    H57 6349   3.857   4.103   3.036 -1.0867  1.3275 -1.2424
   27MOL    H58 6350   3.612   4.127   2.983 -2.0658  0.6204  1.2439
   27MOL    H59 6351   3.409   4.354   3.330  0.1405 -0.2930 -0.2914
   27MOL    H60 6352   3.552   4.357   3.435  0.0355  0.4349  0.4625
   27MOL    H61 6353   3.479   4.205   3.415  2.2363  0.8175  0.3662
   27MOL    C62 6354   3.712   4.317   2.988 -0.3622  0.6774  0.3915
   27MOL    C63 6355   3.611   4.381   2.887  0.1334  0.1801  0.2541
   27MOL    C64 6356   3.622   4.529   2.899  0.6606 -0.6982  0.7529
   27MOL    O65 6357   3.683   4.590   2.813  0.3513  0.9703 -0.1858
   27MOL    O66 6358   3.555   4.577   3.009  0.3007  0.1200 -0.6950
   27MOL    C67 6359   3.544   4.711   3.018  0.3257 -0.4874 -0.8806
   27MOL    H68 6360   3.742   4.390   3.063 -0.0760  0.6895  0.2644
   27MOL    H69 6361   3.794   4.292   2.921 -0.4846 -0.9739  0.8357
   27MOL    H70 6362   3.511   4.351   2.919  0.9364  0.9491  3.6453
   27MOL    H71 6363   3.634   4.769   3.038  0.6489 -0.5217 -2.2091
   27MOL    H72 6364   3.474   4.722   3.102  1.5824  1.5106 -0.0478
   27MOL    H73 6365   3.504   4.746   2.923  1.2469  0.2943 -0.9904
   27MOL    C74 6366   3.648   4.325   2.743 -0.4069  0.5307  0.1477
   27MOL    C75 6367   3.559   4.381   2.623 -0.0206  0.1520 -0.4905
   27MOL    C76 6368   3.619   4.344   2.487 -0.8256 -0.5146 -0.0891
   27MOL    O77 6369   3.654   4.434   2.406  0.0074 -0.1505  0.2795
   27MOL    O78 6370   3.628   4.212   2.458  0.1524 -0.3620  0.7801
   27MOL    C79 6371   3.695   4.183   2.331  0.4774  0.1656  0.3237
   27MOL    H80 6372   3.745   4.364   2.713 -0.3581  0.5653  0.3538
   27MOL    H81 6373   3.658   4.217   2.744  0.8259  0.6174 -1.2940
   27MOL    H82 6374   3.556   4.490   2.613 -1.3798  0.2821  1.0396
   27MOL    H83 6375   3.801   4.207   2.332  0.3516  0.7265  0.1235
   27MOL    H84 6376   3.659   4.232   2.240 -0.6845 -1.4935 -0.1408
   27MOL    H85 6377   3.699   4.075   2.316 -0.1101  0.0016  1.2716
   27MOL    C86 6378   3.417   4.324   2.642  0.4034  0.0413  0.0169
   27MOL    C87 6379   3.307   4.434   2.671  0.1589 -0.1148 -0.0981
   27MOL    C88 6380   3.300   4.535   2.565 -0.3281 -0.1892 -0.2802
   27MOL    O89 6381   3.329   4.660   2.579 -0.5398  0.2812  0.0867
   27MOL    O90 6382   3.261   4.480   2.448 -0.0965 -0.2852 -0.2889
   27MOL    C91 6383   3.282   4.552   2.326 -1.2495  0.3712  0.5648
   27MOL    H92 6384   3.380   4.269   2.555  0.3874  1.1594 -0.7070
   27MOL    H93 6385   3.411   4.243   2.714 -2.1683 -2.5761 -2.9501
   27MOL    H94 6386   3.355   4.491   2.750  1.0935 -1.4267  0.3112
   27MOL    H95 6387   3.242   4.505   2.236 -1.2515  2.0102 -0.3199
   27MOL    H96 6388   3.389   4.561   2.309 -1.1518 -0.4298  0.7736
   27MOL    H97 6389   3.236   4.651   2.339 -1.2274  0.2128  1.8970
   27MOL    C98 6390   3.168   4.378   2.716 -0.5319  0.6637 -0.1125
   27MOL    C99 6391   3.176   4.302   2.848 -0.2264  0.2048  0.3388
   27MOL   C100 6392   3.166   4.393   2.974 -0.4248 -0.7986  0.7617
   27MOL   O101 6393   3.148   4.338   3.083 -0.9206 -0.4064  0.2774
   27MOL   O102 6394   3.183   4.528   2.954  0.1717 -0.1733  0.3889
   27MOL   C103 6395   3.217   4.611   3.067 -0.0101  0.6982  0.5032
   27MOL   H104 6396   3.108   4.468   2.725 -0.5674  0.4847  1.5233
   27MOL   H105 6397   3.122   4.323   2.634 -1.2208  0.3717  0.4632
   27MOL   H106 6398   3.280   4.270   2.858 -0.1543 -0.0987 -1.2837
   27MOL   H107 6399   3.127   4.614   3.129  0.7954 -1.1577  1.7857
   27MOL   H108 6400   3.237   4.715   3.041  1.0551 -0.5436 -4.0939
   27MOL   H109 6401   3.306   4.573   3.117 -0.9719  2.5701  3.7972
   27MOL   C110 6402   3.093   4.172   2.859  0.0901  0.3422 -0.3049
   27MOL   C111 6403   3.136   4.059   2.769  0.7584  0.3753 -0.0705
   27MOL   C112 6404   3.256   3.984   2.823 -0.4999  0.5546 -0.0876
   27MOL   O113 6405   3.362   3.985   2.758 -0.1361  0.6777 -0.4569
   27MOL   O114 6406   3.241   3.934   2.945  0.1180 -0.7495 -0.0571
   27MOL   C115 6407   3.350   3.871   3.004  0.3153  0.0386  0.2293
   27MOL   H116 6408   3.081   4.131   2.959  0.7701  4.3228  1.4661
   27MOL   H117 6409   2.994   4.207   2.830 -0.1892 -1.2623 -1.3632
   27MOL   H118 6410   3.169   4.099   2.673 -1.7438 -1.2229 -1.6585
   27MOL   H119 6411   3.316   3.825   3.096 -0.8706 -0.4122 -0.4338
   27MOL   H120 6412   3.442   3.927   3.021  0.1039  0.8599 -1.2637
   27MOL   H121 6413   3.375   3.786   2.941 -0.5127  1.0077 -1.4598
   27MOL   C122 6414   3.016   3.972   2.725 -0.4385  0.5400 -0.4199
   27MOL   C123 6415   3.032   3.907   2.585 -0.0541  0.1166 -0.1647
   27MOL   C124 6416   2.942   3.787   2.570 -0.5702 -0.0259  0.3271
   27MOL   O125 6417   2.989   3.682   2.536 -0.0283  0.0950  0.0179
   27MOL   O126 6418   2.816   3.805   2.591  0.0970 -0.0371  0.7026
   27MOL   C127 6419   2.728   3.692   2.576  0.3703 -0.2182  0.0437
   27MOL   H128 6420   3.016   3.892   2.799  0.6034  0.5253 -0.4333
   27MOL   H129 6421   2.921   4.025   2.727  0.0276  1.5648 -3.2072
   27MOL   H130 6422   3.130   3.860   2.578 -1.1128 -2.0460 -1.0066
   27MOL   H131 6423   2.621   3.711   2.572  0.0542 -1.7094  0.9956
   27MOL   H132 6424   2.739   3.603   2.637  1.0835 -0.5033 -0.4927
   27MOL   H133 6425   2.742   3.661   2.472  0.4721  1.2963 -0.4000
   27MOL   C134 6426   3.008   4.012   2.471  0.3079 -0.6048  0.0317
   27MOL   C135 6427   3.030   3.985   2.323  0.4097  0.2403  0.8305
   27MOL   C136 6428   3.177   3.942   2.298  0.7131 -1.2435  0.2718
   27MOL   O137 6429   3.218   3.842   2.239  0.2742  0.3319 -0.2626
   27MOL   O138 6430   3.254   4.031   2.360  0.0867  0.0051 -0.4288
   27MOL   C139 6431   3.393   4.002   2.397  0.4011  0.6495  0.0672
   27MOL   H140 6432   2.906   4.044   2.492  1.2040  1.5912  1.1947
   27MOL   H141 6433   3.065   4.102   2.493 -0.2590 -0.3146  0.3401
   27MOL   H142 6434   2.998   4.085   2.292  0.7951  0.6492  1.7328
   27MOL   H143 6435   3.465   4.039   2.324  0.1257  1.2538  0.1004
   27MOL   H144 6436   3.410   3.894   2.402 -0.5501  0.4340 -1.0231
   27MOL   H145 6437   3.415   4.037   2.497 -0.0048 -0.5993  0.6152
   27MOL   C146 6438   2.930   3.897   2.248  0.0951  0.1492 -0.3785
   27MOL   C147 6439   2.919   3.920   2.103 -0.0968  0.0277 -0.8400
   27MOL   C148 6440   2.838   3.818   2.028 -0.5734  0.0231 -0.3979
   27MOL   O149 6441   2.895   3.779   1.922  0.3764 -0.2945 -0.0666
   27MOL   O150 6442   2.722   3.790   2.085  0.2273 -0.1622 -0.4949
   27MOL   C151 6443   2.655   3.678   2.020 -0.0522 -0.6384  0.4404
   27MOL   H152 6444   2.961   3.794   2.268 -0.5094  0.1636  0.6860
   27MOL   H153 6445   2.828   3.904   2.287  0.4073 -1.0336  0.6996
   27MOL   H154 6446   3.023   3.907   2.075  0.1698 -1.0412  0.6063
   27MOL   H155 6447   2.556   3.653   2.057  0.0917 -2.0556 -0.0602
   27MOL   H156 6448   2.713   3.587   2.039  0.8074 -0.2272 -0.1622
   27MOL   H157 6449   2.624   3.684   1.916 -0.3335  0.8805  0.6109
   27MOL   C158 6450   2.876   4.058   2.053 -0.1000 -0.1892  0.5232
   27MOL   C159 6451   2.756   4.139   2.119  0.1760  0.6938 -0.3339
   27MOL   C160 6452   2.793   4.223   2.244 -0.3825 -0.1347  0.1298
   27MOL   O161 6453   2.736   4.215   2.352  0.2787 -0.0276  0.3027
   27MOL   O162 6454   2.879   4.316   2.220  1.0800 -0.4493  0.5481
   27MOL   C163 6455   2.926   4.401   2.322 -0.2859 -0.1970 -0.2093
   27MOL   H164 6456   2.960   4.126   2.069  0.1196 -0.7386  1.7838
   27MOL   H165 6457   2.863   4.052   1.945 -0.6720  0.9684  0.5139
   27MOL   H166 6458   2.686   4.057   2.135 -0.4528  0.7393 -2.6717
   27MOL   H167 6459   3.024   4.381   2.365 -0.0222  1.2219 -0.1386
   27MOL   H168 6460   2.865   4.417   2.411  1.6173  0.0891  1.0565
   27MOL   H169 6461   2.941   4.500   2.279 -0.4955  0.4944  1.2986
   27MOL   C170 6462   2.675   4.228   2.015  0.0742 -0.2341  0.2391
   27MOL   C171 6463   2.603   4.159   1.901 -0.2717 -0.0201  0.9582
   27MOL   C172 6464   2.472   4.098   1.950  0.1776  0.4491  0.0688
   27MOL   O173 6465   2.467   3.985   1.999 -0.5867  0.4444  0.0690
   27MOL   O174 6466   2.374   4.186   1.940  0.3241  0.4762  0.1531
   27MOL   C175 6467   2.250   4.153   2.000 -0.0220 -0.1823 -0.2048
   27MOL   H176 6468   2.602   4.290   2.068  0.1409 -1.7450  2.1657
   27MOL   H177 6469   2.746   4.298   1.974 -0.9046  0.2926 -0.5858
   27MOL   H178 6470   2.653   4.069   1.863  2.6957  1.6423  0.7723
   27MOL   H179 6471   2.184   4.093   1.937  0.4890 -0.2330 -0.6934
   27MOL   H180 6472   2.200   4.249   2.016  1.3346  0.3296  1.0492
   27MOL   H181 6473   2.262   4.106   2.097  1.8193  0.7962  0.0595
   27MOL   C182 6474   2.593   4.258   1.781  0.2511  0.5032  0.1224
   27MOL   C183 6475   2.713   4.318   1.702 -0.0009  0.6224  0.1135
   27MOL   C184 6476   2.786   4.210   1.613  0.6590 -0.0633 -0.3238
   27MOL   O185 6477   2.869   4.128   1.657 -0.1098 -0.2553 -0.5807
   27MOL   O186 6478   2.754   4.225   1.484  0.0177  0.3864 -0.8518
   27MOL   C187 6479   2.793   4.122   1.400  0.1642  0.1935  0.0227
   27MOL   H188 6480   2.527   4.212   1.707 -0.3223  1.2601  0.1610
   27MOL   H189 6481   2.530   4.337   1.820 -0.1171  1.5258 -2.4319
   27MOL   H190 6482   2.797   4.356   1.760  0.5310 -1.0574  0.4788
   27MOL   H191 6483   2.752   4.029   1.440 -1.6498  0.7692 -0.4153
   27MOL   H192 6484   2.895   4.119   1.361 -0.7583 -0.8684 -2.4802
   27MOL   H193 6485   2.725   4.141   1.317 -4.4372 -0.8506  3.3489
   27MOL   C194 6486   2.674   4.445   1.626 -0.2149  0.5244  0.8580
   27MOL   C195 6487   2.626   4.572   1.707  0.9908 -0.1891 -0.7843
   27MOL   C196 6488   2.738   4.648   1.773 -0.4453 -0.3015  0.0936
   27MOL   O197 6489   2.770   4.757   1.728  0.2439  0.3769  0.4223
   27MOL   O198 6490   2.783   4.600   1.885  0.4178 -0.0468 -0.2144
   27MOL   C199 6491   2.862   4.674   1.967  0.5848 -0.1570 -0.5530
   27MOL   H200 6492   2.767   4.466   1.573  0.2397 -0.5843  1.2149
   27MOL   H201 6493   2.603   4.404   1.554  0.8242 -1.8532  1.1719
   27MOL   H202 6494   2.561   4.551   1.792 -0.1032  3.0859 -0.7689
   27MOL   H203 6495   2.835   4.780   1.969 -0.5061 -0.4377  0.4005
   27MOL   H204 6496   2.968   4.670   1.945  0.9527 -0.1539  1.1351
   27MOL   H205 6497   2.853   4.635   2.069  1.8494  0.7938 -0.0758
   27MOL   C206 6498   2.534   4.672   1.622  0.5237  0.2890  0.0656
   27MOL   C207 6499   2.409   4.611   1.561  1.0485 -0.4038  0.1671
   27MOL   C208 6500   2.326   4.531   1.662  0.7254 -0.2590 -0.1533
   27MOL   O209 6501   2.300   4.570   1.776  0.2903 -0.6616  0.2079
   27MOL   O210 6502   2.298   4.404   1.615 -0.1019 -0.6668  0.0146
   27MOL   C211 6503   2.220   4.311   1.690  0.5358 -0.1104  0.2090
   27MOL   H212 6504   2.497   4.743   1.696 -1.2266 -0.0746 -0.4390
   27MOL   H213 6505   2.592   4.733   1.552  1.2640 -1.1170 -0.5629
   27MOL   H214 6506   2.440   4.552   1.475  0.8181  1.7529 -1.4364
   27MOL   H215 6507   2.210   4.342   1.794  1.0294 -0.9964  0.5285
   27MOL   H216 6508   2.273   4.216   1.693  0.6869  0.0184  2.5938
   27MOL   H217 6509   2.122   4.297   1.646  1.2854  0.7695 -1.8113
   27MOL   C218 6510   2.310   4.716   1.502 -0.0990  0.5478  0.5622
   27MOL   C219 6511   2.193   4.669   1.416  0.7484 -0.0696 -0.4549
   27MOL   C220 6512   2.073   4.761   1.426 -0.9964 -0.5930 -0.1958
   27MOL   O221 6513   1.980   4.734   1.494 -0.3693 -0.2165  0.0291
   27MOL   O222 6514   2.086   4.871   1.353  0.1625 -0.0340  0.7303
   27MOL   C223 6515   1.975   4.967   1.353 -0.3448 -0.2348 -0.1735
   27MOL   H224 6516   2.275   4.782   1.582  0.4857 -1.2296  2.3362
   27MOL   H225 6517   2.359   4.776   1.426  0.6939 -0.0091  0.6204
   27MOL   H226 6518   2.150   4.581   1.466 -0.8032  0.3300 -1.0450
   27MOL   H227 6519   1.972   5.027   1.261 -0.0882 -1.9271 -1.2994
   27MOL   H228 6520   1.980   5.041   1.433  1.4072 -1.1663  0.6051
   27MOL   H229 6521   1.891   4.899   1.348  0.5941 -1.6793  2.5446
   27MOL   C230 6522   2.239   4.635   1.267 -0.2178  0.7940 -0.1485
   27MOL   C231 6523   2.187   4.498   1.210 -0.3179 -0.0712 -0.3678
   27MOL   C232 6524   2.264   4.383   1.273 -0.4561  0.6439  0.4872
   27MOL   O233 6525   2.202   4.288   1.322  0.6345 -0.2947  0.2223
   27MOL   O234 6526   2.397   4.398   1.267 -0.4817 -0.3393 -0.7425
   27MOL   C235 6527   2.476   4.307   1.337  0.5997  0.0022  0.0432
   27MOL   H236 6528   2.210   4.715   1.199  0.2622 -0.6789 -2.1313
   27MOL   H237 6529   2.348   4.639   1.259 -0.2042  2.7642  0.6608
   27MOL   H238 6530   2.187   4.486   1.102  1.7239 -0.0893 -0.3748
   27MOL   H239 6531   2.460   4.303   1.445  2.1552 -1.0617  0.2462
   27MOL   H240 6532   2.581   4.323   1.313  0.3212  2.2833  0.1995
   27MOL   H241 6533   2.461   4.206   1.298 -0.2078  0.1482 -0.0440
   27MOL   H242 6534   2.086   4.479   1.247  0.1527 -0.3705  0.7609
   28MOL     C1 6535   0.822   3.183   5.831  0.0784  0.6558 -0.3330
   28MOL     C2 6536   0.755   3.047   5.817  0.0729 -0.1668  0.0794
   28MOL     C3 6537   0.684   3.047   5.684 -0.4562  0.1977  0.2985
   28MOL     O4 6538   0.576   3.092   5.674 -0.0676  0.3974 -0.1306
   28MOL     O5 6539   0.767   3.003   5.591 -0.1932  0.3589 -0.0268
   28MOL     C6 6540   0.711   2.985   5.463  0.4940  0.3297  0.7291
   28MOL     H7 6541   0.863   3.190   5.932 -1.1318  3.5668 -0.0215
   28MOL     H8 6542   0.752   3.262   5.806 -2.0170 -0.8870  0.4241
   28MOL     H9 6543   0.677   3.037   5.892  1.5604  0.4184  1.7442
   28MOL    H10 6544   0.736   2.891   5.414  0.0898 -0.1520  1.4395
   28MOL    H11 6545   0.774   3.045   5.397 -1.3062  1.5422  0.0758
   28MOL    H12 6546   0.604   3.007   5.457  0.3181 -0.4284  1.0097
   28MOL    H13 6547   0.914   3.197   5.775  0.9513 -1.6570  0.4417
   28MOL    C14 6548   0.859   2.936   5.839  0.6701  0.0433  0.0432
   28MOL    C15 6549   0.796   2.798   5.834 -0.1698 -0.1763 -0.4027
   28MOL    C16 6550   0.911   2.694   5.830 -0.3852 -0.4115  0.1291
   28MOL    O17 6551   0.945   2.634   5.933 -0.1753  0.4307 -0.3743
   28MOL    O18 6552   0.973   2.682   5.715  0.0920  0.3076 -0.2632
   28MOL    C19 6553   1.073   2.595   5.682  0.0134 -0.1903  0.1446
   28MOL    H20 6554   0.942   2.960   5.772 -0.1766 -0.5658 -1.2261
   28MOL    H21 6555   0.909   2.957   5.934 -1.5572  0.6684  1.1114
   28MOL    H22 6556   0.744   2.769   5.743 -0.6982 -0.8786  0.1142
   28MOL    H23 6557   1.107   2.624   5.583 -1.0985  1.2239  0.1671
   28MOL    H24 6558   1.051   2.488   5.678 -1.8689  0.2534 -1.8235
   28MOL    H25 6559   1.165   2.593   5.741  0.6472  2.4100 -0.6898
   28MOL    C26 6560   0.704   2.768   5.958 -0.1093 -0.3198  0.4861
   28MOL    C27 6561   0.619   2.638   5.951  0.0546 -0.4417  0.5199
   28MOL    C28 6562   0.658   2.542   6.069  0.6205  0.6821  0.4439
   28MOL    O29 6563   0.731   2.577   6.161  1.1799 -0.0684 -0.2012
   28MOL    O30 6564   0.608   2.422   6.050  0.6043 -0.1956 -0.5881
   28MOL    C31 6565   0.651   2.319   6.134 -0.2248 -0.0474  0.2560
   28MOL    H32 6566   0.773   2.768   6.043 -0.4017  0.7271  0.7393
   28MOL    H33 6567   0.644   2.858   5.975  0.1271  0.0475 -0.5941
   28MOL    H34 6568   0.644   2.585   5.859 -1.8504  2.5602 -1.7916
   28MOL    H35 6569   0.745   2.273   6.105 -0.3846  0.6964 -1.4919
   28MOL    H36 6570   0.573   2.243   6.144 -0.8267  0.6619  1.0176
   28MOL    H37 6571   0.676   2.353   6.234 -0.3888 -0.5497  0.4701
   28MOL    C38 6572   0.468   2.652   5.941 -0.3203 -0.7273  0.1705
   28MOL    C39 6573   0.416   2.745   5.837  0.6326  0.5462 -0.7161
   28MOL    C40 6574   0.410   2.688   5.695 -0.6779  0.0923  0.3010
   28MOL    O41 6575   0.504   2.705   5.613  0.1185  0.4365 -0.3670
   28MOL    O42 6576   0.304   2.617   5.665 -0.2209 -0.2017 -0.5142
   28MOL    C43 6577   0.278   2.568   5.531 -0.2733 -0.2404 -0.1661
   28MOL    H44 6578   0.417   2.556   5.936 -2.4273  0.4424 -1.5544
   28MOL    H45 6579   0.449   2.700   6.037 -0.9091  2.0545 -1.2881
   28MOL    H46 6580   0.475   2.837   5.829  1.4813 -0.1126 -2.2627
   28MOL    H47 6581   0.319   2.468   5.520  0.5364 -0.0270  0.9094
   28MOL    H48 6582   0.306   2.643   5.456  0.2021 -1.4462 -1.2238
   28MOL    H49 6583   0.170   2.557   5.536 -0.0932 -1.1782  1.8260
   28MOL    C50 6584   0.278   2.790   5.867  0.2594 -0.7127  0.1784
   28MOL    C51 6585   0.242   2.888   5.990  0.2260 -0.1371 -0.2260
   28MOL    C52 6586   0.319   3.019   5.986  0.7611 -0.6068 -0.2320
   28MOL    O53 6587   0.425   3.042   6.037 -0.2130  0.1083  0.2965
   28MOL    O54 6588   0.260   3.107   5.912 -0.3582 -0.5657 -0.0391
   28MOL    C55 6589   0.320   3.236   5.875 -0.1239  0.3021  0.4199
   28MOL    H56 6590   0.228   2.829   5.778 -0.4845 -2.5000 -0.2230
   28MOL    H57 6591   0.219   2.702   5.893  0.4613 -0.4963  1.3777
   28MOL    H58 6592   0.288   2.842   6.078  1.2621  0.5286 -0.4060
   28MOL    H59 6593   0.414   3.219   5.824 -1.3144 -1.5677 -1.1924
   28MOL    H60 6594   0.340   3.304   5.959  1.5860  2.1699 -1.4410
   28MOL    H61 6595   0.247   3.294   5.818 -1.2532 -0.2064  1.3273
   28MOL    C62 6596   0.093   2.913   5.998  0.4357  0.4508 -0.4075
   28MOL    C63 6597   0.022   2.823   6.108 -0.6590  0.0154 -0.2616
   28MOL    C64 6598   0.038   2.675   6.080  0.2804 -0.3429  0.2281
   28MOL    O65 6599   0.097   2.599   6.154 -0.0824  0.0826 -0.0583
   28MOL    O66 6600   7.915   2.642   5.957 -0.4057  0.8313 -0.6445
   28MOL    C67 6601   0.010   2.511   5.916 -0.9420  0.0712 -0.6976
   28MOL    H68 6602   0.069   3.015   6.029  1.3163  1.0443 -1.6387
   28MOL    H69 6603   0.045   2.903   5.901  2.0212  2.3690 -1.4324
   28MOL    H70 6604   7.851   2.851   6.086  0.3564  2.2446 -2.4709
   28MOL    H71 6605   7.901   2.439   5.987 -2.7721 -0.7791 -2.5792
   28MOL    H72 6606   0.115   2.495   5.895 -1.0854 -3.9005  1.1677
   28MOL    H73 6607   7.899   2.491   5.818 -2.5298  1.5493 -0.3186
   28MOL    C74 6608   0.062   2.858   6.258  0.1891  0.3516  0.1082
   28MOL    C75 6609   7.881   2.915   6.349 -0.3882  0.7313 -0.2712
   28MOL    C76 6610   7.759   2.828   6.357 -0.0489  0.3097  0.7288
   28MOL    O77 6611   7.743   2.757   6.457  0.3488 -0.0353 -0.4867
   28MOL    O78 6612   7.682   2.837   6.241 -0.1214  1.0779  0.4188
   28MOL    C79 6613   7.562   2.768   6.243  0.0136  0.2204 -0.3564
   28MOL    H80 6614   0.109   2.774   6.308  0.3698  0.8998  0.8669
   28MOL    H81 6615   0.135   2.936   6.237 -0.2613  1.0442  1.0634
   28MOL    H82 6616   7.848   3.006   6.299 -0.2342  1.2990  0.6525
   28MOL    H83 6617   7.511   2.767   6.147 -2.3635  1.1788  0.8490
   28MOL    H84 6618   7.500   2.834   6.305 -2.2641 -0.4150 -1.8775
   28MOL    H85 6619   7.579   2.669   6.284 -1.0438 -1.2439 -3.3767
   28MOL    C86 6620   7.930   2.945   6.498 -0.2082  0.8451  0.6176
   28MOL    C87 6621   7.835   3.021   6.594 -0.4573  0.0317 -0.3691
   28MOL    C88 6622   7.898   3.037   6.733  0.6565  0.7469 -0.0644
   28MOL    O89 6623   0.085   3.056   6.749  0.4544  0.5508  0.1780
   28MOL    O90 6624   7.808   3.026   6.830  0.2199  0.1714 -0.3602
   28MOL    C91 6625   7.846   3.045   6.967  0.0640  0.5845 -0.1082
   28MOL    H92 6626   0.011   2.845   6.537 -2.5257  0.8201  1.4262
   28MOL    H93 6627   0.094   2.994   6.508  1.4296 -2.4025  1.0389
   28MOL    H94 6628   7.746   2.960   6.611  0.0098 -0.2212  1.2432
   28MOL    H95 6629   7.885   2.949   7.000  0.4239  0.3071 -1.2960
   28MOL    H96 6630   7.755   3.066   7.022  0.2772  1.9777 -0.2663
   28MOL    H97 6631   7.919   3.121   6.993  1.2289 -0.4143 -0.4223
   28MOL    C98 6632   7.793   3.153   6.540  0.5456  0.2625  0.1617
   28MOL    C99 6633   7.687   3.228   6.629 -0.2554  0.5464  0.4542
   28MOL   C100 6634   7.657   3.369   6.573 -0.0406 -0.5270  0.1076
   28MOL   O101 6635   7.586   3.448   6.636 -0.2452 -0.5051  0.4061
   28MOL   O102 6636   7.729   3.391   6.461 -0.1526 -0.5102  0.1883
   28MOL   C103 6637   7.710   3.507   6.381  0.8932 -0.2714  0.1296
   28MOL   H104 6638   7.886   3.210   6.543  1.2768 -0.5998 -3.6009
   28MOL   H105 6639   7.757   3.151   6.437 -1.0936 -0.9920  0.7356
   28MOL   H106 6640   7.747   3.256   6.716  0.7818  2.8439 -0.9733
   28MOL   H107 6641   7.604   3.530   6.386  0.3745 -2.4134 -0.3338
   28MOL   H108 6642   7.737   3.480   6.279  1.4886 -2.9533  0.9573
   28MOL   H109 6643   7.770   3.594   6.407 -1.5640  1.5193 -0.1147
   28MOL   C110 6644   7.556   3.146   6.656 -0.7810 -0.3562  0.8212
   28MOL   C111 6645   7.480   3.093   6.527  0.3183 -0.1450 -0.3073
   28MOL   C112 6646   7.427   2.948   6.551 -0.4985  0.5346 -0.1446
   28MOL   O113 6647   7.313   2.910   6.529 -0.1888  0.5941 -0.1953
   28MOL   O114 6648   7.528   2.858   6.603  0.0989 -0.4391 -0.1344
   28MOL   C115 6649   7.497   2.726   6.641  0.7022 -0.3133  0.3100
   28MOL   H116 6650   7.588   3.062   6.716 -1.2062  0.3596  2.0571
   28MOL   H117 6651   7.488   3.215   6.705 -2.4759 -2.4538  1.4445
   28MOL   H118 6652   7.549   3.079   6.445  0.0350 -0.6234 -0.4674
   28MOL   H119 6653   7.451   2.716   6.740 -0.4281 -1.6985 -0.3407
   28MOL   H120 6654   7.584   2.663   6.660  1.1001  0.0408 -0.3194
   28MOL   H121 6655   7.428   2.675   6.575 -0.2834  1.3265  0.0533
   28MOL   C122 6656   7.369   3.186   6.475 -0.1763 -0.1793  0.2927
   28MOL   C123 6657   7.378   3.204   6.322  0.5208 -0.1632  0.1294
   28MOL   C124 6658   7.302   3.090   6.244 -0.6628 -0.1590 -0.8224
   28MOL   O125 6659   7.362   3.023   6.160 -0.3625 -0.6766  0.0640
   28MOL   O126 6660   7.171   3.088   6.248 -0.0513  0.4283 -0.2173
   28MOL   C127 6661   7.096   3.001   6.171  0.3625 -0.7218 -0.2872
   28MOL   H128 6662   7.269   3.165   6.513 -0.0666 -0.4214  0.4475
   28MOL   H129 6663   7.392   3.284   6.517 -0.4111 -0.2475  0.5836
   28MOL   H130 6664   7.477   3.185   6.279  0.1361  0.6002 -1.1349
   28MOL   H131 6665   7.026   2.950   6.237 -0.1600  1.2316  0.6918
   28MOL   H132 6666   7.157   2.930   6.114  1.3573 -0.3405  0.2780
   28MOL   H133 6667   7.036   3.066   6.108  1.6979  0.5174 -0.3071
   28MOL   C134 6668   7.350   3.350   6.274  0.4917 -0.2319 -0.3727
   28MOL   C135 6669   7.379   3.379   6.125  0.0615 -0.1621  0.3040
   28MOL   C136 6670   7.246   3.366   6.033  0.0362  0.0827 -0.0860
   28MOL   O137 6671   7.171   3.465   6.020 -0.3941  0.1408  0.4196
   28MOL   O138 6672   7.229   3.242   5.992 -0.2235 -0.3216  0.2274
   28MOL   C139 6673   7.120   3.219   5.908 -0.4693  0.6535  0.3332
   28MOL   H140 6674   7.248   3.380   6.299  0.2965 -1.1264 -0.0965
   28MOL   H141 6675   7.408   3.420   6.335  1.8290 -1.5164 -0.1429
   28MOL   H142 6676   7.450   3.304   6.089 -0.0132 -0.4820  0.8189
   28MOL   H143 6677   7.114   3.124   5.856 -1.6496  1.0075 -0.2061
   28MOL   H144 6678   7.104   3.298   5.834  0.5573 -0.1509 -0.7491
   28MOL   H145 6679   7.026   3.222   5.964 -0.4870  0.3741  0.3151
   28MOL   C146 6680   7.443   3.517   6.121 -0.5306  0.1833  0.0036
   28MOL   C147 6681   7.472   3.580   5.979 -0.0970 -0.6148 -0.9329
   28MOL   C148 6682   7.508   3.725   5.987  0.2571  0.0264  0.4582
   28MOL   O149 6683   7.490   3.784   6.092 -0.0680 -0.1008 -0.2205
   28MOL   O150 6684   7.554   3.773   5.870  0.4620 -0.4170 -0.0729
   28MOL   C151 6685   7.580   3.912   5.860  0.1269 -0.4034 -0.7924
   28MOL   H152 6686   7.384   3.585   6.183  0.5052  0.0592  1.1521
   28MOL   H153 6687   7.539   3.508   6.172 -1.3559  2.2229  2.0254
   28MOL   H154 6688   7.371   3.580   5.939 -1.0718 -0.5631  1.4230
   28MOL   H155 6689   7.527   3.969   5.936  0.8281  0.5205 -0.9893
   28MOL   H156 6690   7.532   3.940   5.767  1.7517 -0.0811 -1.5552
   28MOL   H157 6691   7.688   3.930   5.862  0.7133 -3.4766 -1.0537
   28MOL   C158 6692   7.562   3.493   5.889 -0.0925 -0.4729 -0.2707
   28MOL   C159 6693   7.719   3.505   5.902 -0.0446  0.8080  0.6462
   28MOL   C160 6694   7.777   3.408   6.004 -0.4882  0.7602 -0.3546
   28MOL   O161 6695   7.710   3.323   6.060 -0.0195 -0.9639  0.5671
   28MOL   O162 6696   7.906   3.424   6.025 -0.0596 -0.1078 -0.5046
   28MOL   C163 6697   0.048   3.336   6.104 -0.7883 -0.3643 -0.5264
   28MOL   H164 6698   7.532   3.389   5.906  3.2891 -0.9676  3.6231
   28MOL   H165 6699   7.527   3.512   5.788  0.7530 -0.1936 -0.5130
   28MOL   H166 6700   7.748   3.600   5.946  2.9924 -0.7334  2.0933
   28MOL   H167 6701   0.016   3.364   6.204 -0.6886 -1.7710 -0.1031
   28MOL   H168 6702   0.155   3.356   6.090 -1.2203  2.1747 -0.4252
   28MOL   H169 6703   0.027   3.235   6.071  1.9824 -1.3041  0.4659
   28MOL   C170 6704   7.778   3.497   5.763  0.6389  0.3535  0.1024
   28MOL   C171 6705   7.930   3.532   5.745 -0.5742 -0.1094  0.5350
   28MOL   C172 6706   0.038   3.507   5.604 -0.0733  0.8850  0.3567
   28MOL   O173 6707   0.142   3.446   5.579  1.0957  0.2111 -0.6479
   28MOL   O174 6708   7.890   3.554   5.500  0.6107  0.4829  0.2571
   28MOL   C175 6709   7.914   3.526   5.363 -0.3685 -0.1042  0.2019
   28MOL   H176 6710   7.767   3.392   5.738  0.3840  0.9250 -2.3299
   28MOL   H177 6711   7.722   3.561   5.695  0.0242  0.0201  0.2941
   28MOL   H178 6712   0.055   3.459   5.802  0.6358 -1.0321 -1.7792
   28MOL   H179 6713   7.821   3.501   5.311  0.8151  0.1765 -2.0892
   28MOL   H180 6714   0.042   3.436   5.361 -0.8255 -0.4122  0.1254
   28MOL   H181 6715   0.036   3.602   5.308  1.1751 -1.7775 -0.5790
   28MOL   C182 6716   0.028   3.671   5.797  0.3093  0.3568  0.4173
   28MOL   C183 6717   0.167   3.701   5.866 -1.2198  0.2698 -0.0517
   28MOL   C184 6718   0.291   3.679   5.777 -0.4400  0.1625 -0.5000
   28MOL   O185 6719   0.379   3.603   5.814  0.5340 -0.4938 -0.1260
   28MOL   O186 6720   0.291   3.771   5.679  0.0151 -0.0604  0.7875
   28MOL   C187 6721   0.403   3.769   5.593  0.3034 -1.3596 -0.4809
   28MOL   H188 6722   0.009   3.751   5.726  1.1655 -1.4989 -1.9480
   28MOL   H189 6723   7.888   3.699   5.874  0.9968 -2.5442  2.1918
   28MOL   H190 6724   0.172   3.623   5.942  0.4615  0.2673 -0.1492
   28MOL   H191 6725   0.381   3.853   5.526  2.2422  0.6601  1.3281
   28MOL   H192 6726   0.401   3.672   5.543 -1.9366 -0.8082 -1.5536
   28MOL   H193 6727   0.501   3.769   5.639  0.3805 -0.4068 -0.6225
   28MOL   C194 6728   0.177   3.841   5.934  0.2588 -0.0297 -0.1812
   28MOL   C195 6729   0.074   3.883   6.039  0.9188  0.5921 -0.6038
   28MOL   C196 6730   0.083   3.785   6.161 -0.0184  0.1084 -0.8290
   28MOL   O197 6731   7.930   3.702   6.174  0.0327  0.3591 -0.2620
   28MOL   O198 6732   0.191   3.793   6.227 -0.3200  0.4171  0.8884
   28MOL   C199 6733   0.222   3.730   6.346 -0.5519  0.1300  0.2083
   28MOL   H200 6734   0.278   3.862   5.967  0.7109  0.8529 -2.0530
   28MOL   H201 6735   0.166   3.908   5.849  0.3284  0.4625  0.1931
   28MOL   H202 6736   7.904   3.866   6.007  1.7026 -1.0080 -2.3777
   28MOL   H203 6737   0.321   3.749   6.388 -0.9881  0.1647  1.2273
   28MOL   H204 6738   0.215   3.623   6.326  1.8213 -0.4731  2.3237
   28MOL   H205 6739   0.144   3.757   6.417 -0.4370  1.3981 -0.1411
   28MOL   C206 6740   0.106   4.031   6.086  0.2588 -0.4941  0.3997
   28MOL   C207 6741   7.918   4.113   6.139  0.2052 -0.7453 -0.1370
   28MOL   C208 6742   7.889   4.084   6.283  0.4380 -0.4236 -0.4187
   28MOL   O209 6743   7.803   4.007   6.318 -0.5380  0.5266  0.0371
   28MOL   O210 6744   0.037   4.144   6.366 -0.0470 -0.4926  0.3211
   28MOL   C211 6745   0.028   4.124   6.499 -0.3311 -0.3800 -0.0968
   28MOL   H212 6746   0.180   4.027   6.165  0.0139  0.9024  0.7190
   28MOL   H213 6747   0.150   4.085   6.002 -0.2533 -0.1532  0.3489
   28MOL   H214 6748   7.826   4.087   6.087  0.2743  1.5755 -1.5419
   28MOL   H215 6749   0.116   4.143   6.560 -1.1994 -1.0931  1.4093
   28MOL   H216 6750   7.928   4.023   6.524  0.9434 -1.3709 -2.3568
   28MOL   H217 6751   7.884   4.190   6.538  0.2103  0.1131  0.1451
   28MOL   C218 6752   0.006   4.267   6.122  0.2716 -0.0303  0.5468
   28MOL   C219 6753   0.013   4.326   5.979  0.0253  0.4299  0.0043
   28MOL   C220 6754   7.811   4.303   5.905  0.0645  0.1578 -0.2867
   28MOL   O221 6755   7.810   4.249   5.796  0.3676 -0.4608 -0.0735
   28MOL   O222 6756   7.707   4.348   5.973  0.3246  0.5910  0.4572
   28MOL   C223 6757   7.577   4.332   5.917 -0.3070  0.1942 -0.3971
   28MOL   H224 6758   7.866   4.320   6.183 -0.0009  1.4528 -1.0411
   28MOL   H225 6759   0.102   4.292   6.166  0.5984  1.6974 -1.0840
   28MOL   H226 6760   0.083   4.272   5.915  1.4417  1.9374  0.2209
   28MOL   H227 6761   7.533   4.236   5.942  1.4447 -0.2583  1.0527
   28MOL   H228 6762   7.588   4.330   5.809  1.7820 -1.5762 -0.1778
   28MOL   H229 6763   7.512   4.413   5.951 -1.0029 -0.3392 -0.4632
   28MOL   C230 6764   0.050   4.471   5.988 -0.6254  0.3790  0.6247
   28MOL   C231 6765   0.104   4.533   5.850 -0.3932 -0.3372 -0.9139
   28MOL   C232 6766   0.188   4.661   5.867 -0.6957  0.0681  0.0889
   28MOL   O233 6767   0.165   4.764   5.803  0.2498  0.2685 -0.4516
   28MOL   O234 6768   0.300   4.651   5.945  0.1836  0.4447 -0.2481
   28MOL   C235 6769   0.384   4.757   5.975 -0.0231 -0.3246 -0.0748
   28MOL   H236 6770   7.905   4.538   6.027 -0.9333 -0.4052  1.3760
   28MOL   H237 6771   0.130   4.477   6.062 -0.7420  0.1161  0.7705
   28MOL   H238 6772   0.017   4.552   5.788 -2.1243 -2.0844  0.9064
   28MOL   H239 6773   0.335   4.850   6.005  1.6865  0.6788 -0.3288
   28MOL   H240 6774   0.459   4.781   5.900  1.0386  1.3325  1.4474
   28MOL   H241 6775   0.444   4.726   6.061  0.1223  0.1592  0.0038
   28MOL   H242 6776   0.167   4.460   5.798  1.5565  0.1703  0.6317
   29MOL     C1 6777   4.454   5.809   7.345 -0.4460  0.0060 -0.1131
   29MOL     C2 6778   4.469   5.671   7.273  0.7500  0.3316 -0.5488
   29MOL     C3 6779   4.456   5.668   7.124 -0.1133 -0.3576  0.2756
   29MOL     O4 6780   4.353   5.628   7.072  0.2583  0.0951 -0.1463
   29MOL     O5 6781   4.558   5.719   7.063 -0.0955  0.0975 -0.0169
   29MOL     C6 6782   4.558   5.725   6.925  0.1003  0.3321 -0.9812
   29MOL     H7 6783   4.409   5.886   7.282 -1.5672  1.9147  2.9101
   29MOL     H8 6784   4.550   5.841   7.385 -0.7551  1.0135 -0.1468
   29MOL     H9 6785   4.383   5.615   7.312  1.2584 -0.2366 -0.2338
   29MOL    H10 6786   4.660   5.753   6.898  0.3434  1.4230  0.9810
   29MOL    H11 6787   4.496   5.810   6.896 -0.0762  0.5675  0.0606
   29MOL    H12 6788   4.542   5.627   6.880 -1.8718 -0.5267  1.4836
   29MOL    H13 6789   4.392   5.803   7.434 -1.0793 -0.8860 -0.6072
   29MOL    C14 6790   4.589   5.590   7.317  0.2098  0.8851 -0.6571
   29MOL    C15 6791   4.583   5.438   7.288 -0.1411 -0.3400 -0.2887
   29MOL    C16 6792   4.712   5.389   7.208 -0.3814  0.3089 -0.3926
   29MOL    O17 6793   4.710   5.331   7.096 -0.5656  0.0485  0.3622
   29MOL    O18 6794   4.827   5.417   7.275  0.2330  0.7683 -0.0265
   29MOL    C19 6795   4.951   5.377   7.228  0.5602 -0.0184 -0.7942
   29MOL    H20 6796   4.680   5.641   7.287  0.5894 -0.5311 -2.0116
   29MOL    H21 6797   4.595   5.600   7.426  1.7569  0.4974 -0.6997
   29MOL    H22 6798   4.498   5.411   7.226 -0.2570  0.0498 -0.3044
   29MOL    H23 6799   5.027   5.422   7.291 -1.5887  0.9726  1.1659
   29MOL    H24 6800   4.954   5.405   7.123  0.1006 -2.1377 -1.4086
   29MOL    H25 6801   4.959   5.268   7.234  0.0876  0.0289  0.9271
   29MOL    C26 6802   4.549   5.351   7.413  0.2721 -0.0291  0.5521
   29MOL    C27 6803   4.438   5.248   7.393  0.1815  0.0719 -0.4703
   29MOL    C28 6804   4.484   5.144   7.291  0.2710 -0.7179  0.2814
   29MOL    O29 6805   4.601   5.105   7.287  0.0156  0.0466  0.0276
   29MOL    O30 6806   4.382   5.100   7.207 -0.1554  0.3926 -0.1568
   29MOL    C31 6807   4.403   4.990   7.115  0.2162  0.2417 -0.0183
   29MOL    H32 6808   4.645   5.311   7.446  0.4861 -1.1564 -1.3102
   29MOL    H33 6809   4.532   5.416   7.498 -0.8383 -0.1506  0.4307
   29MOL    H34 6810   4.349   5.301   7.358  0.6734  1.1062 -0.1822
   29MOL    H35 6811   4.434   4.905   7.175 -1.4437  0.5114  1.2674
   29MOL    H36 6812   4.477   5.008   7.037  1.2202  0.9740  1.1113
   29MOL    H37 6813   4.311   4.964   7.062  0.7254 -1.7085  0.0157
   29MOL    C38 6814   4.401   5.190   7.528 -0.5569  0.0679 -0.1656
   29MOL    C39 6815   4.283   5.267   7.591  0.3495  0.4021  0.3520
   29MOL    C40 6816   4.146   5.251   7.529 -0.3387  0.5640 -0.4406
   29MOL    O41 6817   4.065   5.342   7.519 -0.3009  0.1897 -0.3080
   29MOL    O42 6818   4.118   5.125   7.493  0.0294  0.4311 -0.4688
   29MOL    C43 6819   4.003   5.108   7.415 -0.2465 -0.5916 -0.0678
   29MOL    H44 6820   4.372   5.086   7.515 -0.4886  0.1653 -1.1127
   29MOL    H45 6821   4.491   5.169   7.586  1.6957  0.9128 -3.2609
   29MOL    H46 6822   4.303   5.374   7.583 -1.5287  0.7603  0.0385
   29MOL    H47 6823   3.925   5.182   7.431 -0.7055 -0.6847 -1.7814
   29MOL    H48 6824   3.967   5.007   7.428  0.7067 -1.1028 -1.2210
   29MOL    H49 6825   4.038   5.112   7.311  0.4075  1.8848  0.2104
   29MOL    C50 6826   4.274   5.251   7.744 -0.3102 -0.1244 -0.1637
   29MOL    C51 6827   4.196   5.363   7.817  0.0125  0.1046  0.3238
   29MOL    C52 6828   4.078   5.305   7.900  0.1834  1.0727 -0.4849
   29MOL    O53 6829   4.061   5.307   0.092 -0.8882 -1.0016  0.4385
   29MOL    O54 6830   3.992   5.233   7.820  0.4518  0.7472 -0.0706
   29MOL    C55 6831   3.870   5.175   7.867  0.6960  0.2096 -0.6299
   29MOL    H56 6832   4.236   5.151   7.767 -3.2293 -0.0358 -4.0479
   29MOL    H57 6833   4.378   5.245   7.774 -0.2991  1.7681  0.2094
   29MOL    H58 6834   4.148   5.427   7.743 -2.1164 -1.9198 -0.1117
   29MOL    H59 6835   3.844   5.223   0.029  2.5318 -0.9126  0.4726
   29MOL    H60 6836   3.875   5.069   7.889 -0.8132  0.5433  1.5147
   29MOL    H61 6837   3.781   5.198   7.807  0.3200  1.0064  0.2168
   29MOL    C62 6838   4.297   5.433   7.908  0.5968  0.2998 -0.3447
   29MOL    C63 6839   4.417   5.508   7.839 -0.3410  0.0580  0.3809
   29MOL    C64 6840   4.387   5.635   7.757  0.4913  0.3317 -0.2905
   29MOL    O65 6841   4.390   5.633   7.636 -0.3093 -0.0926 -0.1239
   29MOL    O66 6842   4.361   5.738   7.841  0.4850 -0.6173  0.9954
   29MOL    C67 6843   4.347   5.875   7.785  0.8142 -0.2025  0.0939
   29MOL    H68 6844   4.261   5.512   0.041  1.4837 -0.6616  1.3253
   29MOL    H69 6845   4.344   5.360   0.040  2.6541  1.2301 -0.7648
   29MOL    H70 6846   4.457   5.430   7.774 -1.9906 -1.0508  0.6717
   29MOL    H71 6847   4.436   5.931   7.755  0.2401  1.6634  1.7614
   29MOL    H72 6848   4.300   5.935   7.863  0.3365  0.9807 -1.0865
   29MOL    H73 6849   4.271   5.877   7.707 -0.3010  1.4833  1.1880
   29MOL    C74 6850   4.543   5.522   7.922 -0.1720 -0.0442 -0.3720
   29MOL    C75 6851   4.676   5.569   7.865  0.4540 -0.0723 -0.1906
   29MOL    C76 6852   4.767   5.584   0.045  0.0774 -0.1802 -0.1293
   29MOL    O77 6853   4.803   5.696   0.079  0.4079 -0.1711 -0.0584
   29MOL    O78 6854   4.794   5.471   0.119  0.5419  0.4883 -0.1012
   29MOL    C79 6855   4.891   5.488   0.227 -0.8583  1.3228 -1.3084
   29MOL    H80 6856   4.517   5.587   0.073 -0.6662 -0.1691 -0.4285
   29MOL    H81 6857   4.561   5.428   0.041  1.3161  0.8943  0.8829
   29MOL    H82 6858   4.675   5.668   7.819  1.0341 -0.0131 -0.0767
   29MOL    H83 6859   4.993   5.468   0.193 -0.0114 -3.2354  3.2907
   29MOL    H84 6860   4.865   5.405   0.294  0.3027  2.6223  0.7992
   29MOL    H85 6861   4.891   5.575   0.292  2.2498  0.2473  0.2414
   29MOL    C86 6862   4.726   5.488   7.749  0.8595  0.0964 -0.5498
   29MOL    C87 6863   4.858   5.533   7.684 -0.2843  0.4452  0.0968
   29MOL    C88 6864   4.944   5.415   7.651 -0.6731  0.4838  0.4788
   29MOL    O89 6865   5.061   5.405   7.681 -0.4862 -0.1540 -0.2233
   29MOL    O90 6866   4.876   5.313   7.585  0.5156 -0.3963 -0.6323
   29MOL    C91 6867   4.945   5.211   7.522 -0.3377  0.4603  0.0038
   29MOL    H92 6868   4.737   5.383   7.773  0.0429  0.0550 -0.3547
   29MOL    H93 6869   4.654   5.487   7.667  1.6545 -2.8357 -1.2450
   29MOL    H94 6870   4.907   5.597   7.757  1.2370 -0.4110 -0.1493
   29MOL    H95 6871   5.001   5.252   7.438  0.9502 -0.3248  0.4753
   29MOL    H96 6872   4.882   5.128   7.489 -1.0199  0.6795  0.7291
   29MOL    H97 6873   5.029   5.178   7.583 -0.0853  1.8577  0.4110
   29MOL    C98 6874   4.842   5.622   7.561 -0.2273 -0.1988  0.1427
   29MOL    C99 6875   4.968   5.704   7.518  0.2573 -0.1023 -0.0336
   29MOL   C100 6876   4.968   5.745   7.373 -0.5655 -0.2030  0.0194
   29MOL   O101 6877   5.042   5.688   7.294 -0.0310 -0.7846  0.2841
   29MOL   O102 6878   4.872   5.839   7.330 -0.1864 -0.0738  1.0680
   29MOL   C103 6879   4.855   5.856   7.193  0.1178 -0.4430 -0.0542
   29MOL   H104 6880   4.810   5.572   7.470  0.7523  1.1800 -0.9734
   29MOL   H105 6881   4.772   5.703   7.579  1.4211  1.4268 -0.5455
   29MOL   H106 6882   5.057   5.642   7.523  1.9601  2.3498  0.8337
   29MOL   H107 6883   4.899   5.951   7.162  3.0516 -2.0856 -1.0574
   29MOL   H108 6884   4.750   5.865   7.164 -0.0938 -1.0399  0.5037
   29MOL   H109 6885   4.891   5.771   7.135  0.0557 -0.1413 -0.5319
   29MOL   C110 6886   4.985   5.824   7.615 -0.1848 -0.2698 -0.7540
   29MOL   C111 6887   5.136   5.862   7.650  0.0622 -0.1013  0.0327
   29MOL   C112 6888   5.214   5.913   7.530 -0.3321 -0.3487 -0.4964
   29MOL   O113 6889   5.165   5.989   7.452 -0.3511  0.1999  0.7441
   29MOL   O114 6890   5.329   5.838   7.518 -0.0310 -0.0921 -0.6260
   29MOL   C115 6891   5.414   5.855   7.413  0.7535  0.5357  0.5786
   29MOL   H116 6892   4.928   5.910   7.580 -0.7111 -0.8753 -1.3860
   29MOL   H117 6893   4.929   5.801   7.705 -0.0650  0.1803 -0.5597
   29MOL   H118 6894   5.183   5.776   7.699 -0.6726 -0.6804 -0.2671
   29MOL   H119 6895   5.478   5.766   7.417  0.4973  0.3965  1.9026
   29MOL   H120 6896   5.483   5.937   7.431  1.8929 -0.8345  2.7174
   29MOL   H121 6897   5.364   5.859   7.316  1.9007  2.1451  0.0332
   29MOL   C122 6898   5.122   5.978   7.752 -0.0813  0.5063  0.3802
   29MOL   C123 6899   5.094   5.935   7.902  0.4054 -0.4933  0.0734
   29MOL   C124 6900   5.207   5.856   0.043  0.0756  0.5804 -0.2373
   29MOL   O125 6901   5.323   5.895   0.058  0.1857 -0.2624 -0.6004
   29MOL   O126 6902   5.159   5.740   0.093  0.0467  0.5701  0.0042
   29MOL   C127 6903   5.243   5.668   0.178  0.2566 -0.0073 -0.4748
   29MOL   H128 6904   5.213   6.036   7.737 -0.6990  1.0609 -1.4483
   29MOL   H129 6905   5.041   6.039   7.713 -0.6964  0.2304  1.2072
   29MOL   H130 6906   5.007   5.869   7.903 -0.8563  1.1596  1.8598
   29MOL   H131 6907   5.271   5.726   0.266  2.1570 -1.5073 -0.0676
   29MOL   H132 6908   5.332   5.634   0.126 -1.4931 -1.8330 -2.4124
   29MOL   H133 6909   5.189   5.579   0.210 -0.3126  0.3489 -0.4193
   29MOL   C134 6910   5.043   6.043   0.067 -0.7184 -0.3723 -0.3226
   29MOL   C135 6911   5.146   6.144   0.130  0.9059  0.2501 -0.1581
   29MOL   C136 6912   5.211   6.242   0.028 -0.6155 -0.1181  0.4492
   29MOL   O137 6913   5.327   6.242   7.926 -0.4733 -0.6045  0.6061
   29MOL   O138 6914   5.108   6.309   7.907  0.3835 -0.1134  0.3451
   29MOL   C139 6915   5.126   6.401   7.810 -0.1138  0.1058  0.2284
   29MOL   H140 6916   4.960   6.103   0.029  0.5525  0.2248 -2.2641
   29MOL   H141 6917   5.010   5.992   0.157 -1.9984  1.5480  0.3384
   29MOL   H142 6918   5.227   6.093   0.183  0.2120 -0.0976  0.5848
   29MOL   H143 6919   5.120   6.359   7.710  0.7256  0.3724  0.0628
   29MOL   H144 6920   5.225   6.445   7.821  0.1387 -0.4338  0.1227
   29MOL   H145 6921   5.051   6.479   7.826 -0.0861  0.7020 -2.4532
   29MOL   C146 6922   5.085   6.229   0.243 -0.3110  0.1332 -0.0620
   29MOL   C147 6923   5.157   6.348   0.313 -0.1940 -0.3169  0.0823
   29MOL   C148 6924   5.059   6.449   0.370  0.1937  0.2200  0.4577
   29MOL   O149 6925   5.025   6.550   0.310  0.1343 -0.1661 -0.2118
   29MOL   O150 6926   5.015   6.416   0.494 -0.0093  0.7508  0.3211
   29MOL   C151 6927   4.910   6.503   0.550 -0.7523  0.7621  1.4610
   29MOL   H152 6928   4.990   6.263   0.201 -0.9213 -1.6229 -0.1797
   29MOL   H153 6929   5.057   6.165   0.327  1.0890  0.5647  0.7404
   29MOL   H154 6930   5.195   6.398   0.224  2.1722 -3.1249 -0.5672
   29MOL   H155 6931   4.968   6.593   0.568  1.3511 -0.1004 -0.7216
   29MOL   H156 6932   4.861   6.460   0.638 -0.1868 -3.4855 -0.1936
   29MOL   H157 6933   4.838   6.531   0.474  1.3158  1.3736 -0.3062
   29MOL   C158 6934   5.276   6.293   0.398 -0.5131  0.1546 -0.2101
   29MOL   C159 6935   5.399   6.390   0.392  0.1995 -0.0551 -0.0524
   29MOL   C160 6936   5.380   6.532   0.463 -0.2208  0.4332  0.3226
   29MOL   O161 6937   5.303   6.543   0.558 -0.2491 -0.3579 -0.1492
   29MOL   O162 6938   5.446   6.623   0.404  0.5067 -0.0416  0.0241
   29MOL   C163 6939   5.427   6.754   0.444 -0.3195 -0.0230 -0.4626
   29MOL   H164 6940   5.241   6.277   0.500  1.0708 -1.1507  0.1525
   29MOL   H165 6941   5.304   6.197   0.354 -0.1750  0.8566 -1.5566
   29MOL   H166 6942   5.425   6.409   0.288  0.8661 -0.7454 -0.0153
   29MOL   H167 6943   5.320   6.772   0.436 -0.0963  0.4900 -2.4359
   29MOL   H168 6944   5.477   6.824   0.377  0.1555  0.0697 -0.0182
   29MOL   H169 6945   5.478   6.770   0.539  1.1869  2.6040 -1.6488
   29MOL   C170 6946   5.530   6.336   0.452  0.4203  0.5140 -0.3790
   29MOL   C171 6947   5.596   6.213   0.388 -0.4514  0.3736 -0.1608
   29MOL   C172 6948   5.672   6.250   0.262  0.0865 -0.5003  0.6460
   29MOL   O173 6949   5.796   6.229   0.246 -0.0016  0.1757  0.1754
   29MOL   O174 6950   5.596   6.303   0.173 -0.1722 -0.5890  0.3209
   29MOL   C175 6951   5.649   6.339   0.040  0.4094 -0.1056  0.2809
   29MOL   H176 6952   5.605   6.414   0.464  0.3949  0.4038  0.5683
   29MOL   H177 6953   5.507   6.311   0.556  0.0954 -0.5756 -0.7089
   29MOL   H178 6954   5.524   6.137   0.357 -0.5321  0.5222 -0.3401
   29MOL   H179 6955   5.703   6.433   0.030 -0.1412 -0.0839 -2.8846
   29MOL   H180 6956   5.562   6.346   7.907  1.2342 -0.8997 -0.9079
   29MOL   H181 6957   5.701   6.254   7.929 -0.7083  0.8222 -2.9367
   29MOL   C182 6958   5.685   6.142   0.487 -0.0722 -0.6065 -0.5860
   29MOL   C183 6959   5.615   6.090   0.616 -0.0010  0.3747 -0.3675
   29MOL   C184 6960   5.496   6.000   0.581 -0.2419 -0.9447 -0.0742
   29MOL   O185 6961   5.389   6.031   0.633  0.5590 -0.5426  0.3726
   29MOL   O186 6962   5.524   5.897   0.493 -0.8905 -0.3237 -0.2201
   29MOL   C187 6963   5.417   5.801   0.482 -0.3129  0.3922  0.3744
   29MOL   H188 6964   5.715   6.050   0.438  0.1968  0.0806 -1.7294
   29MOL   H189 6965   5.779   6.188   0.517  0.4218 -0.7890 -1.8423
   29MOL   H190 6966   5.571   6.169   0.676  3.1091  0.5668  1.8109
   29MOL   H191 6967   5.386   5.770   0.582 -1.3826 -0.9087 -0.3507
   29MOL   H192 6968   5.451   5.718   0.421  1.7523 -0.5448  2.6892
   29MOL   H193 6969   5.331   5.851   0.439  1.0695  0.7804 -2.0079
   29MOL   C194 6970   5.712   6.014   0.707  0.4290 -0.3826  0.5522
   29MOL   C195 6971   5.807   6.106   0.788  0.5147  0.4339  0.0706
   29MOL   C196 6972   5.775   6.107   0.935  0.0239  0.0908  0.2376
   29MOL   O197 6973   5.858   6.064   1.026  0.0635 -0.1773 -0.1571
   29MOL   O198 6974   5.647   6.151   0.960 -0.7508 -0.2384 -0.0307
   29MOL   C199 6975   5.602   6.150   1.102 -0.5748  0.4804  0.4222
   29MOL   H200 6976   5.657   5.938   0.763 -1.3657 -1.0173 -1.9812
   29MOL   H201 6977   5.773   5.944   0.651 -1.6171 -2.2711  0.5967
   29MOL   H202 6978   5.783   6.203   0.746 -1.6077  0.8486  2.1267
   29MOL   H203 6979   5.537   6.237   1.105 -0.7768  0.3964 -1.1037
   29MOL   H204 6980   5.683   6.177   1.170 -1.1175 -0.9113  1.6584
   29MOL   H205 6981   5.542   6.064   1.134 -1.0231  0.6515  0.0522
   29MOL   C206 6982   5.961   6.078   0.774 -0.1989  0.9611 -0.2537
   29MOL   C207 6983   6.039   6.212   0.799  0.5442  1.3764  0.1397
   29MOL   C208 6984   6.173   6.194   0.865 -0.0050  0.5698  0.1133
   29MOL   O209 6985   6.222   6.285   0.944 -0.4319  0.2997  0.1322
   29MOL   O210 6986   6.243   6.092   0.820  0.3747  0.5572 -0.3618
   29MOL   C211 6987   6.356   6.055   0.892 -0.5547 -0.0978  0.1272
   29MOL   H212 6988   5.989   6.001   0.845 -2.0776  0.3376 -0.1887
   29MOL   H213 6989   5.993   6.036   0.679  0.9170  0.8091  0.1733
   29MOL   H214 6990   5.976   6.274   0.863  0.1791  2.7116 -1.4639
   29MOL   H215 6991   6.422   5.982   0.846  0.3275  1.8694 -1.8091
   29MOL   H216 6992   6.324   6.036   0.994  3.3056  0.0159  1.4206
   29MOL   H217 6993   6.429   6.134   0.908  0.9084 -1.0078 -1.8407
   29MOL   C218 6994   6.040   6.295   0.669 -0.2976  0.4557  0.3356
   29MOL   C219 6995   6.070   6.446   0.687  0.0173 -0.4743 -0.6606
   29MOL   C220 6996   6.109   6.507   0.546  0.2157  0.3857 -0.7132
   29MOL   O221 6997   6.195   6.594   0.544 -0.1700  0.6629  0.1647
   29MOL   O222 6998   6.045   6.458   0.444  0.2770  0.3869  0.1612
   29MOL   C223 6999   6.093   6.505   0.313 -0.2675 -0.4066 -0.0838
   29MOL   H224 7000   6.108   6.252   0.595 -1.9333  0.1051 -0.9950
   29MOL   H225 7001   5.947   6.291   0.613  0.0760  2.8138 -0.5230
   29MOL   H226 7002   6.159   6.455   0.749 -0.2282  1.6223 -0.5715
   29MOL   H227 7003   6.201   6.490   0.309 -0.3080 -0.9373  0.6511
   29MOL   H228 7004   6.071   6.610   0.293  0.2559 -0.8752 -3.4805
   29MOL   H229 7005   6.039   6.447   0.238 -0.3539  0.4080 -0.6529
   29MOL   C230 7006   5.946   6.518   0.754  0.2456  0.1651 -0.0641
   29MOL   C231 7007   5.840   6.556   0.647  0.1712  0.1240 -0.1161
   29MOL   C232 7008   5.714   6.603   0.720  0.0599  0.1118  0.0712
   29MOL   O233 7009   5.695   6.719   0.739 -0.1424 -0.1519  0.0928
   29MOL   O234 7010   5.624   6.502   0.736 -0.2217 -0.3027 -0.0676
   29MOL   C235 7011   5.498   6.531   0.804 -0.0017  0.9935 -0.7201
   29MOL   H236 7012   5.899   6.466   0.838  0.7195  1.6142  1.1110
   29MOL   H237 7013   5.981   6.611   0.797  1.4068  0.2690 -1.1925
   29MOL   H238 7014   5.803   6.471   0.590  1.1882 -0.7244  0.4817
   29MOL   H239 7015   5.522   6.570   0.903 -0.1304  1.3887 -0.8430
   29MOL   H240 7016   5.439   6.439   0.809 -0.7641  1.2975 -3.3787
   29MOL   H241 7017   5.437   6.605   0.753 -0.0019  1.3744 -0.1768
   29MOL   H242 7018   5.880   6.635   0.584  0.5365  1.6552  1.9564
   30MOL     C1 7019   4.866   3.889   4.907  0.7568  0.2642  0.9426
   30MOL     C2 7020   4.880   4.015   4.998 -0.4713 -1.5379 -0.0897
   30MOL     C3 7021   4.980   4.114   4.946 -0.2786  0.4636  0.1933
   30MOL     O4 7022   4.948   4.197   4.858 -0.3906  0.0315  0.2086
   30MOL     O5 7023   5.101   4.091   4.991  0.4394  0.9884  0.5166
   30MOL     C6 7024   5.207   4.163   4.930  0.1915  1.1546 -0.9061
   30MOL     H7 7025   4.812   3.813   4.963  0.4276  0.7813  1.3257
   30MOL     H8 7026   4.958   3.836   4.880  0.0629 -0.9050  0.8494
   30MOL     H9 7027   4.910   3.981   5.098 -1.5163  1.9794  1.5034
   30MOL    H10 7028   5.223   4.264   4.967 -2.4123  0.8306  1.2341
   30MOL    H11 7029   5.196   4.176   4.822  0.7669 -0.0086 -1.1155
   30MOL    H12 7030   5.287   4.101   4.970 -1.4828 -0.2871  0.2780
   30MOL    H13 7031   4.809   3.917   4.819 -0.4108 -3.1649  0.5268
   30MOL    C14 7032   4.743   4.083   5.010  0.1045  0.4875 -0.1706
   30MOL    C15 7033   4.715   4.168   5.137  0.6018 -0.6543 -0.3560
   30MOL    C16 7034   4.611   4.270   5.101 -0.2044  0.2186  1.0270
   30MOL    O17 7035   4.646   4.388   5.080  0.0590 -0.1246  0.7360
   30MOL    O18 7036   4.490   4.216   5.085 -0.0580  0.7118  0.1953
   30MOL    C19 7037   4.381   4.312   5.062  0.6033  0.1778  0.4792
   30MOL    H20 7038   4.726   4.131   4.913 -0.9914  2.3333  0.9200
   30MOL    H21 7039   4.668   4.005   5.016 -1.1895  1.6087 -1.4850
   30MOL    H22 7040   4.810   4.222   5.146 -0.4434  0.7992  2.7128
   30MOL    H23 7041   4.413   4.394   4.997 -0.9006 -0.0866 -0.6213
   30MOL    H24 7042   4.346   4.360   5.153 -0.1832 -1.8090  1.2491
   30MOL    H25 7043   4.290   4.271   5.018 -0.3073  1.1643  1.4293
   30MOL    C26 7044   4.692   4.083   5.266 -0.8192 -0.0388 -0.3414
   30MOL    C27 7045   4.695   4.166   5.397 -0.3628  0.7303 -0.2433
   30MOL    C28 7046   4.559   4.174   5.463 -0.0769  0.6306  0.0742
   30MOL    O29 7047   4.493   4.075   5.495  0.3469 -0.5372  0.1354
   30MOL    O30 7048   4.518   4.297   5.479 -0.5789 -0.9003 -0.3664
   30MOL    C31 7049   4.403   4.322   5.555  0.8045 -0.4251 -0.4147
   30MOL    H32 7050   4.596   4.032   5.258 -1.4409  1.0327  0.3169
   30MOL    H33 7051   4.762   4.001   5.282 -0.4767  0.0575 -1.3178
   30MOL    H34 7052   4.718   4.266   5.360 -1.6893  1.1655  0.0464
   30MOL    H35 7053   4.336   4.394   5.508  0.1402 -1.5848 -1.2841
   30MOL    H36 7054   4.435   4.358   5.653 -0.1920  0.5147 -0.4236
   30MOL    H37 7055   4.343   4.232   5.571  0.6646  0.1090  2.3694
   30MOL    C38 7056   4.799   4.127   5.506 -0.0586  0.2713  0.4769
   30MOL    C39 7057   4.946   4.142   5.465  0.5169  0.1598 -0.4651
   30MOL    C40 7058   4.971   4.283   5.410  0.0763 -0.4735  0.6907
   30MOL    O41 7059   4.974   4.387   5.481  0.4506  0.2682 -0.3702
   30MOL    O42 7060   4.980   4.282   5.275 -0.2920 -0.6427  0.0107
   30MOL    C43 7061   5.000   4.406   5.199  0.3027  0.1718 -0.3348
   30MOL    H44 7062   4.773   4.187   5.593  0.4956 -0.9742  1.5178
   30MOL    H45 7063   4.795   4.019   5.524 -0.7035 -0.2515 -2.4644
   30MOL    H46 7064   4.962   4.080   5.377 -0.0948 -0.5744 -0.0685
   30MOL    H47 7065   4.937   4.487   5.237  1.1710  0.4103  0.6144
   30MOL    H48 7066   4.958   4.389   5.100 -2.3257  1.1867  0.5650
   30MOL    H49 7067   5.102   4.444   5.196  0.3625  0.0490  0.0979
   30MOL    C50 7068   5.029   4.105   5.593  0.9522 -0.1662 -0.6479
   30MOL    C51 7069   5.176   4.059   5.583  0.0315 -0.0127  0.2510
   30MOL    C52 7070   5.192   3.920   5.524  0.8001  0.6671  0.5016
   30MOL    O53 7071   5.152   3.890   5.410  0.0673  0.1777 -0.6761
   30MOL    O54 7072   5.250   3.843   5.607 -0.5039  0.5918 -0.1926
   30MOL    C55 7073   5.260   3.707   5.572  0.4137 -0.0176 -0.2855
   30MOL    H56 7074   5.024   4.185   5.667 -1.4832 -0.7579 -0.1389
   30MOL    H57 7075   4.979   4.024   5.646  2.7521 -1.4784 -0.8891
   30MOL    H58 7076   5.209   4.053   5.687  1.1774  0.0086 -0.1045
   30MOL    H59 7077   5.292   3.650   5.659  2.1651  1.0192 -0.2249
   30MOL    H60 7078   5.328   3.689   5.490 -0.0610 -1.1720 -0.4359
   30MOL    H61 7079   5.166   3.669   5.531 -1.1157  0.3776  2.6724
   30MOL    C62 7080   5.272   4.151   5.519  0.3086 -0.2484 -0.6139
   30MOL    C63 7081   5.418   4.108   5.539 -0.1166 -0.6368 -0.3132
   30MOL    C64 7082   5.495   4.073   5.412  0.3363  0.0734  0.1330
   30MOL    O65 7083   5.530   3.959   5.397 -0.2373 -0.7198 -0.3923
   30MOL    O66 7084   5.520   4.177   5.333  0.0201 -0.2235 -0.1953
   30MOL    C67 7085   5.590   4.165   5.212 -0.0769 -0.4595  0.5068
   30MOL    H68 7086   5.266   4.169   5.411  3.1614  2.5462 -0.3829
   30MOL    H69 7087   5.258   4.252   5.557 -1.1693 -1.5472  2.4836
   30MOL    H70 7088   5.428   4.015   5.594 -0.3706  0.8128  2.2800
   30MOL    H71 7089   5.694   4.134   5.220  0.0926 -0.3530 -1.1316
   30MOL    H72 7090   5.594   4.266   5.172 -1.6807  0.0974  1.6599
   30MOL    H73 7091   5.548   4.098   5.137  0.1126 -1.1418  1.0080
   30MOL    C74 7092   5.507   4.197   5.629 -0.1062  0.5053  0.3567
   30MOL    C75 7093   5.463   4.224   5.776  0.3422  0.6014  0.6590
   30MOL    C76 7094   5.435   4.094   5.853 -0.2505  0.6069  0.7997
   30MOL    O77 7095   5.319   4.076   5.882 -0.4341 -0.4925 -0.8144
   30MOL    O78 7096   5.543   4.010   5.871  0.3689  0.3744 -0.0811
   30MOL    C79 7097   5.522   3.884   5.931 -0.5477  0.3540  0.3683
   30MOL    H80 7098   5.591   4.132   5.655 -0.1276  0.9277  1.4826
   30MOL    H81 7099   5.541   4.284   5.573  1.7628  0.6281  1.6300
   30MOL    H82 7100   5.368   4.277   5.766 -0.0510 -0.3007 -0.5257
   30MOL    H83 7101   5.604   3.838   5.986 -0.0052 -1.9533 -2.2632
   30MOL    H84 7102   5.511   3.817   5.846  1.2824 -0.8686  1.0711
   30MOL    H85 7103   5.426   3.870   5.978 -0.8185  0.2320 -0.2126
   30MOL    C86 7104   5.570   4.314   5.843 -0.2016 -0.9171 -0.1428
   30MOL    C87 7105   5.511   4.438   5.921  0.5479  0.1510 -0.5688
   30MOL    C88 7106   5.428   4.396   6.043 -0.0590 -0.2988  0.7221
   30MOL    O89 7107   5.303   4.412   6.037  1.0608  0.7192  0.1907
   30MOL    O90 7108   5.503   4.353   6.150 -0.1971 -0.1581 -0.5776
   30MOL    C91 7109   5.432   4.335   6.271  0.1604  0.0674  0.3671
   30MOL    H92 7110   5.622   4.254   5.917  1.8343  0.4376 -0.4315
   30MOL    H93 7111   5.647   4.339   5.770 -0.0820 -0.6164  0.0806
   30MOL    H94 7112   5.440   4.487   5.855 -0.7635  1.6471  1.8961
   30MOL    H95 7113   5.425   4.227   6.285 -0.0874  0.3455  2.7186
   30MOL    H96 7114   5.327   4.367   6.268 -0.0511 -0.7789 -1.5449
   30MOL    H97 7115   5.486   4.366   6.360 -1.4890  3.4582  0.2795
   30MOL    C98 7116   5.632   4.533   5.959 -0.6622  0.5801 -0.3426
   30MOL    C99 7117   5.598   4.684   5.969 -0.6484  0.0339  0.1663
   30MOL   C100 7118   5.697   4.772   6.046 -0.1421 -0.4620  0.1922
   30MOL   O101 7119   5.656   4.856   6.124  0.3371 -0.6562 -0.0570
   30MOL   O102 7120   5.823   4.759   6.011 -0.0309 -0.0168  0.5000
   30MOL   C103 7121   5.919   4.825   6.093  0.8244 -0.0072 -0.2929
   30MOL   H104 7122   5.673   4.514   6.058 -0.2369 -0.3464 -0.6896
   30MOL   H105 7123   5.714   4.514   5.889 -0.5550 -0.1710 -0.0229
   30MOL   H106 7124   5.500   4.697   6.017 -0.9596  0.0735 -0.4789
   30MOL   H107 7125   6.014   4.775   6.074  0.8796 -0.1972  0.4749
   30MOL   H108 7126   5.906   4.836   6.200  0.9846  1.3893 -0.4093
   30MOL   H109 7127   5.940   4.927   6.062 -1.3781  1.2134  2.0698
   30MOL   C110 7128   5.588   4.749   5.822  0.5759 -0.3196 -0.0111
   30MOL   C111 7129   5.447   4.803   5.792  0.0206  0.3038  0.1568
   30MOL   C112 7130   5.430   4.953   5.844  0.1365  0.6578  0.8974
   30MOL   O113 7131   5.415   5.048   5.770  0.0566 -0.1321 -0.1432
   30MOL   O114 7132   5.403   4.950   5.975  0.8586  0.2627 -0.9269
   30MOL   C115 7133   5.360   5.073   6.026  0.8610 -0.2595 -0.1145
   30MOL   H116 7134   5.669   4.820   5.804  1.2144 -0.0278  3.4961
   30MOL   H117 7135   5.609   4.676   5.744  0.7067 -0.5638  0.2517
   30MOL   H118 7136   5.372   4.740   5.839  1.7510 -0.4179  2.0441
   30MOL   H119 7137   5.264   5.087   5.977  1.3935 -1.8530 -1.6279
   30MOL   H120 7138   5.435   5.150   6.007 -0.4079  0.9447 -0.3684
   30MOL   H121 7139   5.336   5.062   6.132 -0.4901  0.4721 -0.3317
   30MOL   C122 7140   5.431   4.806   5.634 -0.3249  0.3642  0.0418
   30MOL   C123 7141   5.382   4.676   5.563  0.2336 -0.2247  0.2712
   30MOL   C124 7142   5.244   4.641   5.614 -0.0766  1.1134  0.0404
   30MOL   O125 7143   5.148   4.700   5.568  0.2816 -0.1914 -0.2962
   30MOL   O126 7144   5.247   4.547   5.712 -0.7298 -0.0007 -0.5474
   30MOL   C127 7145   5.131   4.501   5.777 -0.4430  0.7643  0.4511
   30MOL   H128 7146   5.362   4.888   5.610 -0.2345  0.3606 -0.2373
   30MOL   H129 7147   5.532   4.826   5.598 -0.4552 -0.1416 -0.6147
   30MOL   H130 7148   5.450   4.596   5.595  0.0725 -1.0596 -1.4214
   30MOL   H131 7149   5.064   4.465   5.699 -0.1703  0.3047  0.4264
   30MOL   H132 7150   5.081   4.576   5.838 -0.8843  1.5331 -0.8595
   30MOL   H133 7151   5.156   4.423   5.850  0.7106 -0.9060 -1.6856
   30MOL   C134 7152   5.391   4.686   5.408  0.5571 -0.4686  0.1484
   30MOL   C135 7153   5.461   4.571   5.339 -0.1846 -0.8055 -0.1733
   30MOL   C136 7154   5.375   4.508   5.224  0.8483  0.1784  0.2360
   30MOL   O137 7155   5.336   4.390   5.233  0.4471  0.2196  0.3095
   30MOL   O138 7156   5.354   4.596   5.122  0.3802 -0.0335  0.1967
   30MOL   C139 7157   5.277   4.551   5.013  0.5696  0.1081  0.3533
   30MOL   H140 7158   5.290   4.702   5.372  0.4809 -0.4660  0.3648
   30MOL   H141 7159   5.450   4.776   5.388  1.3742 -0.6366  1.7063
   30MOL   H142 7160   5.496   4.493   5.406 -0.4060 -1.4886 -0.8477
   30MOL   H143 7161   5.305   4.458   4.964 -1.5315 -0.0321 -0.6510
   30MOL   H144 7162   5.270   4.633   4.941  0.9452 -0.7374 -0.6499
   30MOL   H145 7163   5.173   4.548   5.045  0.5220 -1.4041  0.0658
   30MOL   C146 7164   5.597   4.623   5.282 -0.2172 -0.2786 -0.1978
   30MOL   C147 7165   5.711   4.656   5.380 -0.3395  0.1325 -0.8125
   30MOL   C148 7166   5.757   4.526   5.448  0.6396 -0.5740 -0.5770
   30MOL   O149 7167   5.736   4.508   5.565 -0.5080 -0.7336 -0.1185
   30MOL   O150 7168   5.818   4.438   5.366  0.1963  0.4049 -0.2565
   30MOL   C151 7169   5.875   4.319   5.430 -0.7525 -1.0182  0.1849
   30MOL   H152 7170   5.639   4.559   5.204 -1.3856 -0.4929 -0.6592
   30MOL   H153 7171   5.581   4.714   5.225  0.4637  0.3712  0.6331
   30MOL   H154 7172   5.657   4.710   5.458 -1.2264 -2.5798  0.5072
   30MOL   H155 7173   5.982   4.319   5.412 -0.7982  1.0115 -0.1976
   30MOL   H156 7174   5.839   4.234   5.372 -0.5605  0.4436 -2.1379
   30MOL   H157 7175   5.859   4.311   5.538 -2.8268 -0.5393 -0.0615
   30MOL   C158 7176   5.832   4.736   5.322 -0.1557 -0.4616  0.3837
   30MOL   C159 7177   5.802   4.880   5.300 -0.3016  0.5579  0.3291
   30MOL   C160 7178   5.754   4.956   5.423 -0.2623 -0.5955 -0.0273
   30MOL   O161 7179   5.777   4.912   5.537 -0.1734 -0.4961  0.1870
   30MOL   O162 7180   5.693   5.074   5.399  0.5971  0.1550 -0.5747
   30MOL   C163 7181   5.646   5.164   5.497 -0.1991 -0.1427  0.0770
   30MOL   H164 7182   5.918   4.715   5.386  2.2590 -2.5000 -3.2699
   30MOL   H165 7183   5.862   4.682   5.232 -0.3274 -0.1837  0.1604
   30MOL   H166 7184   5.730   4.896   5.220 -0.0066  0.7846  0.1019
   30MOL   H167 7185   5.722   5.182   5.574  0.9790  0.7011 -1.2629
   30MOL   H168 7186   5.551   5.145   5.546 -1.0801  1.8991 -0.8014
   30MOL   H169 7187   5.629   5.257   5.444  0.3852 -1.3630 -2.3090
   30MOL   C170 7188   5.926   4.954   5.246  0.9272  0.3782 -0.1795
   30MOL   C171 7189   5.991   4.917   5.114 -0.8154 -0.3484 -0.2234
   30MOL   C172 7190   5.892   4.905   5.003 -0.0063 -0.1137  0.7727
   30MOL   O173 7191   5.876   4.798   4.938  0.2648  0.3387  0.4257
   30MOL   O174 7192   5.825   5.021   4.980  0.0559  0.0460 -0.1504
   30MOL   C175 7193   5.728   5.035   4.878  0.3048 -0.2371 -0.8512
   30MOL   H176 7194   5.885   5.054   5.234  1.1863  0.9343  3.0646
   30MOL   H177 7195   6.003   4.967   5.322  0.8190 -3.5102  0.7073
   30MOL   H178 7196   6.040   4.820   5.125  1.9395  0.9026 -1.2435
   30MOL   H179 7197   5.751   4.984   4.785  0.8701  0.1357 -0.9221
   30MOL   H180 7198   5.714   5.144   4.875 -1.6413 -0.4427 -0.1757
   30MOL   H181 7199   5.632   4.992   4.905  1.0799 -0.8209  1.0263
   30MOL   C182 7200   6.105   5.020   5.075 -0.6683  0.4681  1.2366
   30MOL   C183 7201   6.230   5.020   5.168 -0.5034  0.7397 -0.0325
   30MOL   C184 7202   6.343   4.921   5.122  0.6716 -0.3456  0.2400
   30MOL   O185 7203   6.452   4.961   5.086  0.2532 -0.4845 -0.3136
   30MOL   O186 7204   6.302   4.797   5.106 -0.0391 -0.5730  0.2633
   30MOL   C187 7205   6.372   4.708   5.021 -0.2856 -0.4896 -0.5291
   30MOL   H188 7206   6.131   4.993   4.973 -2.3551  2.0947  0.3555
   30MOL   H189 7207   6.066   5.122   5.074 -0.2211  0.6413  1.1284
   30MOL   H190 7208   6.201   4.985   5.268 -1.5869  0.9367 -0.2739
   30MOL   H191 7209   6.422   4.772   4.948  2.0861 -0.7926  0.7727
   30MOL   H192 7210   6.315   4.633   4.966  0.1553 -0.9287 -0.3909
   30MOL   H193 7211   6.442   4.644   5.075 -0.6646  2.2619  3.4353
   30MOL   C194 7212   6.291   5.162   5.181  0.2752 -0.3754 -0.1054
   30MOL   C195 7213   6.208   5.278   5.248  0.2282 -0.3507 -0.1761
   30MOL   C196 7214   6.150   5.223   5.382  0.1058  0.2402  0.2842
   30MOL   O197 7215   6.030   5.238   5.407  0.1565  0.2350 -0.3546
   30MOL   O198 7216   6.241   5.151   5.455  0.6138  0.1534  0.3104
   30MOL   C199 7217   6.197   5.077   5.560 -0.4166  0.0478  0.6752
   30MOL   H200 7218   6.383   5.154   5.239 -0.2004 -2.2773  0.4229
   30MOL   H201 7219   6.321   5.204   5.085  2.0982  0.0750  0.6455
   30MOL   H202 7220   6.133   5.306   5.174  0.9052 -0.3904 -0.8821
   30MOL   H203 7221   6.135   5.143   5.620 -1.5177  1.5220 -2.0086
   30MOL   H204 7222   6.276   5.046   5.630  0.5310 -0.4633 -0.5988
   30MOL   H205 7223   6.153   4.986   5.520 -2.1658  0.8075  0.8399
   30MOL   C206 7224   6.303   5.401   5.269  0.2674 -0.4300  0.4518
   30MOL   C207 7225   6.379   5.452   5.140 -0.1331 -0.7544 -0.3548
   30MOL   C208 7226   6.280   5.504   5.034 -0.1345  0.7618 -0.1232
   30MOL   O209 7227   6.158   5.513   5.056 -0.2783  0.8307 -0.7460
   30MOL   O210 7228   6.344   5.524   4.915  0.4957  0.4648 -0.6507
   30MOL   C211 7229   6.277   5.584   4.806 -0.2291 -0.3190  0.3824
   30MOL   H212 7230   6.246   5.479   5.320 -0.2309 -1.6689  1.8118
   30MOL   H213 7231   6.383   5.368   5.336  2.9507 -0.4307 -2.6323
   30MOL   H214 7232   6.439   5.375   5.091 -0.9352  0.3791 -3.2113
   30MOL   H215 7233   6.357   5.631   4.749 -2.1109  2.7331  0.1761
   30MOL   H216 7234   6.215   5.670   4.831  0.6414  0.4776 -0.1559
   30MOL   H217 7235   6.216   5.513   4.750  1.1045 -1.1213 -0.1064
   30MOL   C218 7236   6.470   5.567   5.190  0.2765 -1.0420  0.1742
   30MOL   C219 7237   6.614   5.531   5.237 -0.5076  0.0943  0.1827
   30MOL   C220 7238   6.708   5.490   5.126  0.3548  0.2637  0.5387
   30MOL   O221 7239   6.755   5.380   5.114 -0.0329 -0.4068  0.0924
   30MOL   O222 7240   6.712   5.582   5.042 -0.2347  0.2577  0.2050
   30MOL   C223 7241   6.755   5.565   4.903  0.4307  0.9596 -0.2245
   30MOL   H224 7242   6.478   5.648   5.116 -0.2789  0.6549  1.9338
   30MOL   H225 7243   6.422   5.617   5.273  2.0964  0.4901  0.3541
   30MOL   H226 7244   6.609   5.442   5.299 -0.5255  0.6724  1.0288
   30MOL   H227 7245   6.863   5.575   4.891  0.6121 -0.8065 -0.2105
   30MOL   H228 7246   6.700   5.635   4.840 -0.0928  1.5058  0.8446
   30MOL   H229 7247   6.721   5.468   4.867  0.6032  1.3336 -1.4533
   30MOL   C230 7248   6.671   5.641   5.342 -0.5340 -0.2560  0.7422
   30MOL   C231 7249   6.804   5.610   5.395  0.6276  0.1155 -0.0771
   30MOL   C232 7250   6.840   5.666   5.535 -0.5801  0.1375  0.2724
   30MOL   O233 7251   6.840   5.581   5.626 -0.4562  0.3976  0.2424
   30MOL   O234 7252   6.869   5.793   5.532 -0.1151 -0.2545  0.6130
   30MOL   C235 7253   6.885   5.864   5.649 -0.1474 -0.1480 -0.7222
   30MOL   H236 7254   6.692   5.731   5.284  0.8097 -0.5925  0.6890
   30MOL   H237 7255   6.597   5.651   5.421 -0.6697 -2.2341  0.8785
   30MOL   H238 7256   6.878   5.644   5.323 -0.8808  1.0133 -1.2350
   30MOL   H239 7257   6.990   5.889   5.666  0.0540 -0.6291 -1.2751
   30MOL   H240 7258   6.850   5.807   5.735  0.3609  1.6278  0.6965
   30MOL   H241 7259   6.830   5.958   5.654  1.8577  1.0160  0.4615
   30MOL   H242 7260   6.823   5.504   5.405  1.4384  0.3538  0.9526
   31MOL     C1 7261   0.516   4.848   4.773 -0.0809 -0.0624  0.0309
   31MOL     C2 7262   0.415   4.757   4.849 -0.1194 -0.2918  0.6494
   31MOL     C3 7263   0.433   4.606   4.812 -0.8644 -0.5833 -0.6915
   31MOL     O4 7264   0.461   4.521   4.897 -0.4905 -0.6868 -0.1583
   31MOL     O5 7265   0.426   4.586   4.685 -0.0251 -0.0678 -0.2015
   31MOL     C6 7266   0.433   4.455   4.624  0.5944 -0.1914  0.1564
   31MOL     H7 7267   0.526   4.813   4.670 -0.8012 -0.9286  0.2488
   31MOL     H8 7268   0.619   4.856   4.809  0.6939 -0.6706 -1.9599
   31MOL     H9 7269   0.314   4.782   4.815  0.2948  0.4302 -0.0771
   31MOL    H10 7270   0.358   4.390   4.669 -0.5921  1.5761  0.7815
   31MOL    H11 7271   0.532   4.410   4.639 -0.6588 -2.6195  1.3912
   31MOL    H12 7272   0.413   4.456   4.517  0.2760 -0.2914  0.2130
   31MOL    H13 7273   0.485   4.952   4.776 -0.7195 -0.2962  4.4936
   31MOL    C14 7274   0.405   4.785   4.995 -0.6877  0.7290 -0.2472
   31MOL    C15 7275   0.272   4.732   5.042 -0.5221 -0.2355  0.1267
   31MOL    C16 7276   0.291   4.650   5.172 -0.4218 -0.1503 -0.4897
   31MOL    O17 7277   0.394   4.642   5.236 -0.0931  0.6053 -0.5183
   31MOL    O18 7278   0.175   4.587   5.211  0.2614 -0.1370  0.0718
   31MOL    C19 7279   0.169   4.489   5.313 -0.3105 -0.4554 -0.6184
   31MOL    H20 7280   0.491   4.751   5.053 -1.0953  0.4431  0.1858
   31MOL    H21 7281   0.405   4.890   5.024  2.0307  0.2751  1.6319
   31MOL    H22 7282   0.238   4.649   4.981 -4.3763  1.4224 -0.1058
   31MOL    H23 7283   0.148   4.388   5.278 -0.5124 -0.1451 -1.4119
   31MOL    H24 7284   0.103   4.511   5.397 -0.0321  0.1683 -0.5574
   31MOL    H25 7285   0.268   4.471   5.355 -0.3463  0.4573 -0.1418
   31MOL    C26 7286   0.166   4.845   5.053  0.3527 -0.5234 -0.1217
   31MOL    C27 7287   0.144   4.915   5.191 -0.2639  0.0221 -0.2229
   31MOL    C28 7288   0.262   5.011   5.233  0.1324 -0.5467 -0.1291
   31MOL    O29 7289   0.329   4.995   5.340  0.2957  0.3636 -0.0005
   31MOL    O30 7290   0.272   5.112   5.146  0.1356  0.1213  0.0060
   31MOL    C31 7291   0.378   5.204   5.174 -0.0206 -0.0575  0.6957
   31MOL    H32 7292   0.204   4.923   4.987 -0.1985  0.7064  0.9969
   31MOL    H33 7293   0.077   4.794   5.016 -0.6890 -0.3618  2.0934
   31MOL    H34 7294   0.150   4.839   5.268  0.1695 -0.8745 -1.1293
   31MOL    H35 7295   0.421   5.198   5.274 -2.3685 -1.4764  1.6701
   31MOL    H36 7296   0.366   5.308   5.146  0.9202 -0.1173  0.0713
   31MOL    H37 7297   0.455   5.168   5.106 -0.5694  3.2552 -1.7515
   31MOL    C38 7298   0.019   5.000   5.205  0.2212  0.2223  0.1384
   31MOL    C39 7299   7.909   5.061   5.341 -0.4819 -0.2305  0.7623
   31MOL    C40 7300   7.780   5.134   5.320  0.6810  0.1029 -0.4048
   31MOL    O41 7301   7.775   5.256   5.334  0.0935  0.3578 -0.8252
   31MOL    O42 7302   7.676   5.066   5.281 -0.1712  0.3233 -0.0220
   31MOL    C43 7303   7.543   5.113   5.310  0.5042 -0.6384 -0.0298
   31MOL    H44 7304   0.027   5.076   5.127  0.1487 -0.2595 -0.3436
   31MOL    H45 7305   7.867   4.947   5.161  0.4873  0.1824 -0.3335
   31MOL    H46 7306   0.052   5.138   5.353 -0.1345 -0.1931 -1.4232
   31MOL    H47 7307   7.497   5.118   5.212 -0.8785 -2.3357  0.5073
   31MOL    H48 7308   7.543   5.211   5.358 -2.1855 -0.4738 -0.2954
   31MOL    H49 7309   7.500   5.032   5.370 -2.1908  0.3969 -0.5156
   31MOL    C50 7310   7.915   4.954   5.455  0.0746 -0.4715 -0.2805
   31MOL    C51 7311   7.905   5.005   5.605 -0.3601 -0.5329  0.1010
   31MOL    C52 7312   0.100   5.079   5.665 -0.0918  0.8340 -0.1086
   31MOL    O53 7313   0.093   5.182   5.733 -0.2930  1.1217 -0.1903
   31MOL    O54 7314   0.204   5.005   5.656  0.5763  0.2817  0.0613
   31MOL    C55 7315   0.331   5.050   5.695  0.0427 -0.1813  0.0645
   31MOL    H56 7316   7.833   4.882   5.446  0.3117 -0.9094  0.9381
   31MOL    H57 7317   0.079   4.905   5.455  1.1202  1.5446  0.8634
   31MOL    H58 7318   7.905   4.917   5.670 -0.7010 -0.7592 -0.2027
   31MOL    H59 7319   0.405   5.015   5.623 -1.4761 -0.0863 -1.5882
   31MOL    H60 7320   0.361   5.023   5.796  0.8977  1.6675  0.3088
   31MOL    H61 7321   0.333   5.158   5.682  0.8056 -0.1600  0.3813
   31MOL    C62 7322   7.770   5.064   5.647 -0.2287  0.6211  0.6608
   31MOL    C63 7323   7.731   5.060   5.797 -0.4715  0.0209 -0.6254
   31MOL    C64 7324   7.616   5.153   5.839 -0.0282 -0.1608  0.1709
   31MOL    O65 7325   7.527   5.121   5.912  0.1965 -0.1509 -0.3900
   31MOL    O66 7326   7.637   5.283   5.801  0.0926  0.1219 -0.4938
   31MOL    C67 7327   7.533   5.376   5.815 -0.2718  0.4604  0.1374
   31MOL    H68 7328   7.756   5.165   5.609 -1.1988  0.6734  1.1431
   31MOL    H69 7329   7.687   5.012   5.601  1.2407 -1.4876  0.2988
   31MOL    H70 7330   7.822   5.088   5.851  0.6543 -0.0399 -2.4418
   31MOL    H71 7331   7.564   5.471   5.772 -0.9505  1.0891  1.0286
   31MOL    H72 7332   7.507   5.409   5.915 -0.0787 -1.9545  1.0250
   31MOL    H73 7333   7.445   5.343   5.759 -1.5858  3.5619  0.2802
   31MOL    C74 7334   7.710   4.906   5.850  0.7612 -0.0384 -0.2203
   31MOL    C75 7335   7.597   4.814   5.787  0.4149 -0.2567 -0.4826
   31MOL    C76 7336   7.648   4.748   5.650  0.4253 -0.3359 -0.2615
   31MOL    O77 7337   7.605   4.792   5.542 -0.2925  0.5809  0.4530
   31MOL    O78 7338   7.738   4.647   5.671  0.4863 -0.6892  0.1092
   31MOL    C79 7339   7.790   4.586   5.557 -0.2845 -0.0687  0.6485
   31MOL    H80 7340   7.806   4.856   5.841  2.4563  2.5186  2.5135
   31MOL    H81 7341   7.692   4.917   5.957 -1.4396 -0.9206 -0.4717
   31MOL    H82 7342   7.504   4.864   5.762  1.2248  1.2029 -0.6300
   31MOL    H83 7343   7.719   4.508   5.528  0.2834  0.6477 -2.8392
   31MOL    H84 7344   7.886   4.538   5.578 -0.7548 -1.1254  0.4331
   31MOL    H85 7345   7.801   4.645   5.466  2.4273 -1.2331  0.1739
   31MOL    C86 7346   7.562   4.700   5.892  0.6382 -0.2802 -0.0449
   31MOL    C87 7347   7.455   4.732   5.994 -0.4999  0.7700 -0.5017
   31MOL    C88 7348   7.323   4.771   5.930 -0.4091 -0.9357 -0.0148
   31MOL    O89 7349   7.249   4.854   5.985  0.7827  0.1342  0.0095
   31MOL    O90 7350   7.286   4.696   5.819 -0.5142  0.1367 -0.0964
   31MOL    C91 7351   7.157   4.714   5.766 -0.5141 -0.1257  0.4630
   31MOL    H92 7352   7.532   4.608   5.840  0.2925 -0.0582 -0.2388
   31MOL    H93 7353   7.659   4.675   5.936 -0.2199 -1.5234  1.1776
   31MOL    H94 7354   7.488   4.821   6.048  2.4557 -0.2169 -0.6094
   31MOL    H95 7355   7.152   4.815   5.724 -1.6499 -0.6417 -0.6887
   31MOL    H96 7356   7.073   4.694   5.833  0.4202  1.7727  2.2661
   31MOL    H97 7357   7.146   4.647   5.681  0.2259 -0.8596  0.9391
   31MOL    C98 7358   7.430   4.620   6.099 -0.0120  0.0567 -0.0823
   31MOL    C99 7359   7.386   4.672   6.233  0.2147  0.6378  0.0359
   31MOL   C100 7360   7.239   4.625   6.271 -0.4139 -0.4918 -0.0149
   31MOL   O101 7361   7.213   4.597   6.390  0.2738  0.7184 -0.0565
   31MOL   O102 7362   7.140   4.632   6.173  0.2819  0.7291 -0.1295
   31MOL   C103 7363   7.010   4.572   6.188  0.3623 -1.0556 -0.8207
   31MOL   H104 7364   7.363   4.542   6.062 -1.5054  1.1541  0.2431
   31MOL   H105 7365   7.524   4.565   6.101 -0.1150 -0.3293 -2.9431
   31MOL   H106 7366   7.391   4.781   6.233 -1.9231  0.7619 -0.5688
   31MOL   H107 7367   6.947   4.590   6.101  0.4556  0.9294 -0.5197
   31MOL   H108 7368   6.960   4.625   6.270 -0.6309  1.6420 -3.0911
   31MOL   H109 7369   7.017   4.464   6.191 -1.1489 -1.1398  0.9835
   31MOL   C110 7370   7.496   4.618   6.325 -0.0455  0.0999  0.4929
   31MOL   C111 7371   7.629   4.698   6.322  0.3561  0.2484  0.2860
   31MOL   C112 7372   7.614   4.840   6.387  0.6600  0.2574 -0.6567
   31MOL   O113 7373   7.648   4.944   6.330  0.1305 -0.0351  0.1508
   31MOL   O114 7374   7.568   4.846   6.512  0.4178  0.4258  0.2107
   31MOL   C115 7375   7.548   4.971   6.570 -0.5614  0.5203  0.1321
   31MOL   H116 7376   7.452   4.629   6.424 -0.2998  1.7658  0.1985
   31MOL   H117 7377   7.512   4.513   6.300  0.9047  0.3797 -0.1020
   31MOL   H118 7378   7.650   4.724   6.218  1.7247 -2.1848 -0.0790
   31MOL   H119 7379   7.502   4.952   6.666 -1.6826 -1.1541 -0.7213
   31MOL   H120 7380   7.469   5.027   6.521  0.4736  0.6024 -1.4934
   31MOL   H121 7381   7.644   5.020   6.589  0.9503 -1.5841 -1.8013
   31MOL   C122 7382   7.750   4.629   6.381  0.1887 -0.0994  0.2179
   31MOL   C123 7383   7.734   4.559   6.518  0.1882 -1.0374  0.0632
   31MOL   C124 7384   7.666   4.419   6.510 -0.1155  0.0146  0.7391
   31MOL   O125 7385   7.680   4.348   6.411  0.3198 -0.0115  0.2027
   31MOL   O126 7386   7.597   4.388   6.612  0.2330  0.0461 -0.4872
   31MOL   C127 7387   7.543   4.261   6.641  0.0112  0.4378  0.4561
   31MOL   H128 7388   7.794   4.552   6.318 -1.3770 -1.0243  0.2159
   31MOL   H129 7389   7.826   4.706   6.389 -0.8962  0.8691  1.3649
   31MOL   H130 7390   7.653   4.617   6.563 -0.5419 -2.0701  0.0811
   31MOL   H131 7391   7.455   4.282   6.702 -0.6024 -1.6054  0.3097
   31MOL   H132 7392   7.608   4.190   6.693  0.2166  0.5017  0.2891
   31MOL   H133 7393   7.511   4.212   6.549  0.9301  1.0209 -0.1936
   31MOL   C134 7394   7.857   4.545   6.612  0.0205  1.1455  0.0837
   31MOL   C135 7395   7.878   4.667   6.701  0.0969  0.5509 -0.3619
   31MOL   C136 7396   7.754   4.691   6.790 -0.8127 -0.6647  0.0838
   31MOL   O137 7397   7.702   4.802   6.783 -0.1565  0.3369 -0.2519
   31MOL   O138 7398   7.738   4.592   6.879  0.8592  0.2317 -0.0091
   31MOL   C139 7399   7.627   4.599   6.967  0.1689 -0.1685  0.2552
   31MOL   H140 7400   7.861   4.452   6.669 -1.5231  1.7236  1.1564
   31MOL   H141 7401   0.007   4.543   6.541  0.9397  1.0968  1.1393
   31MOL   H142 7402   7.875   4.746   6.626  1.5870 -0.3857 -1.4303
   31MOL   H143 7403   7.611   4.497   7.004 -1.7095 -0.3075 -0.8410
   31MOL   H144 7404   7.535   4.637   6.922 -0.7219 -2.0939  0.3746
   31MOL   H145 7405   7.654   4.670   7.045 -2.7719  0.3928  0.8349
   31MOL   C146 7406   0.085   4.683   6.773  0.0605  0.8352  0.3413
   31MOL   C147 7407   0.107   4.599   6.898 -0.8645  0.4781 -0.7586
   31MOL   C148 7408   0.242   4.532   6.892  0.6534  0.1829  0.1989
   31MOL   O149 7409   0.246   4.411   6.870 -0.5748 -0.2294  0.2817
   31MOL   O150 7410   0.342   4.611   6.932  0.1430 -0.2123  0.0964
   31MOL   C151 7411   0.478   4.563   6.930 -0.0497 -0.1594 -0.1715
   31MOL   H152 7412   0.168   4.674   6.704  1.3745 -0.3063  2.0246
   31MOL   H153 7413   0.083   4.785   6.812 -0.5667 -0.7098  4.6791
   31MOL   H154 7414   0.036   4.517   6.892  1.1771 -1.2456 -1.7934
   31MOL   H155 7415   0.489   4.483   7.003  1.3806  1.2075  1.1748
   31MOL   H156 7416   0.530   4.644   6.981 -0.9285  0.6441 -0.5352
   31MOL   H157 7417   0.529   4.536   6.837 -1.1591 -2.7154 -0.0903
   31MOL   C158 7418   0.074   4.665   7.029 -0.4493  0.0075  0.4081
   31MOL   C159 7419   0.014   4.575   7.145 -0.0427  0.2128 -0.2229
   31MOL   C160 7420   0.118   4.476   7.198 -0.4980 -0.2523 -0.0856
   31MOL   O161 7421   0.103   4.357   7.189 -0.1817  0.0407 -0.5151
   31MOL   O162 7422   0.230   4.540   7.252 -0.0056  0.4935  0.0227
   31MOL   C163 7423   0.338   4.472   7.298 -0.4456 -0.2073 -0.1490
   31MOL   H164 7424   0.162   4.721   7.060 -0.4897  0.1858  0.2001
   31MOL   H165 7425   7.931   4.742   7.011 -0.8625 -0.6442 -0.6480
   31MOL   H166 7426   7.872   4.511   7.098 -0.5334  1.1117 -0.6728
   31MOL   H167 7427   0.339   4.468   7.407  0.3318 -0.7832 -0.1755
   31MOL   H168 7428   0.429   4.529   7.278 -0.2739 -0.8446 -1.1679
   31MOL   H169 7429   0.350   4.372   7.257 -0.5330  0.5328 -2.0341
   31MOL   C170 7430   7.883   4.654   7.264  0.0146 -0.6469 -0.5689
   31MOL   C171 7431   7.803   4.567   7.360 -0.0465 -0.4228  0.1578
   31MOL   C172 7432   7.815   4.618   7.506 -0.5308  0.0565  0.2507
   31MOL   O173 7433   7.916   4.594   7.563  0.0596 -0.4591 -0.3728
   31MOL   O174 7434   7.712   4.687   7.554  0.4628 -0.2950 -0.5363
   31MOL   C175 7435   7.710   4.735   7.689 -0.0423  0.6578 -0.3011
   31MOL   H176 7436   0.033   4.693   7.323 -0.3505  0.7404 -0.9737
   31MOL   H177 7437   7.833   4.745   7.232  0.4555 -0.2742 -0.2016
   31MOL   H178 7438   7.853   4.471   7.371 -0.6296 -0.6072  1.2528
   31MOL   H179 7439   7.729   4.654   7.760  2.5980  1.8007  0.3483
   31MOL   H180 7440   7.624   4.796   7.716  0.5137  1.2688  0.1085
   31MOL   H181 7441   7.800   4.796   7.698 -0.0585  0.8311 -1.2914
   31MOL   C182 7442   7.647   4.557   7.323  0.3372  0.7393  0.3874
   31MOL   C183 7443   7.570   4.445   7.396 -0.2137 -0.1368  0.8899
   31MOL   C184 7444   7.420   4.475   7.412 -0.2625  0.5239 -0.1242
   31MOL   O185 7445   7.359   4.441   7.511  0.1822  0.3709  0.1247
   31MOL   O186 7446   7.364   4.538   7.315  0.0807  0.0495  0.4249
   31MOL   C187 7447   7.224   4.570   7.321 -0.2061  0.1679 -0.5653
   31MOL   H188 7448   7.596   4.652   7.334 -0.2702  0.6228 -1.2531
   31MOL   H189 7449   7.641   4.542   7.215 -0.9335  0.5162  0.4836
   31MOL   H190 7450   7.612   4.450   7.496  1.0014  0.9378  0.3391
   31MOL   H191 7451   7.197   4.602   7.421  1.6881 -0.3869  0.1485
   31MOL   H192 7452   7.160   4.489   7.287  1.2189 -0.4952 -1.7386
   31MOL   H193 7453   7.184   4.651   7.260 -0.1624  0.7679  0.1974
   31MOL   C194 7454   7.588   4.302   7.343  0.0874 -0.2325 -0.2134
   31MOL   C195 7455   7.727   4.236   7.358  0.0710 -0.1717 -0.2183
   31MOL   C196 7456   7.789   4.247   7.496  0.0845  0.3882  0.0712
   31MOL   O197 7457   7.723   4.239   7.598  0.0414  0.5977 -0.3751
   31MOL   O198 7458   7.922   4.260   7.494 -0.1289 -0.2631  0.0166
   31MOL   C199 7459   0.079   4.294   7.604 -0.1618 -0.0694 -1.1132
   31MOL   H200 7460   7.517   4.231   7.386  1.2180 -0.1054  1.9059
   31MOL   H201 7461   7.561   4.303   7.237 -0.6906  0.6295 -0.0145
   31MOL   H202 7462   7.800   4.285   7.295  0.7601  0.4445  1.0421
   31MOL   H203 7463   0.145   4.213   7.638  1.4480  2.0081  0.8701
   31MOL   H204 7464   0.026   4.326   7.694  3.5313  0.0918  1.1006
   31MOL   H205 7465   0.146   4.373   7.572 -0.5032  1.8364  2.6473
   31MOL   C206 7466   7.722   4.085   7.325  0.4317 -0.8978  0.2232
   31MOL   C207 7467   7.682   4.047   7.180 -0.3238 -0.3106 -0.4774
   31MOL   C208 7468   7.782   4.096   7.076 -1.2848  0.2197 -1.0745
   31MOL   O209 7469   7.890   4.035   7.064  0.3442  0.2766 -0.3186
   31MOL   O210 7470   7.742   4.201   7.012 -0.2071 -0.2863  0.0006
   31MOL   C211 7471   7.817   4.268   6.915 -0.2537  0.0346  0.5231
   31MOL   H212 7472   7.812   4.034   7.359 -0.2766 -2.4914 -0.2318
   31MOL   H213 7473   7.638   4.040   7.377  0.4285 -3.3574 -1.7790
   31MOL   H214 7474   7.584   4.093   7.162 -2.5705 -2.5726  4.7748
   31MOL   H215 7475   7.889   4.331   6.967  0.4225 -0.9355  0.7670
   31MOL   H216 7476   7.766   4.333   6.844 -0.5474 -0.1292  0.5830
   31MOL   H217 7477   7.871   4.195   6.855 -1.1170 -0.2244  0.0495
   31MOL   C218 7478   7.662   3.888   7.179  0.2610 -0.0387  0.0670
   31MOL   C219 7479   7.585   3.833   7.053  0.1932  0.1190 -0.0561
   31MOL   C220 7480   7.587   3.680   7.044  0.7787 -0.6681  0.4628
   31MOL   O221 7481   7.493   3.608   7.078 -0.1564 -0.3006  0.4621
   31MOL   O222 7482   7.699   3.634   6.977  0.3327  0.0589 -0.1355
   31MOL   C223 7483   7.714   3.498   6.941 -0.1529  0.9218  0.3450
   31MOL   H224 7484   7.762   3.843   7.185 -0.2262 -1.3134 -1.0120
   31MOL   H225 7485   7.605   3.859   7.267 -1.7344  0.8746 -0.9009
   31MOL   H226 7486   7.642   3.868   6.967 -1.3033 -0.2908 -1.2192
   31MOL   H227 7487   7.745   3.444   7.031  0.1928  1.5767  0.6169
   31MOL   H228 7488   7.788   3.492   6.862 -1.9598  0.3217 -1.3547
   31MOL   H229 7489   7.621   3.455   6.902  0.2310  0.6303 -0.2449
   31MOL   C230 7490   7.446   3.896   7.036  0.5890  0.2151  0.0459
   31MOL   C231 7491   7.441   4.000   6.920  0.1313 -0.5554  0.0432
   31MOL   C232 7492   7.347   4.112   6.963 -0.6312  0.5532 -0.5259
   31MOL   O233 7493   7.224   4.103   6.961 -0.5189 -0.1147 -0.1643
   31MOL   O234 7494   7.415   4.217   7.008 -0.0509  0.0407  0.1425
   31MOL   C235 7495   7.341   4.336   7.043 -0.2093 -0.3350 -0.5410
   31MOL   H236 7496   7.377   3.815   7.013  0.0571 -0.0608  2.4531
   31MOL   H237 7497   7.407   3.929   7.132  0.5166  0.3713 -0.0361
   31MOL   H238 7498   7.398   3.957   6.829  0.6841 -1.7638  0.3323
   31MOL   H239 7499   7.239   4.310   7.072 -0.0823 -0.6249 -0.3486
   31MOL   H240 7500   7.344   4.413   6.966 -2.3230 -0.2843 -0.6119
   31MOL   H241 7501   7.391   4.380   7.130  0.3376 -1.4003 -0.3014
   31MOL   H242 7502   7.540   4.044   6.903  1.0640 -0.8988  4.1527
   32MOL     C1 7503   5.637   4.707   2.499 -0.6048  0.5181  0.0987
   32MOL     C2 7504   5.547   4.722   2.616  0.1546 -0.3658  0.0654
   32MOL     C3 7505   5.405   4.674   2.590  0.0545  0.7321 -0.3310
   32MOL     O4 7506   5.387   4.594   2.494  0.4638  0.3290 -0.6471
   32MOL     O5 7507   5.312   4.719   2.671  0.1968 -0.4186  0.3051
   32MOL     C6 7508   5.180   4.663   2.649  0.3287  0.2845 -0.5573
   32MOL     H7 7509   5.714   4.631   2.514 -0.9725 -0.1663 -1.3603
   32MOL     H8 7510   5.690   4.801   2.485  1.3963 -0.2820  2.0233
   32MOL     H9 7511   5.540   4.829   2.629 -0.7053 -0.4994  0.6626
   32MOL    H10 7512   5.148   4.625   2.551 -2.7207 -1.3494  1.0064
   32MOL    H11 7513   5.105   4.736   2.682 -0.1520 -0.5993  0.3151
   32MOL    H12 7514   5.168   4.579   2.717  0.0983  0.9978  0.2821
   32MOL    H13 7515   5.588   4.675   2.407  0.1589 -0.6511  0.0762
   32MOL    C14 7516   5.612   4.660   2.744  0.5598 -0.3250  0.7844
   32MOL    C15 7517   5.694   4.771   2.826  0.3798  0.0040  0.6276
   32MOL    C16 7518   5.675   4.763   2.974 -0.0507 -0.1367 -0.3507
   32MOL    O17 7519   5.765   4.764   3.054  0.4739 -0.0833  0.4397
   32MOL    O18 7520   5.540   4.769   3.005  0.0154 -0.3507  0.3331
   32MOL    C19 7521   5.488   4.752   3.136 -0.1543 -0.3224 -0.1952
   32MOL    H20 7522   5.540   4.614   2.811 -0.5426  1.8530  1.1578
   32MOL    H21 7523   5.681   4.578   2.727  1.2205  0.1411  1.1749
   32MOL    H22 7524   5.651   4.867   2.796  0.9474  0.2525  0.6083
   32MOL    H23 7525   5.498   4.842   3.197  0.1774  1.7932 -3.2653
   32MOL    H24 7526   5.560   4.690   3.190  1.2466  0.6441 -0.9071
   32MOL    H25 7527   5.388   4.711   3.133  0.2880 -1.6637  2.1258
   32MOL    C26 7528   5.844   4.788   2.770  0.7471  0.2346 -0.1049
   32MOL    C27 7529   5.910   4.926   2.758  0.2527  0.3724  1.0068
   32MOL    C28 7530   5.918   4.989   2.896 -0.2149  0.7928  0.6851
   32MOL    O29 7531   5.844   5.083   2.933  0.1531 -0.5053  0.4196
   32MOL    O30 7532   6.006   4.927   2.979  0.0181  0.0424  0.0576
   32MOL    C31 7533   6.006   4.964   3.116 -0.4776  0.4913  0.5002
   32MOL    H32 7534   5.909   4.734   2.839  0.4913 -1.1263 -0.9193
   32MOL    H33 7535   5.849   4.758   2.666 -0.7124 -1.8425  0.3993
   32MOL    H34 7536   5.850   4.995   2.700  0.0644 -2.3155 -2.1441
   32MOL    H35 7537   6.075   5.049   3.114 -0.3924  0.4181  0.0995
   32MOL    H36 7538   6.043   4.873   3.160  1.0195 -0.0231 -1.7246
   32MOL    H37 7539   5.915   4.997   3.167 -1.2846 -0.9316  0.0036
   32MOL    C38 7540   6.051   4.918   2.690  0.1095  0.4919  0.1411
   32MOL    C39 7541   6.050   4.891   2.536 -0.0331 -0.4137  0.0249
   32MOL    C40 7542   5.979   5.009   2.455  0.0272  0.2951 -0.8213
   32MOL    O41 7543   5.968   5.121   2.506 -0.3990 -0.0720  0.1506
   32MOL    O42 7544   5.948   4.977   2.330  0.3417  0.0386 -0.3050
   32MOL    C43 7545   5.864   5.059   2.257  0.7117  0.3380 -0.7955
   32MOL    H44 7546   6.109   5.009   2.703  2.0137 -0.7251  0.3539
   32MOL    H45 7547   6.105   4.840   2.743  2.4940  1.9669 -0.0482
   32MOL    H46 7548   5.996   4.798   2.517 -1.5691  0.7350 -1.3485
   32MOL    H47 7549   5.907   5.151   2.216 -0.5216  0.1584 -2.5511
   32MOL    H48 7550   5.770   5.084   2.305 -0.0039 -1.7605 -1.0560
   32MOL    H49 7551   5.846   4.999   2.168  2.2320  0.0565 -0.9326
   32MOL    C50 7552   6.193   4.873   2.476  0.3695 -0.2942 -0.2563
   32MOL    C51 7553   6.208   4.761   2.381 -0.8192  0.6614  0.0408
   32MOL    C52 7554   6.249   4.810   2.244  0.3227 -0.0806  0.1880
   32MOL    O53 7555   6.184   4.782   2.138 -0.4134 -0.3531 -0.2688
   32MOL    O54 7556   6.371   4.873   2.246  0.4077  0.6680  0.0403
   32MOL    C55 7557   6.426   4.904   2.122  0.4555  0.1474 -0.3249
   32MOL    H56 7558   6.229   4.969   2.439 -1.0951  1.1242  1.8585
   32MOL    H57 7559   6.264   4.864   2.559  0.3632 -3.2608 -0.4985
   32MOL    H58 7560   6.115   4.705   2.372 -0.1467 -0.5674  0.5275
   32MOL    H59 7561   6.472   4.818   2.073  1.3310  0.7193 -0.5202
   32MOL    H60 7562   6.499   4.982   2.139  0.0058  0.2789  1.1067
   32MOL    H61 7563   6.349   4.947   2.058 -1.3306 -0.4448  1.3836
   32MOL    C62 7564   6.319   4.654   2.429  0.5653 -0.2887  0.0882
   32MOL    C63 7565   6.270   4.575   2.557 -0.3303 -1.0001 -0.0568
   32MOL    C64 7566   6.147   4.478   2.549 -0.2751 -0.7507  0.7920
   32MOL    O65 7567   6.052   4.484   2.635 -0.0869  0.2343 -0.1928
   32MOL    O66 7568   6.167   4.379   2.472  0.5818  0.5164  0.0973
   32MOL    C67 7569   6.076   4.280   2.457  0.2585 -0.0418  0.3851
   32MOL    H68 7570   6.335   4.583   2.347  0.1205  0.2304 -0.4504
   32MOL    H69 7571   6.406   4.715   2.455  1.2058 -0.5215 -1.4367
   32MOL    H70 7572   6.228   4.655   2.617 -0.2587  0.6142 -2.0841
   32MOL    H71 7573   6.107   4.197   2.520  3.3154  0.2700 -0.6349
   32MOL    H72 7574   6.080   4.227   2.362 -1.1043  1.6348 -0.6412
   32MOL    H73 7575   5.972   4.312   2.462  0.4978  1.1362 -1.4631
   32MOL    C74 7576   6.385   4.511   2.640 -0.3278 -0.6398  0.5148
   32MOL    C75 7577   6.457   4.612   2.736 -0.3998 -0.5049 -0.5315
   32MOL    C76 7578   6.355   4.675   2.833  0.3355  0.1184 -0.1188
   32MOL    O77 7579   6.341   4.797   2.841  0.4250  0.1023  0.0589
   32MOL    O78 7580   6.286   4.581   2.898  0.2656 -0.5169 -0.3664
   32MOL    C79 7581   6.186   4.610   2.992 -0.8547  0.3887  0.1539
   32MOL    H80 7582   6.348   4.425   2.696 -4.1239  0.4119 -0.2572
   32MOL    H81 7583   6.458   4.470   2.570  0.8266  0.2492  1.1805
   32MOL    H82 7584   6.496   4.698   2.682  0.3021 -1.6214 -1.8329
   32MOL    H83 7585   6.100   4.545   3.004 -2.7577  2.6906 -0.6954
   32MOL    H84 7586   6.146   4.707   2.964 -0.8745  0.2226 -0.3850
   32MOL    H85 7587   6.233   4.610   3.091 -2.0068 -2.0170  0.7364
   32MOL    C86 7588   6.584   4.543   2.802  0.9106  0.2868  0.6783
   32MOL    C87 7589   6.569   4.417   2.888 -0.0324  0.6027  0.7323
   32MOL    C88 7590   6.529   4.290   2.817  0.1188  0.2512  0.6280
   32MOL    O89 7591   6.438   4.218   2.853  0.4516  0.1132 -0.2559
   32MOL    O90 7592   6.620   4.273   2.716  0.3467  0.0264  0.0924
   32MOL    C91 7593   6.632   4.140   2.657 -0.1886  0.0888 -0.9568
   32MOL    H92 7594   6.656   4.527   2.721 -0.8144  0.1926 -0.8745
   32MOL    H93 7595   6.633   4.617   2.866  2.0032  0.5925 -0.4813
   32MOL    H94 7596   6.483   4.427   2.955 -1.0515  1.3818 -0.6828
   32MOL    H95 7597   6.703   4.134   2.573  0.8169  2.2791 -0.2917
   32MOL    H96 7598   6.531   4.115   2.626  0.0994 -1.6561 -0.5220
   32MOL    H97 7599   6.662   4.066   2.731  1.4324 -0.2506 -1.9179
   32MOL    C98 7600   6.693   4.392   2.978 -0.2933  0.2335 -0.1901
   32MOL    C99 7601   6.658   4.362   3.126  0.1830  0.4276 -0.0706
   32MOL   C100 7602   6.594   4.478   3.201  0.3585 -0.1508 -0.8604
   32MOL   O101 7603   6.512   4.464   3.295 -0.2946  0.3249 -0.4260
   32MOL   O102 7604   6.651   4.596   3.165  0.0113 -1.3609  0.1967
   32MOL   C103 7605   6.618   4.714   3.232 -0.0063  0.3195 -0.0858
   32MOL   H104 7606   6.762   4.315   2.943 -1.2733 -0.5445 -0.4278
   32MOL   H105 7607   6.759   4.478   2.990 -2.5619  2.1275 -0.9961
   32MOL   H106 7608   6.753   4.355   3.179 -0.6900 -2.9222  1.1478
   32MOL   H107 7609   6.610   4.690   3.338  1.5235 -2.4372 -0.5461
   32MOL   H108 7610   6.517   4.740   3.199 -0.3632 -2.4981 -1.3322
   32MOL   H109 7611   6.702   4.781   3.213 -0.4833  0.8655 -0.3045
   32MOL   C110 7612   6.586   4.225   3.132 -0.0080 -0.1523 -0.5810
   32MOL   C111 7613   6.662   4.100   3.079  0.5571 -0.3200  0.6152
   32MOL   C112 7614   6.793   4.072   3.152 -0.1980 -0.5297 -0.4495
   32MOL   O113 7615   6.813   4.091   3.270 -0.3525 -0.1621 -0.3178
   32MOL   O114 7616   6.877   4.005   3.079 -0.3934  0.3604 -0.5636
   32MOL   C115 7617   7.008   3.956   3.134 -0.2801 -0.1971 -0.6988
   32MOL   H116 7618   6.573   4.208   3.238  2.5771 -1.2305 -0.3919
   32MOL   H117 7619   6.485   4.227   3.090  0.5445  3.6133 -1.9060
   32MOL   H118 7620   6.683   4.111   2.973 -0.3008  1.3602  0.5969
   32MOL   H119 7621   7.060   4.039   3.182 -0.4970 -1.2757  1.4616
   32MOL   H120 7622   7.069   3.913   3.055  2.6537  1.8711  0.3218
   32MOL   H121 7623   7.002   3.876   3.208  1.6525 -2.4991 -2.9283
   32MOL   C122 7624   6.574   3.972   3.089 -0.3714  0.1063 -0.6268
   32MOL   C123 7625   6.520   3.925   3.227  0.7163  0.6224  0.1098
   32MOL   C124 7626   6.376   3.988   3.249  0.2686  0.1959 -0.9402
   32MOL   O125 7627   6.358   4.060   3.350 -0.2340 -0.2176 -0.0158
   32MOL   O126 7628   6.283   3.942   3.169 -0.2446 -0.6344  0.0857
   32MOL   C127 7629   6.145   3.966   3.195 -0.1760  0.2336  0.1593
   32MOL   H128 7630   6.499   3.980   3.010  0.8639  1.7401 -1.6612
   32MOL   H129 7631   6.634   3.891   3.046  0.7836  0.9027 -0.5467
   32MOL   H130 7632   6.589   3.971   3.297  1.0354  0.5538 -0.1580
   32MOL   H131 7633   6.097   3.888   3.136 -1.5748 -0.0112  1.5711
   32MOL   H132 7634   6.123   4.067   3.159  1.4650  0.0018 -1.5418
   32MOL   H133 7635   6.123   3.966   3.302 -2.1384  1.0396 -0.2183
   32MOL   C134 7636   6.528   3.769   3.231  0.2514 -0.5966 -0.3998
   32MOL   C135 7637   6.480   3.714   3.369 -1.3953  0.4923  0.0830
   32MOL   C136 7638   6.493   3.561   3.367 -0.3854  0.7375 -0.1384
   32MOL   O137 7639   6.597   3.503   3.334  0.1586  0.0082 -0.5691
   32MOL   O138 7640   6.374   3.502   3.386  0.0684  0.3607 -0.3886
   32MOL   C139 7641   6.363   3.365   3.374  0.3613 -0.6202 -0.2976
   32MOL   H140 7642   6.474   3.725   3.147 -1.5126  1.0171 -0.1314
   32MOL   H141 7643   6.628   3.729   3.214  0.5638 -0.0236  0.0831
   32MOL   H142 7644   6.373   3.733   3.361 -1.1920  1.3028 -0.8861
   32MOL   H143 7645   6.417   3.310   3.451 -0.2660 -0.5222  0.2235
   32MOL   H144 7646   6.380   3.317   3.278 -1.8980  0.6411 -1.3723
   32MOL   H145 7647   6.257   3.344   3.393 -0.5237  0.6822 -3.4534
   32MOL   C146 7648   6.548   3.771   3.496  0.0230 -0.0842 -0.0059
   32MOL   C147 7649   6.489   3.717   3.622 -0.6440 -0.1047 -0.8776
   32MOL   C148 7650   6.583   3.742   3.737 -0.3291 -0.3184  0.2950
   32MOL   O149 7651   6.612   3.856   3.774  0.2120 -0.1162  0.0351
   32MOL   O150 7652   6.606   3.634   3.805  0.1690  0.6116  0.0717
   32MOL   C151 7653   6.685   3.640   3.925  0.4515  0.0830 -0.1299
   32MOL   H152 7654   6.653   3.742   3.491  0.4581  1.5770 -0.7429
   32MOL   H153 7655   6.539   3.879   3.483  0.6500 -0.1719 -1.3146
   32MOL   H154 7656   6.487   3.608   3.612  0.6726 -0.3664  1.3815
   32MOL   H155 7657   6.738   3.733   3.942  1.7737 -0.7955  0.6860
   32MOL   H156 7658   6.745   3.551   3.944  0.9019  0.6557  1.2087
   32MOL   H157 7659   6.604   3.644   3.997  1.8428  1.2331  1.3848
   32MOL   C158 7660   6.355   3.772   3.645  0.7981  0.6897  0.0994
   32MOL   C159 7661   6.252   3.687   3.730  0.2973  0.5336  0.4875
   32MOL   C160 7662   6.144   3.790   3.773  0.0957 -0.3039 -0.1409
   32MOL   O161 7663   6.138   3.828   3.896  0.0851  0.2825 -0.3785
   32MOL   O162 7664   6.079   3.832   3.663  0.2927 -0.8223  0.3851
   32MOL   C163 7665   5.976   3.927   3.671  0.4866  0.3240  0.1775
   32MOL   H164 7666   6.360   3.866   3.700 -0.5272  0.5074  0.5682
   32MOL   H165 7667   6.311   3.802   3.550  0.0721  0.1337  0.2499
   32MOL   H166 7668   6.296   3.649   3.822 -0.1088  0.2345  0.5591
   32MOL   H167 7669   6.007   4.016   3.726  0.4379 -0.3730  1.3690
   32MOL   H168 7670   5.883   3.888   3.711  1.6455 -1.0982  1.5493
   32MOL   H169 7671   5.956   3.947   3.566  0.2698 -0.3872  0.0806
   32MOL   C170 7672   6.199   3.562   3.646 -0.3842 -0.3114  0.2304
   32MOL   C171 7673   6.076   3.491   3.697  0.0797  0.0772 -0.4348
   32MOL   C172 7674   5.982   3.448   3.585 -0.1798  0.1359  1.2708
   32MOL   O173 7675   5.861   3.480   3.578  0.4261 -0.2878  0.7971
   32MOL   O174 7676   6.035   3.366   3.490  0.3134 -0.6012  0.3096
   32MOL   C175 7677   5.948   3.305   3.394 -0.4251  0.0636  0.2567
   32MOL   H176 7678   6.176   3.594   3.545  0.6544  0.8144  0.3377
   32MOL   H177 7679   6.285   3.495   3.645  0.7998  1.1646 -0.1238
   32MOL   H178 7680   6.022   3.576   3.740  0.9779 -0.0941  1.0521
   32MOL   H179 7681   5.888   3.362   3.323 -0.9358  1.5010  1.8027
   32MOL   H180 7682   5.885   3.237   3.449 -0.7780  1.1536  1.2174
   32MOL   H181 7683   6.020   3.257   3.327  0.4794  1.9985 -0.1968
   32MOL   C182 7684   6.105   3.377   3.799 -0.0816 -0.1988 -0.4241
   32MOL   C183 7685   6.037   3.388   3.931 -0.0987 -0.2253 -0.5032
   32MOL   C184 7686   6.125   3.476   4.026  0.2271  0.3922  0.1478
   32MOL   O185 7687   6.089   3.574   4.083 -0.5827 -0.1153  0.8611
   32MOL   O186 7688   6.247   3.420   4.040 -0.0083 -0.3975  0.2739
   32MOL   C187 7689   6.362   3.489   4.107 -0.4014 -0.4475  0.3424
   32MOL   H188 7690   6.058   3.289   3.754  1.1223  0.2573 -2.6831
   32MOL   H189 7691   6.211   3.352   3.805 -0.2990 -1.1813 -0.4525
   32MOL   H190 7692   6.033   3.289   3.976  1.7997 -0.0667  0.0386
   32MOL   H191 7693   6.325   3.551   4.189 -0.4173  2.7543 -1.9912
   32MOL   H192 7694   6.405   3.562   4.038 -0.6092  0.1550  0.8444
   32MOL   H193 7695   6.437   3.412   4.121  0.6182  0.1671 -1.5480
   32MOL   C194 7696   5.887   3.440   3.922  0.1523 -0.3148 -0.0524
   32MOL   C195 7697   5.814   3.425   4.057 -0.2033 -0.3726  0.1712
   32MOL   C196 7698   5.695   3.515   4.049 -0.7426  0.2295  0.1691
   32MOL   O197 7699   5.635   3.540   3.945  0.1333  0.0279  0.3506
   32MOL   O198 7700   5.644   3.557   4.171  0.0608  0.0679  0.5075
   32MOL   C199 7701   5.524   3.637   4.175 -0.9433 -0.2505  0.0630
   32MOL   H200 7702   5.886   3.546   3.898  1.7896 -0.6914 -1.9434
   32MOL   H201 7703   5.829   3.401   3.837  1.1576  0.0102 -0.8937
   32MOL   H202 7704   5.866   3.474   4.139 -1.4838 -0.2051  0.8927
   32MOL   H203 7705   5.478   3.644   4.273 -0.0893  0.1547  0.4438
   32MOL   H204 7706   5.443   3.616   4.104 -0.4919 -0.2870 -0.4445
   32MOL   H205 7707   5.564   3.738   4.161 -2.6176  0.1424 -2.0943
   32MOL   C206 7708   5.783   3.288   4.101  0.3405  0.0659  0.4365
   32MOL   C207 7709   5.704   3.198   4.004 -0.1246 -0.1278  0.5346
   32MOL   C208 7710   5.793   3.097   3.932  0.1667 -0.0730 -0.2773
   32MOL   O209 7711   5.833   2.988   3.974 -0.2578  0.3236 -0.2717
   32MOL   O210 7712   5.818   3.134   3.811 -0.3728  0.4753  0.6014
   32MOL   C211 7713   5.902   3.056   3.726  0.1577 -0.1349  0.0336
   32MOL   H212 7714   5.875   3.247   4.143 -0.1691  1.3047  2.8312
   32MOL   H213 7715   5.723   3.300   4.192  0.9166 -0.3507  0.8744
   32MOL   H214 7716   5.657   3.256   3.925  0.9549 -0.7018 -0.5538
   32MOL   H215 7717   5.863   2.955   3.709  2.0912 -0.7238 -1.1763
   32MOL   H216 7718   6.006   3.044   3.757  0.4120 -1.6408 -1.3394
   32MOL   H217 7719   5.902   3.105   3.628  0.9966  3.2615  1.6561
   32MOL   C218 7720   5.591   3.134   4.084  0.3532  0.3015 -0.2184
   32MOL   C219 7721   5.463   3.214   4.125 -0.6243  0.8751  0.3843
   32MOL   C220 7722   5.390   3.263   4.004 -0.5578  0.1141 -0.3263
   32MOL   O221 7723   5.403   3.205   3.892  0.2600 -0.5655  0.0963
   32MOL   O222 7724   5.312   3.364   4.029  0.0114  0.3182 -0.1769
   32MOL   C223 7725   5.227   3.416   3.926  0.2648  0.4559 -0.2628
   32MOL   H224 7726   5.567   3.056   4.012  0.5186 -0.9791  1.0680
   32MOL   H225 7727   5.624   3.079   4.173  1.2956 -1.3803 -1.5834
   32MOL   H226 7728   5.496   3.304   4.178  1.7794  0.6074 -0.6304
   32MOL   H227 7729   5.141   3.356   3.897  2.2738 -2.0923 -1.1784
   32MOL   H228 7730   5.288   3.412   3.835  1.5475  0.7564  0.5661
   32MOL   H229 7731   5.196   3.520   3.936 -0.8215  0.0410  0.8119
   32MOL   C230 7732   5.379   3.129   4.220  0.1488  0.4320  0.2926
   32MOL   C231 7733   5.333   3.209   4.344  0.9770 -0.9028  0.4475
   32MOL   C232 7734   5.270   3.130   4.460 -0.3351 -0.2826 -0.5794
   32MOL   O233 7735   5.213   3.024   4.444 -0.1713 -0.5647  0.0865
   32MOL   O234 7736   5.280   3.195   4.579  0.1713  0.2128  0.0893
   32MOL   C235 7737   5.197   3.151   4.679  0.2609 -0.2728 -0.1231
   32MOL   H236 7738   5.287   3.104   4.168  2.4515 -1.3578 -3.0335
   32MOL   H237 7739   5.424   3.036   4.252 -0.4122  0.0855  0.0765
   32MOL   H238 7740   5.259   3.284   4.316  1.1401 -1.4084 -1.3963
   32MOL   H239 7741   5.093   3.157   4.648  1.4352  0.9162 -4.1516
   32MOL   H240 7742   5.218   3.223   4.758 -0.5507  0.5041 -0.6030
   32MOL   H241 7743   5.220   3.049   4.708  0.7597  0.1473  0.9884
   32MOL   H242 7744   5.424   3.259   4.377  1.0991 -1.0607  0.3507
   33MOL     C1 7745   5.579   5.171   0.270  0.8665 -0.2164 -0.0746
   33MOL     C2 7746   5.493   5.168   0.141  0.1933 -0.5973 -0.0442
   33MOL     C3 7747   5.374   5.256   0.147  0.1019  0.4521 -0.4454
   33MOL     O4 7748   5.373   5.360   0.211  1.1262 -0.6274 -0.4617
   33MOL     O5 7749   5.280   5.203   0.072  1.1378  0.5694  0.3900
   33MOL     C6 7750   5.165   5.269   0.046  0.0700  0.0801 -0.4019
   33MOL     H7 7751   5.640   5.261   0.268 -1.7824  1.6442 -0.5975
   33MOL     H8 7752   5.644   5.085   0.281  0.2472 -0.8148 -1.0478
   33MOL     H9 7753   5.455   5.066   0.134  0.7959 -0.8466  0.2410
   33MOL    H10 7754   5.107   5.216   7.903 -1.9931  2.8409 -0.8200
   33MOL    H11 7755   5.204   5.363   0.007  1.7086  0.0987  1.1969
   33MOL    H12 7756   5.106   5.298   0.133 -0.8432 -0.0471 -0.9831
   33MOL    H13 7757   5.514   5.173   0.358 -0.6583 -1.6983 -1.1536
   33MOL    C14 7758   5.579   5.198   0.015  0.3317 -0.4259  0.8079
   33MOL    C15 7759   5.682   5.093   7.922  0.1040  0.1550  0.5533
   33MOL    C16 7760   5.616   4.965   7.861  0.3309  0.5724  0.3333
   33MOL    O17 7761   5.493   4.951   7.849 -0.7168 -0.1608  0.0867
   33MOL    O18 7762   5.699   4.870   7.827 -0.3819 -0.3121 -0.8540
   33MOL    C19 7763   5.665   4.737   7.782 -0.2961 -0.5461  0.3000
   33MOL    H20 7764   5.511   5.208   7.863 -0.0591 -1.4732  1.0010
   33MOL    H21 7765   5.617   5.301   0.020  0.2113 -0.3341 -0.1402
   33MOL    H22 7766   5.710   5.061   0.089 -0.5512  0.4162  0.8209
   33MOL    H23 7767   5.757   4.696   7.742  0.6710  3.2805 -1.6274
   33MOL    H24 7768   5.592   4.738   7.700 -0.3631  0.9487  0.3746
   33MOL    H25 7769   5.628   4.669   7.858  0.0111 -0.8493  0.1802
   33MOL    C26 7770   5.800   5.149   7.837 -1.0747 -0.2022  0.1389
   33MOL    C27 7771   5.925   5.183   7.914  0.0255 -0.6007 -0.1038
   33MOL    C28 7772   6.036   5.214   7.808  0.3091 -0.5245 -0.6141
   33MOL    O29 7773   6.015   5.251   7.696 -0.2533 -0.2318 -0.3118
   33MOL    O30 7774   6.155   5.185   7.853  0.4506  0.3491  0.5058
   33MOL    C31 7775   6.266   5.216   7.774 -0.7852  0.0849  0.3323
   33MOL    H32 7776   5.834   5.082   7.758  1.2420  0.3041  0.6752
   33MOL    H33 7777   5.777   5.239   7.780  2.4850 -0.2548 -1.5008
   33MOL    H34 7778   5.959   5.097   0.039 -1.7689 -0.0497  1.8277
   33MOL    H35 7779   6.248   5.199   7.668  1.5972  1.5688 -0.3615
   33MOL    H36 7780   6.346   5.157   7.819  0.4567  1.6770  0.2490
   33MOL    H37 7781   6.288   5.322   7.784 -1.2606  0.1934  0.2595
   33MOL    C38 7782   5.917   5.306   0.089  0.3903 -0.3616  0.3799
   33MOL    C39 7783   6.036   5.298   0.186  0.3147 -0.2845  0.1784
   33MOL    C40 7784   6.025   5.440   0.253 -0.4986  0.1227 -0.7052
   33MOL    O41 7785   5.961   5.465   0.353 -0.2281  0.5567 -0.1590
   33MOL    O42 7786   6.090   5.534   0.182 -0.4290  0.4656 -0.1192
   33MOL    C43 7787   6.086   5.671   0.228 -0.7315  0.5711  0.4898
   33MOL    H44 7788   5.926   5.392   0.023 -0.1536 -0.0374  0.7296
   33MOL    H45 7789   5.822   5.324   0.139 -0.0467  1.6351 -1.1565
   33MOL    H46 7790   6.126   5.288   0.126  0.1193 -1.2796  0.0519
   33MOL    H47 7791   6.088   5.740   0.144  3.1090 -1.0637 -0.8999
   33MOL    H48 7792   6.173   5.677   0.294 -0.2176  1.2539 -0.2406
   33MOL    H49 7793   5.995   5.689   0.285  0.1461 -0.0790  2.1372
   33MOL    C50 7794   6.027   5.181   0.284 -0.3402 -0.8319  0.0714
   33MOL    C51 7795   6.158   5.158   0.366  0.8567 -0.7960  0.4673
   33MOL    C52 7796   6.143   5.244   0.499  0.0138  0.9692  0.0260
   33MOL    O53 7797   6.056   5.226   0.582  0.0817  0.8042 -0.3299
   33MOL    O54 7798   6.235   5.334   0.511 -0.3525 -0.1048  0.4355
   33MOL    C55 7799   6.241   5.415   0.624 -0.6550  0.1422  0.1029
   33MOL    H56 7800   5.934   5.185   0.340 -1.1557 -0.8933 -1.2693
   33MOL    H57 7801   6.014   5.083   0.237  0.0586 -0.5584 -0.6079
   33MOL    H58 7802   6.233   5.209   0.305 -0.7689  1.6828  0.4513
   33MOL    H59 7803   6.160   5.485   0.639  0.5665  1.3793  1.0807
   33MOL    H60 7804   6.336   5.469   0.633 -0.0526 -1.1517  1.8747
   33MOL    H61 7805   6.243   5.355   0.716 -0.4362 -1.3739 -0.8698
   33MOL    C62 7806   6.200   5.017   0.388 -0.3486 -0.0613  0.2775
   33MOL    C63 7807   6.349   4.993   0.391  0.5182  0.5962 -0.4686
   33MOL    C64 7808   6.387   4.975   0.240 -0.2296 -0.3164  0.4661
   33MOL    O65 7809   6.425   5.072   0.172  0.2600  0.0364 -0.4268
   33MOL    O66 7810   6.368   4.857   0.197 -0.3059  0.0258  0.4387
   33MOL    C67 7811   6.406   4.813   0.067  0.8435 -0.4151 -0.6894
   33MOL    H68 7812   6.159   4.982   0.483 -0.9109 -1.9823 -0.6655
   33MOL    H69 7813   6.161   4.955   0.307  2.9112 -0.2365 -1.2426
   33MOL    H70 7814   6.363   4.890   0.425  2.1833  0.6002 -1.0823
   33MOL    H71 7815   6.514   4.797   0.063  0.6375 -3.0860  2.6415
   33MOL    H72 7816   6.399   4.900   0.002  0.0315  0.6167  0.7421
   33MOL    H73 7817   6.347   4.725   0.040  0.2327  0.0251 -0.8064
   33MOL    C74 7818   6.437   5.091   0.473 -0.3054  0.2724  0.3609
   33MOL    C75 7819   6.584   5.038   0.511 -0.0222  0.2449  0.4076
   33MOL    C76 7820   6.672   5.153   0.562  0.1296 -0.4623  0.0787
   33MOL    O77 7821   6.622   5.265   0.569  0.1389  0.2310  0.0202
   33MOL    O78 7822   6.802   5.130   0.593  1.2449 -0.3585 -0.0111
   33MOL    C79 7823   6.890   5.234   0.641  0.1884 -0.1438 -0.1609
   33MOL    H80 7824   6.457   5.175   0.405 -1.8629 -0.5593 -1.1705
   33MOL    H81 7825   6.377   5.130   0.555  1.4292  2.7789  0.5084
   33MOL    H82 7826   6.616   5.013   0.410 -0.6836 -1.2443  0.5567
   33MOL    H83 7827   6.896   5.302   0.557 -2.4162  0.9389  0.4808
   33MOL    H84 7828   6.986   5.192   0.672  0.2054 -1.6375 -2.1452
   33MOL    H85 7829   6.854   5.288   0.729 -2.0422 -1.8616  0.0168
   33MOL    C86 7830   6.581   4.915   0.602 -0.3090 -0.1707  0.2733
   33MOL    C87 7831   6.685   4.810   0.561  0.1565 -0.9144 -0.5889
   33MOL    C88 7832   6.731   4.732   0.685  0.3539  0.3623  0.0097
   33MOL    O89 7833   6.853   4.716   0.698 -0.5291  0.4740 -0.3086
   33MOL    O90 7834   6.633   4.692   0.767 -0.2478  0.1495  0.0654
   33MOL    C91 7835   6.659   4.623   0.893 -0.7016 -0.2116 -0.0029
   33MOL    H92 7836   6.606   4.948   0.702  0.8818  1.4274 -0.5362
   33MOL    H93 7837   6.478   4.881   0.607 -0.4848  0.0405 -1.5537
   33MOL    H94 7838   6.770   4.869   0.526  0.3042  0.9575  2.7894
   33MOL    H95 7839   6.687   4.518   0.887  1.0271  0.0294  2.8276
   33MOL    H96 7840   6.576   4.644   0.960 -1.1680  0.0987 -0.6692
   33MOL    H97 7841   6.747   4.664   0.943 -1.5160  1.9356 -0.2912
   33MOL    C98 7842   6.635   4.711   0.460  0.2054  0.7162  0.3924
   33MOL    C99 7843   6.726   4.601   0.400 -0.7651 -0.0195 -0.6567
   33MOL   C100 7844   6.667   4.527   0.283 -0.2655  0.2811  0.0169
   33MOL   O101 7845   6.581   4.577   0.216  0.1649 -0.0149  0.0233
   33MOL   O102 7846   6.720   4.405   0.264  0.0344  0.7722 -0.3346
   33MOL   C103 7847   6.664   4.310   0.171 -0.2030 -0.3533 -0.4472
   33MOL   H104 7848   6.553   4.653   0.501  0.7879 -0.7082 -0.4094
   33MOL   H105 7849   6.584   4.773   0.385  2.0307  0.9196 -0.7230
   33MOL   H106 7850   6.751   4.521   0.469  2.8962  0.6888 -1.0283
   33MOL   H107 7851   6.715   4.217   0.195  1.0248  0.7304  1.2739
   33MOL   H108 7852   6.675   4.333   0.065  1.4989 -3.9399 -1.1306
   33MOL   H109 7853   6.557   4.294   0.180 -0.5601  1.7327 -0.7980
   33MOL   C110 7854   6.869   4.651   0.360 -0.0332 -0.0154  0.3218
   33MOL   C111 7855   6.894   4.742   0.240 -0.9601 -0.1059  0.3902
   33MOL   C112 7856   6.834   4.883   0.234 -0.4595 -0.1725  0.3755
   33MOL   O113 7857   6.875   4.970   0.312  0.0300  0.5479 -0.4789
   33MOL   O114 7858   6.751   4.891   0.140  0.1721  0.0439 -0.0173
   33MOL   C115 7859   6.706   5.022   0.096 -0.1515 -0.0732 -0.0319
   33MOL   H116 7860   6.902   4.693   0.455 -1.2829  3.4437 -0.6801
   33MOL   H117 7861   6.926   4.559   0.350 -0.9924 -0.8672  2.3524
   33MOL   H118 7862   6.848   4.695   0.153  1.7055  3.4895 -3.1251
   33MOL   H119 7863   6.792   5.073   0.053  1.2065 -2.7087 -0.5150
   33MOL   H120 7864   6.679   5.080   0.184 -0.4389  1.0938 -0.8762
   33MOL   H121 7865   6.625   5.004   0.026  0.4891 -1.1534 -0.4954
   33MOL   C122 7866   7.046   4.755   0.221  0.5320 -0.8620  0.2919
   33MOL   C123 7867   7.102   4.623   0.145 -0.1281  0.4382  0.5296
   33MOL   C124 7868   7.130   4.652   7.929  0.7387  0.5557 -0.1073
   33MOL   O125 7869   7.243   4.654   7.882  0.0327 -0.3143 -0.1313
   33MOL   O126 7870   7.011   4.661   7.860  0.1013  0.5478  0.1413
   33MOL   C127 7871   7.024   4.688   7.721 -0.5164  0.2404  0.3390
   33MOL   H128 7872   7.060   4.844   0.160 -1.2653 -1.8172 -1.5848
   33MOL   H129 7873   7.078   4.763   0.325 -0.2880  1.4390  0.3863
   33MOL   H130 7874   7.021   4.550   0.146 -0.0001  0.2949  0.2440
   33MOL   H131 7875   6.924   4.674   7.679 -1.0498 -1.3218  2.0720
   33MOL   H132 7876   7.096   4.624   7.670  0.4421  1.0044  0.7155
   33MOL   H133 7877   7.070   4.786   7.709 -1.8441  0.9903  1.2342
   33MOL   C134 7878   7.228   4.576   0.219  0.7209 -0.2503 -0.4388
   33MOL   C135 7879   7.286   4.439   0.164  0.6629  0.5513  0.1166
   33MOL   C136 7880   7.436   4.437   0.148  0.4839 -0.0427 -0.7731
   33MOL   O137 7881   7.509   4.509   0.217  0.5169 -0.2556  0.1054
   33MOL   O138 7882   7.483   4.344   0.058 -0.0999  0.7936  0.5299
   33MOL   C139 7883   7.617   4.341   7.932 -0.1879 -0.0238  0.5744
   33MOL   H140 7884   7.305   4.653   0.223 -0.5038  0.9156  1.5232
   33MOL   H141 7885   7.211   4.568   0.326 -3.4768  0.5207 -0.9529
   33MOL   H142 7886   7.251   4.423   0.062  3.0045 -1.1959 -0.4717
   33MOL   H143 7887   7.686   4.260   0.022  0.0730 -0.9150 -3.1528
   33MOL   H144 7888   7.669   4.432   0.028  0.9537 -0.2548 -0.7128
   33MOL   H145 7889   7.615   4.342   7.823 -2.3444  2.0343  0.5969
   33MOL   C146 7890   7.238   4.314   0.243 -0.3652 -0.5689 -0.7182
   33MOL   C147 7891   7.085   4.293   0.239  0.4607 -0.4953  0.2732
   33MOL   C148 7892   7.051   4.245   0.099 -0.2920 -0.6481 -0.2031
   33MOL   O149 7893   7.126   4.160   0.035  0.6226 -0.0095  0.2605
   33MOL   O150 7894   6.944   4.292   0.040  0.1446  0.0481 -0.1577
   33MOL   C151 7895   6.911   4.255   7.842  0.4995 -0.6120  0.6696
   33MOL   H152 7896   7.284   4.217   0.222  0.1539 -0.2450 -1.0872
   33MOL   H153 7897   7.270   4.328   0.347  0.8446  1.2700 -1.3176
   33MOL   H154 7898   7.028   4.384   0.258  3.1803  0.9598  1.8072
   33MOL   H155 7899   6.809   4.294   7.838  0.1582 -1.2219  3.0893
   33MOL   H156 7900   6.898   4.149   7.821 -0.5282 -0.5037  0.7319
   33MOL   H157 7901   6.962   4.320   7.771 -1.7986  3.3222  2.4495
   33MOL   C158 7902   7.037   4.186   0.339  0.7086  0.1703 -0.4397
   33MOL   C159 7903   7.017   4.217   0.493  0.3430  0.1392  0.3709
   33MOL   C160 7904   6.871   4.262   0.525  0.0524  0.1357 -0.0211
   33MOL   O161 7905   6.854   4.346   0.609  0.5127 -0.6181  0.2094
   33MOL   O162 7906   6.769   4.183   0.474  0.4934 -0.2074  0.1519
   33MOL   C163 7907   6.640   4.198   0.514  0.4322  0.2107  0.2887
   33MOL   H164 7908   6.939   4.154   0.303 -1.1581  2.1204  2.7238
   33MOL   H165 7909   7.097   4.097   0.317  3.0155  1.7045 -0.4888
   33MOL   H166 7910   7.075   4.308   0.506 -1.5131  1.5256 -0.7029
   33MOL   H167 7911   6.603   4.292   0.473  2.0900  0.4991 -0.5709
   33MOL   H168 7912   6.620   4.187   0.621 -0.6165  0.9508  0.1793
   33MOL   H169 7913   6.584   4.130   0.449  0.1317 -1.6443  2.4413
   33MOL   C170 7914   7.070   4.113   0.595 -0.4244 -0.3280  0.1937
   33MOL   C171 7915   7.220   4.134   0.629 -1.1961  0.5842 -0.8105
   33MOL   C172 7916   7.238   4.133   0.782 -0.3330  0.1787  0.2490
   33MOL   O173 7917   7.260   4.233   0.844 -0.6506  0.1296 -0.2568
   33MOL   O174 7918   7.220   4.015   0.841  0.1069 -0.6481  0.2639
   33MOL   C175 7919   7.252   4.000   0.978 -0.1082  0.7630 -0.3580
   33MOL   H176 7920   7.007   4.125   0.683  1.4146  0.1847  1.4797
   33MOL   H177 7921   7.046   4.010   0.567 -1.0306 -0.6150  1.7130
   33MOL   H178 7922   7.239   4.237   0.602  2.0334 -0.0781 -1.2435
   33MOL   H179 7923   7.229   3.900   1.018  0.8499  1.5732  2.3304
   33MOL   H180 7924   7.212   4.085   1.034 -0.9434 -0.1214  0.4188
   33MOL   H181 7925   7.360   3.994   0.992 -0.2559  0.2408  0.6128
   33MOL   C182 7926   7.311   4.040   0.552 -0.1259  0.0307  0.0022
   33MOL   C183 7927   7.465   4.064   0.565 -0.5672  0.4717  0.2176
   33MOL   C184 7928   7.542   3.947   0.497  0.7756  0.1433  0.0452
   33MOL   O185 7929   7.561   3.839   0.548 -0.7162  0.0047 -0.5353
   33MOL   O186 7930   7.588   3.978   0.364  0.2792  0.3656 -0.7038
   33MOL   C187 7931   7.673   3.891   0.296 -0.1453 -0.2534  0.1964
   33MOL   H188 7932   7.291   3.936   0.578 -2.3716  0.3872 -0.2212
   33MOL   H189 7933   7.281   4.051   0.448  1.0750  0.7174 -0.2877
   33MOL   H190 7934   7.478   4.054   0.673  0.8182  1.8288  0.2024
   33MOL   H191 7935   7.702   3.947   0.207 -1.2780  1.8492  1.1153
   33MOL   H192 7936   7.629   3.792   0.283 -4.7799  1.7019  0.0989
   33MOL   H193 7937   7.763   3.874   0.355 -1.3640 -0.0961  2.1395
   33MOL   C194 7938   7.520   4.206   0.543  0.0861 -0.1664 -0.2335
   33MOL   C195 7939   7.654   4.225   0.621 -0.9137  0.5550 -0.7110
   33MOL   C196 7940   7.771   4.209   0.518 -0.1303  0.3223 -0.7588
   33MOL   O197 7941   7.859   4.132   0.547 -0.0800 -0.0079  0.0118
   33MOL   O198 7942   7.762   4.277   0.410  0.0087  0.0312 -1.0104
   33MOL   C199 7943   7.848   4.253   0.303 -0.0854 -0.4556 -0.0171
   33MOL   H200 7944   7.518   4.224   0.435 -0.2953  2.1894  0.1501
   33MOL   H201 7945   7.449   4.266   0.598  0.7328 -1.3923  2.0015
   33MOL   H202 7946   7.669   4.151   0.701 -3.3171  2.5667  1.6862
   33MOL   H203 7947   7.880   4.149   0.305 -0.0614 -0.4199  1.4861
   33MOL   H204 7948   0.004   4.316   0.300 -2.0325  2.4716  1.7132
   33MOL   H205 7949   7.797   4.266   0.207 -0.1476  2.7168  0.3950
   33MOL   C206 7950   7.665   4.358   0.692 -0.4457  0.6318  0.0255
   33MOL   C207 7951   7.573   4.373   0.813  0.1333 -0.1305 -0.2360
   33MOL   C208 7952   7.623   4.285   0.928 -0.7759  0.3015  0.3432
   33MOL   O209 7953   7.738   4.297   0.973  0.1546  0.3795 -0.0382
   33MOL   O210 7954   7.531   4.197   0.973 -0.5108  0.3883  0.4713
   33MOL   C211 7955   7.572   4.107   1.079  0.3514 -0.6090  0.0269
   33MOL   H212 7956   7.765   4.365   0.733 -0.3595 -0.8733  0.1097
   33MOL   H213 7957   7.651   4.446   0.629  0.4250 -0.0341 -1.0844
   33MOL   H214 7958   7.474   4.338   0.784 -0.2979  0.0541  0.9668
   33MOL   H215 7959   7.592   4.007   1.040 -2.1713 -1.6037  1.2043
   33MOL   H216 7960   7.488   4.100   1.147 -0.3175 -2.4820 -0.9683
   33MOL   H217 7961   7.656   4.132   1.144 -1.3441 -1.0844  2.4455
   33MOL   C218 7962   7.554   4.517   0.871 -0.6992  0.3968  0.9737
   33MOL   C219 7963   7.487   4.621   0.775  0.4191 -0.1507 -0.4366
   33MOL   C220 7964   7.355   4.564   0.707  0.4491  0.1600 -0.0755
   33MOL   O221 7965   7.365   4.501   0.597 -0.3215 -0.1078  0.7282
   33MOL   O222 7966   7.240   4.578   0.768 -0.1793 -0.0098 -0.1612
   33MOL   C223 7967   7.124   4.529   0.701 -0.2488  0.6286  1.1117
   33MOL   H224 7968   7.498   4.512   0.964 -0.5849  0.5273  1.0504
   33MOL   H225 7969   7.657   4.548   0.893 -0.6775  0.4001  0.8629
   33MOL   H226 7970   7.551   4.644   0.689  1.4122  1.2556  0.6498
   33MOL   H227 7971   7.110   4.586   0.609 -2.3612 -1.5029  0.0768
   33MOL   H228 7972   7.036   4.540   0.763 -0.8230  0.4973  0.3288
   33MOL   H229 7973   7.134   4.424   0.675 -0.0836  0.8469  0.2888
   33MOL   C230 7974   7.457   4.760   0.846 -0.0663  0.3423  0.1624
   33MOL   C231 7975   7.385   4.872   0.777  0.1766  0.1126  0.6666
   33MOL   C232 7976   7.343   4.989   0.869  0.1819  0.0132  0.3156
   33MOL   O233 7977   7.348   4.979   0.991 -0.3964 -0.4050  1.1690
   33MOL   O234 7978   7.311   5.103   0.803 -0.2173  0.4740  0.5999
   33MOL   C235 7979   7.280   5.219   0.879 -0.0035  0.0593  0.7910
   33MOL   H236 7980   7.397   4.727   0.930  1.6622  0.0145  1.3009
   33MOL   H237 7981   7.550   4.794   0.892  0.6767  1.1389 -1.8684
   33MOL   H238 7982   7.305   4.827   0.717 -0.0353  3.7514 -1.8923
   33MOL   H239 7983   7.306   5.309   0.823 -2.8617  0.9521  0.8262
   33MOL   H240 7984   7.330   5.220   0.976  0.6270  2.0875  0.4660
   33MOL   H241 7985   7.172   5.227   0.889  0.0464  3.5104 -0.5939
   33MOL   H242 7986   7.449   4.920   0.703  0.8044 -0.9339  0.5213
   34MOL     C1 7987   5.666   6.735   1.493  0.2665  0.0609 -0.4989
   34MOL     C2 7988   5.637   6.835   1.605  0.3282 -0.6199 -0.1373
   34MOL     C3 7989   5.551   6.764   1.715  0.4754 -0.0296 -0.0983
   34MOL     O4 7990   5.433   6.799   1.748 -0.4613 -0.2044 -0.3435
   34MOL     O5 7991   5.606   6.643   1.753 -0.5224  0.2884  0.1393
   34MOL     C6 7992   5.526   6.556   1.831  0.5208  0.9656  0.4127
   34MOL     H7 7993   5.712   6.782   1.405  0.8370  1.3800  0.4828
   34MOL     H8 7994   5.577   6.689   1.452  0.3159 -0.0337 -0.4993
   34MOL     H9 7995   5.577   6.908   1.550  0.1218 -0.7708 -0.1128
   34MOL    H10 7996   5.431   6.526   1.786  1.1102  1.7859 -1.4233
   34MOL    H11 7997   5.506   6.592   1.932  0.2338  1.1607  0.2879
   34MOL    H12 7998   5.576   6.460   1.835 -0.1612  0.6141  0.5967
   34MOL    H13 7999   5.737   6.668   1.541 -0.3773 -0.5424 -0.3991
   34MOL    C14 8000   5.763   6.916   1.654  0.7274  0.8100  0.3926
   34MOL    C15 8001   5.845   7.001   1.551  0.5845  0.2459  0.0551
   34MOL    C16 8002   5.762   7.092   1.457  0.0563 -0.6229 -0.1548
   34MOL    O17 8003   5.643   7.112   1.481  0.5018  0.4961  0.4678
   34MOL    O18 8004   5.837   7.142   1.353 -0.3816  0.0105  0.8118
   34MOL    C19 8005   5.765   7.198   1.239 -0.4084  0.0647  0.4272
   34MOL    H20 8006   5.727   6.972   1.740 -0.7481  0.3031  0.1049
   34MOL    H21 8007   5.836   6.845   1.692  0.0852  0.0410  0.1804
   34MOL    H22 8008   5.901   6.939   1.482  0.0065 -0.2678  0.0484
   34MOL    H23 8009   5.726   7.294   1.273  1.4119  1.2662 -0.7045
   34MOL    H24 8010   5.696   7.133   1.186  0.2768  0.8692 -1.5220
   34MOL    H25 8011   5.817   7.240   1.152 -0.2693 -1.3723 -0.1924
   34MOL    C26 8012   5.948   7.090   1.623  0.2113  0.8558  0.3415
   34MOL    C27 8013   6.078   7.017   1.667 -0.8845  0.1293 -0.0878
   34MOL    C28 8014   6.163   6.963   1.552 -0.1253 -0.0717  0.1513
   34MOL    O29 8015   6.132   6.975   1.438  0.1711 -0.6467  0.2623
   34MOL    O30 8016   6.270   6.902   1.602  0.5845 -0.3884 -0.4520
   34MOL    C31 8017   6.371   6.869   1.510 -0.6707  0.0816 -0.7005
   34MOL    H32 8018   5.984   7.172   1.561 -1.3434  0.0431 -1.6875
   34MOL    H33 8019   5.908   7.127   1.717  0.1788  0.2965  0.5522
   34MOL    H34 8020   6.047   6.941   1.740  0.4115  1.7515  2.2173
   34MOL    H35 8021   6.394   6.763   1.521 -0.6496  0.2079  0.5204
   34MOL    H36 8022   6.465   6.922   1.525 -0.5523  0.3461 -2.2755
   34MOL    H37 8023   6.342   6.891   1.407  1.3713  0.6641 -1.1711
   34MOL    C38 8024   6.171   7.114   1.746 -0.6622  0.1089  0.0247
   34MOL    C39 8025   6.169   7.109   1.894  0.0724 -0.0801 -0.3346
   34MOL    C40 8026   6.228   6.978   1.957 -0.0454  0.5432 -0.0230
   34MOL    O41 8027   6.333   6.929   1.922  0.4185  0.1123  0.4456
   34MOL    O42 8028   6.151   6.925   2.059 -0.1250  0.0887 -0.0027
   34MOL    C43 8029   6.164   6.796   2.115  0.2031 -0.3759 -0.3914
   34MOL    H44 8030   6.278   7.106   1.724 -0.5291  0.6260  0.4421
   34MOL    H45 8031   6.155   7.215   1.709 -0.8560 -0.0516 -0.3271
   34MOL    H46 8032   6.064   7.117   1.921 -0.3812 -1.9315 -1.5227
   34MOL    H47 8033   6.125   6.794   2.217  0.2536 -1.7941 -0.3890
   34MOL    H48 8034   6.270   6.772   2.110  0.3863  0.3549 -0.1060
   34MOL    H49 8035   6.097   6.733   2.057 -1.0053 -0.9783  1.6162
   34MOL    C50 8036   6.232   7.241   1.950 -0.1758  0.5862  0.0222
   34MOL    C51 8037   6.186   7.279   2.095 -0.6436 -0.4923  0.4447
   34MOL    C52 8038   6.295   7.354   2.177 -0.3814  0.3209  0.4296
   34MOL    O53 8039   6.353   7.306   2.275 -0.1318 -0.0819  0.3671
   34MOL    O54 8040   6.317   7.472   2.124 -0.1358 -0.2034 -0.7442
   34MOL    C55 8041   6.410   7.559   2.194  0.1750  0.9581 -0.8535
   34MOL    H56 8042   6.341   7.241   1.948 -0.1799  1.0948 -1.8645
   34MOL    H57 8043   6.197   7.325   1.889 -0.6009  0.9699  0.7895
   34MOL    H58 8044   6.191   7.185   2.150  0.8147 -0.5682  0.2048
   34MOL    H59 8045   6.491   7.597   2.131  1.2035 -0.6084 -0.5035
   34MOL    H60 8046   6.459   7.516   2.281 -1.0360  1.3649  0.0298
   34MOL    H61 8047   6.356   7.644   2.235 -2.5133 -0.5299 -1.1991
   34MOL    C62 8048   6.046   7.334   2.096 -0.1663 -0.0286 -0.5379
   34MOL    C63 8049   5.989   7.353   2.237 -0.1533  0.9041  0.7039
   34MOL    C64 8050   5.939   7.504   2.246  0.6041  0.3443  0.5698
   34MOL    O65 8051   5.820   7.534   2.223  0.4282  0.5259 -0.1948
   34MOL    O66 8052   6.041   7.585   2.277  0.6370  0.3412 -0.1894
   34MOL    C67 8053   6.002   7.721   2.293 -0.1146  0.1326  0.5537
   34MOL    H68 8054   6.054   7.423   2.035  1.0111 -0.2429 -0.7176
   34MOL    H69 8055   5.986   7.259   2.045 -1.2862 -0.0392  0.7657
   34MOL    H70 8056   6.065   7.357   2.315 -0.9484 -1.3234  1.6457
   34MOL    H71 8057   6.090   7.769   2.336  1.8802 -2.1553 -0.8055
   34MOL    H72 8058   5.917   7.737   2.360 -1.7195 -0.3711 -1.3115
   34MOL    H73 8059   5.968   7.757   2.196  0.2375 -0.5856  0.1530
   34MOL    C74 8060   5.870   7.260   2.275  0.2517 -0.1966  0.0182
   34MOL    C75 8061   5.892   7.110   2.296  0.1244 -0.3759  0.1701
   34MOL    C76 8062   6.000   7.083   2.406  0.0166 -0.1580  0.4398
   34MOL    O77 8063   6.019   7.156   2.507  0.5105  0.1741 -0.1310
   34MOL    O78 8064   6.070   6.982   2.360 -0.6612  0.0311 -0.0673
   34MOL    C79 8065   6.202   6.961   2.402  0.6148 -0.6055  0.8978
   34MOL    H80 8066   5.845   7.303   2.373 -1.0845  0.3473 -0.5522
   34MOL    H81 8067   5.792   7.266   2.200  0.7997  2.1375 -0.4011
   34MOL    H82 8068   5.942   7.085   2.202  1.5506 -0.5642  0.9660
   34MOL    H83 8069   6.227   6.953   2.508 -1.1986  4.3155  1.8299
   34MOL    H84 8070   6.267   7.038   2.362  0.5412 -0.4614  1.0600
   34MOL    H85 8071   6.225   6.861   2.365  1.3134 -0.5348  1.1301
   34MOL    C86 8072   5.755   7.040   2.338 -0.0780 -0.3408 -0.4993
   34MOL    C87 8073   5.713   6.907   2.276  0.7194 -0.1468 -0.4320
   34MOL    C88 8074   5.669   6.932   2.127 -0.1918  0.6117  0.2342
   34MOL    O89 8075   5.734   6.879   2.036 -0.0858 -0.0513  0.8599
   34MOL    O90 8076   5.562   7.002   2.116 -0.1324 -0.4661 -0.1322
   34MOL    C91 8077   5.493   7.021   1.998  0.1768  0.0999 -0.0973
   34MOL    H92 8078   5.758   7.015   2.444 -0.9237  1.1954 -0.0907
   34MOL    H93 8079   5.665   7.100   2.325 -1.7838 -2.4635  1.1133
   34MOL    H94 8080   5.619   6.876   2.323  1.3067 -1.3969 -0.0643
   34MOL    H95 8081   5.436   7.115   1.991 -2.9962 -1.6055  1.6067
   34MOL    H96 8082   5.420   6.941   1.985 -0.3693  0.5536  0.1276
   34MOL    H97 8083   5.550   7.017   1.906  0.0207 -2.0471 -0.1198
   34MOL    C98 8084   5.814   6.792   2.298  0.4246 -0.2043 -0.1084
   34MOL    C99 8085   5.827   6.755   2.448 -0.5439  0.6736 -0.1752
   34MOL   C100 8086   5.701   6.696   2.519  0.9367  0.1532 -0.4219
   34MOL   O101 8087   5.658   6.581   2.510 -0.5444  0.0963  0.4124
   34MOL   O102 8088   5.636   6.796   2.593 -0.1822  0.0720  0.1471
   34MOL   C103 8089   5.547   6.761   2.701  0.1100 -0.0274  0.2902
   34MOL   H104 8090   5.775   6.708   2.239 -2.5163  0.7223  0.4199
   34MOL   H105 8091   5.911   6.818   2.257  0.5660 -1.1141 -0.3698
   34MOL   H106 8092   5.851   6.847   2.502  1.5749 -1.4419  2.6913
   34MOL   H107 8093   5.608   6.717   2.781 -0.2317 -0.7206  0.1743
   34MOL   H108 8094   5.475   6.685   2.670  1.9528 -1.4146 -0.6440
   34MOL   H109 8095   5.500   6.851   2.740 -0.9228  0.4471 -1.9766
   34MOL   C110 8096   5.947   6.652   2.465 -0.6729  0.6469  0.0771
   34MOL   C111 8097   6.000   6.636   2.608  0.1397  0.4759 -0.8167
   34MOL   C112 8098   6.116   6.535   2.610  0.0459  0.3480  0.1119
   34MOL   O113 8099   6.119   6.438   2.679  0.2863 -0.4922 -0.1090
   34MOL   O114 8100   6.210   6.565   2.526  0.1313  0.5423  0.3729
   34MOL   C115 8101   6.329   6.486   2.507 -0.0473  0.6170  0.1605
   34MOL   H116 8102   5.910   6.558   2.424 -1.2906  0.3293  1.3254
   34MOL   H117 8103   6.025   6.692   2.400  0.3487 -1.8769 -0.2860
   34MOL   H118 8104   5.917   6.604   2.670  0.7998  0.1156 -0.1135
   34MOL   H119 8105   6.401   6.516   2.431 -0.4699  0.1410 -0.4422
   34MOL   H120 8106   6.298   6.385   2.483  0.2548  0.2795  1.1816
   34MOL   H121 8107   6.385   6.473   2.599 -0.1143 -0.9621 -0.0105
   34MOL   C122 8108   6.044   6.768   2.673 -0.2303  0.1570 -0.3522
   34MOL   C123 8109   5.964   6.803   2.810 -0.1051  1.0077 -0.1756
   34MOL   C124 8110   5.953   6.700   2.920  0.5854 -0.5820 -0.7132
   34MOL   O125 8111   5.845   6.657   2.957 -0.3944 -0.2400 -0.4061
   34MOL   O126 8112   6.078   6.660   2.976  0.1962 -0.1347 -0.1742
   34MOL   C127 8113   6.088   6.569   3.086 -0.2105  0.5091 -0.7938
   34MOL   H128 8114   6.146   6.778   2.710 -0.4114 -1.2145  0.5616
   34MOL   H129 8115   6.035   6.847   2.599 -1.2210 -0.1471 -0.5615
   34MOL   H130 8116   5.860   6.823   2.783 -1.5915 -0.2965  4.1711
   34MOL   H131 8117   5.992   6.519   3.087  0.1074 -0.0991 -0.7700
   34MOL   H132 8118   6.106   6.634   3.172 -1.1151  0.4371 -0.5452
   34MOL   H133 8119   6.167   6.496   3.071  0.2628  0.7131  0.5722
   34MOL   C134 8120   6.007   6.928   2.880  0.0120 -0.1865 -0.1894
   34MOL   C135 8121   5.975   7.058   2.799  0.7462  0.0678  0.2270
   34MOL   C136 8122   5.820   7.075   2.781 -0.2276  0.5524  0.6699
   34MOL   O137 8123   5.740   7.012   2.850  0.4167 -0.1565  0.6611
   34MOL   O138 8124   5.789   7.146   2.668 -0.5542  0.3846 -0.7101
   34MOL   C139 8125   5.658   7.155   2.626  0.3005  0.3523 -0.0653
   34MOL   H140 8126   5.958   6.945   2.976 -2.5635  1.1033 -1.6853
   34MOL   H141 8127   6.115   6.919   2.894 -0.1284 -0.9688  0.4326
   34MOL   H142 8128   6.022   7.047   2.702 -0.0903 -1.7531  0.0083
   34MOL   H143 8129   5.604   7.061   2.629  1.7844 -0.4732  1.1212
   34MOL   H144 8130   5.649   7.195   2.525  1.1318  0.6970 -0.0075
   34MOL   H145 8131   5.611   7.233   2.687  1.3259  0.2723  0.8461
   34MOL   C146 8132   6.029   7.182   2.865 -0.5705 -0.5805  0.2999
   34MOL   C147 8133   6.190   7.193   2.890  0.1388  0.4815 -0.4795
   34MOL   C148 8134   6.248   7.200   2.749 -0.4783  0.1926  0.1139
   34MOL   O149 8135   6.300   7.101   2.693 -0.0982  0.4896  0.0438
   34MOL   O150 8136   6.237   7.326   2.694  0.1024 -0.3828 -0.0046
   34MOL   C151 8137   6.292   7.353   2.565 -0.9693  0.0421  0.1667
   34MOL   H152 8138   5.991   7.258   2.796 -0.0414 -0.2947  0.3147
   34MOL   H153 8139   5.979   7.196   2.960 -0.4512  1.0519  0.1381
   34MOL   H154 8140   6.220   7.100   2.940 -0.3632 -0.0524 -1.1738
   34MOL   H155 8141   6.386   7.298   2.561 -0.8438  0.3008 -0.4115
   34MOL   H156 8142   6.304   7.460   2.547  0.6957  0.0014  0.8968
   34MOL   H157 8143   6.224   7.317   2.487 -0.7874  0.9144 -0.3964
   34MOL   C158 8144   6.223   7.314   2.976 -0.2742 -0.8118 -0.0512
   34MOL   C159 8145   6.364   7.320   3.041  0.0211 -0.6640 -0.2187
   34MOL   C160 8146   6.399   7.461   3.097  0.9496  0.4133 -0.6394
   34MOL   O161 8147   6.323   7.556   3.087 -0.0463  0.2019  0.5120
   34MOL   O162 8148   6.525   7.467   3.144  0.2754 -0.5221 -0.2054
   34MOL   C163 8149   6.562   7.601   3.191  0.2449 -0.5592  0.3693
   34MOL   H164 8150   6.214   7.406   2.919 -0.3278  0.9130  2.6122
   34MOL   H165 8151   6.155   7.320   3.061 -1.6282 -1.9056 -1.0408
   34MOL   H166 8152   6.441   7.308   2.965  0.6287 -0.1071  0.2972
   34MOL   H167 8153   6.484   7.628   3.262 -0.5928  0.8639 -1.0677
   34MOL   H168 8154   6.560   7.675   3.110  1.1938  0.5101  1.3110
   34MOL   H169 8155   6.662   7.596   3.233  0.5794  0.9328 -0.2125
   34MOL   C170 8156   6.385   7.212   3.154 -0.2744 -0.7754  0.8529
   34MOL   C171 8157   6.525   7.158   3.172  0.0163 -0.0872 -0.2525
   34MOL   C172 8158   6.538   7.094   3.310 -0.4765 -0.6661  0.5834
   34MOL   O173 8159   6.596   7.152   3.404 -0.2424  0.2161 -0.4666
   34MOL   O174 8160   6.474   6.980   3.325 -0.4798  0.4798  0.1653
   34MOL   C175 8161   6.511   6.890   3.435 -0.3179 -0.7638  0.4075
   34MOL   H176 8162   6.351   7.262   3.244  0.7878 -1.9908  1.9540
   34MOL   H177 8163   6.312   7.133   3.138  0.0474 -0.5884 -1.7042
   34MOL   H178 8164   6.598   7.239   3.172  0.3524 -0.3772  1.4160
   34MOL   H179 8165   6.446   6.897   3.522  0.5853  1.2957  0.9448
   34MOL   H180 8166   6.613   6.910   3.467 -1.0201  1.3744  1.3581
   34MOL   H181 8167   6.493   6.785   3.410 -0.9389 -0.7940  0.9659
   34MOL   C182 8168   6.564   7.060   3.059 -0.1900  0.0127 -0.2500
   34MOL   C183 8169   6.711   7.018   3.038 -0.7417 -0.0475  0.7878
   34MOL   C184 8170   6.804   7.140   3.009  0.0299 -0.4488 -0.5393
   34MOL   O185 8171   6.749   7.244   2.961 -0.5487 -0.2428 -0.2920
   34MOL   O186 8172   6.925   7.134   3.054  0.4806  0.0102 -0.1698
   34MOL   C187 8173   7.012   7.243   3.028  0.5058 -0.7673 -0.4965
   34MOL   H188 8174   6.501   6.971   3.059 -2.2314  1.4239  0.4091
   34MOL   H189 8175   6.545   7.109   2.964 -0.6873 -1.2880 -0.8319
   34MOL   H190 8176   6.717   6.980   2.936  4.9689 -0.9349  1.2737
   34MOL   H191 8177   7.017   7.272   2.923  2.2251  2.8740  0.5113
   34MOL   H192 8178   7.107   7.201   3.063 -1.3228 -3.7437  1.0947
   34MOL   H193 8179   6.990   7.340   3.072  2.1049 -1.5142  2.0888
   34MOL   C194 8180   6.789   6.921   3.133  0.1907 -0.0742  0.2079
   34MOL   C195 8181   6.890   6.827   3.066  0.3358 -0.5349 -0.3743
   34MOL   C196 8182   6.960   6.727   3.164  0.5299 -0.4342 -0.1893
   34MOL   O197 8183   6.918   6.697   3.276  0.0784 -0.1177  0.3940
   34MOL   O198 8184   7.073   6.676   3.118 -0.1188  0.1243 -0.1698
   34MOL   C199 8185   7.145   6.580   3.193 -0.5728 -0.3977 -1.1541
   34MOL   H200 8186   6.828   6.971   3.222 -1.4057 -0.2710  1.0286
   34MOL   H201 8187   6.717   6.853   3.179  2.0477 -0.7907  2.1755
   34MOL   H202 8188   6.971   6.895   3.040 -0.8346  2.0202  2.3048
   34MOL   H203 8189   7.075   6.521   3.253 -0.2273 -0.8588 -1.1953
   34MOL   H204 8190   7.214   6.628   3.263 -0.4124 -3.9086  1.2258
   34MOL   H205 8191   7.200   6.510   3.130  1.1415 -1.0497  0.9774
   34MOL   C206 8192   6.837   6.761   2.937 -0.0571  0.2758 -0.2927
   34MOL   C207 8193   6.887   6.818   2.805  0.4810 -0.6511 -0.4968
   34MOL   C208 8194   7.033   6.762   2.785 -0.1975 -0.1437 -0.0290
   34MOL   O209 8195   7.130   6.830   2.825 -0.0997  0.6524  0.1382
   34MOL   O210 8196   7.038   6.639   2.725  0.1635  0.5290 -0.4783
   34MOL   C211 8197   7.158   6.574   2.700 -0.0207 -0.4954 -0.0358
   34MOL   H212 8198   6.874   6.658   2.936  0.2072  0.3737 -1.2926
   34MOL   H213 8199   6.728   6.764   2.943  0.0209 -0.7137  2.0515
   34MOL   H214 8200   6.908   6.925   2.817  2.5454 -1.1902  1.0053
   34MOL   H215 8201   7.222   6.622   2.626 -0.1414 -1.2538 -0.6311
   34MOL   H216 8202   7.134   6.478   2.656 -0.8960 -1.0403  1.5951
   34MOL   H217 8203   7.213   6.566   2.794  0.0310  1.2414  0.0992
   34MOL   C218 8204   6.790   6.797   2.691 -0.6486  0.1991  0.6504
   34MOL   C219 8205   6.722   6.928   2.644 -0.1902 -0.4031  1.1772
   34MOL   C220 8206   6.817   7.025   2.564  0.1923 -0.1790 -0.9941
   34MOL   O221 8207   6.936   7.005   2.542 -0.3909 -0.1886 -0.1897
   34MOL   O222 8208   6.765   7.151   2.548 -0.1296 -0.1104 -0.5425
   34MOL   C223 8209   6.847   7.252   2.502 -0.3022  0.1863  0.2317
   34MOL   H224 8210   6.834   6.752   2.602 -1.3122  0.6038  0.1165
   34MOL   H225 8211   6.711   6.728   2.719  1.1989 -2.2841 -0.1303
   34MOL   H226 8212   6.701   6.988   2.731 -1.0684  0.6418  0.2552
   34MOL   H227 8213   6.830   7.347   2.554 -1.1988 -0.1528  0.5642
   34MOL   H228 8214   6.824   7.260   2.396 -0.1287  2.6078  0.3429
   34MOL   H229 8215   6.953   7.228   2.514  0.4617  1.9875 -2.3807
   34MOL   C230 8216   6.583   6.907   2.577 -0.1986  0.9746  0.6385
   34MOL   C231 8217   6.580   6.783   2.476 -0.1164  0.2958  0.0258
   34MOL   C232 8218   6.609   6.809   2.328  0.3668  0.3905 -0.0976
   34MOL   O233 8219   6.687   6.748   2.266  0.8533  0.2998  0.2101
   34MOL   O234 8220   6.518   6.908   2.278 -0.2807  0.8153 -0.1587
   34MOL   C235 8221   6.541   6.955   2.148 -0.0519 -0.5627 -0.0361
   34MOL   H236 8222   6.507   6.898   2.654  0.0274  1.2492  0.8925
   34MOL   H237 8223   6.539   6.998   2.537 -3.4172 -1.0009 -0.4844
   34MOL   H238 8224   6.476   6.752   2.472 -0.0964  0.4273 -1.7526
   34MOL   H239 8225   6.525   6.866   2.086  1.3382 -1.3875  0.7552
   34MOL   H240 8226   6.640   6.995   2.130 -0.1663 -0.1610  0.2147
   34MOL   H241 8227   6.464   7.028   2.122 -0.7061 -1.3709 -0.3927
   34MOL   H242 8228   6.634   6.694   2.508 -0.7954  0.7439  2.5522
   35MOL     C1 8229   0.723   0.167   4.565  0.4545  0.5951 -0.4442
   35MOL     C2 8230   0.765   0.253   4.688  0.7337  0.5086  0.7713
   35MOL     C3 8231   0.916   0.234   4.696 -0.1001 -0.2029  0.2448
   35MOL     O4 8232   0.965   0.171   4.788  0.0200  0.1544  0.2708
   35MOL     O5 8233   0.979   0.298   4.595  0.3159  0.2879 -0.3497
   35MOL     C6 8234   1.121   0.310   4.586 -0.7002  0.1179  0.0985
   35MOL     H7 8235   0.615   0.163   4.559  0.4570  0.4003 -0.3659
   35MOL     H8 8236   0.763   0.066   4.575  0.1887  0.4451 -0.9024
   35MOL     H9 8237   0.719   0.192   4.765  0.6601 -0.0801  0.2720
   35MOL    H10 8238   1.174   0.230   4.638  1.2341 -0.4103 -2.6014
   35MOL    H11 8239   1.153   0.397   4.643 -1.4961  0.3251  0.2403
   35MOL    H12 8240   1.152   0.313   4.482 -0.6956 -1.2265  0.0401
   35MOL    H13 8241   0.767   0.189   4.468 -1.9291  2.4957 -1.1379
   35MOL    C14 8242   0.707   0.401   4.670 -0.0479  0.4495  0.1570
   35MOL    C15 8243   0.675   0.477   4.796  0.3513 -0.0237  0.2994
   35MOL    C16 8244   0.793   0.476   4.901  0.6708 -0.1716 -0.0118
   35MOL    O17 8245   0.782   0.425   5.015  0.0788 -0.2376  0.0688
   35MOL    O18 8246   0.903   0.534   4.860  0.4798  0.6939 -0.3118
   35MOL    C19 8247   1.023   0.533   4.943  0.5034 -0.3709  0.0046
   35MOL    H20 8248   0.784   0.458   4.618 -1.6553 -0.6697 -3.5570
   35MOL    H21 8249   0.622   0.399   4.603  1.8296  1.0478 -2.3513
   35MOL    H22 8250   0.587   0.441   4.849  2.4025 -0.7984  3.3121
   35MOL    H23 8251   1.050   0.638   4.951  1.0193 -0.4799 -0.2739
   35MOL    H24 8252   1.112   0.482   4.904  1.1027  1.5397 -1.2037
   35MOL    H25 8253   1.012   0.480   5.038  3.7893  0.0957  0.7147
   35MOL    C26 8254   0.647   0.627   4.759 -0.6653 -0.4365  0.1215
   35MOL    C27 8255   0.510   0.642   4.688  0.0980 -0.1999 -0.4215
   35MOL    C28 8256   0.393   0.604   4.787  0.9702  0.9493  0.0220
   35MOL    O29 8257   0.411   0.596   4.909  0.7045  0.7281  0.5656
   35MOL    O30 8258   0.279   0.577   4.726 -0.5198 -0.2994  0.4456
   35MOL    C31 8259   0.169   0.536   4.802  0.0632 -0.4090  0.1855
   35MOL    H32 8260   0.645   0.691   4.847  1.9988 -0.4295  0.2002
   35MOL    H33 8261   0.728   0.665   4.698 -0.6993  0.2819  0.5247
   35MOL    H34 8262   0.514   0.583   4.596  1.4588 -1.8280  0.6555
   35MOL    H35 8263   0.141   0.610   4.877 -1.0144 -1.8960  1.2637
   35MOL    H36 8264   0.193   0.447   4.861  1.7576 -0.2272 -0.1994
   35MOL    H37 8265   0.082   0.514   4.740  0.6551 -1.4696 -0.2734
   35MOL    C38 8266   0.488   0.792   4.640  0.0311 -0.7091 -0.0394
   35MOL    C39 8267   0.581   0.837   4.522  0.6281  0.4118  0.0902
   35MOL    C40 8268   0.560   0.766   4.393  0.4178 -0.1323 -0.2491
   35MOL    O41 8269   0.643   0.691   4.345 -0.1066 -0.1273  0.4541
   35MOL    O42 8270   0.440   0.793   4.344 -0.7079  0.7751 -0.0845
   35MOL    C43 8271   0.409   0.740   4.214  0.0596  0.3040  0.4068
   35MOL    H44 8272   0.384   0.818   4.622  0.5313 -0.4473 -2.7959
   35MOL    H45 8273   0.517   0.856   4.723  2.2242 -4.0138  1.8956
   35MOL    H46 8274   0.683   0.823   4.558  0.2655  1.0057  1.3906
   35MOL    H47 8275   0.303   0.732   4.189 -0.7835 -1.6752  4.1777
   35MOL    H48 8276   0.446   0.638   4.202  3.3799  1.6816 -1.9620
   35MOL    H49 8277   0.456   0.806   4.141 -2.0954  2.8776  1.2461
   35MOL    C50 8278   0.564   0.989   4.501  0.0155 -0.2458 -0.4386
   35MOL    C51 8279   0.677   1.083   4.544  0.4874 -0.3208 -0.2115
   35MOL    C52 8280   0.716   1.067   4.692  0.7840 -0.3603 -0.7062
   35MOL    O53 8281   0.799   0.980   4.729 -0.0562  0.6152 -0.0074
   35MOL    O54 8282   0.645   1.143   4.778 -0.5042  0.1641  0.2859
   35MOL    C55 8283   0.646   1.111   4.913 -0.4845  0.1687 -0.0274
   35MOL    H56 8284   0.548   1.021   4.398 -0.0098 -1.7576 -0.9130
   35MOL    H57 8285   0.470   1.024   4.545 -1.5741 -1.5982 -2.6288
   35MOL    H58 8286   0.651   1.188   4.543 -3.8291 -1.2163  3.7827
   35MOL    H59 8287   0.575   1.184   4.952 -0.8748  1.1182 -2.4429
   35MOL    H60 8288   0.736   1.134   4.970 -0.7891 -0.2643  0.6369
   35MOL    H61 8289   0.602   1.014   4.936  1.8908 -0.1384  3.5663
   35MOL    C62 8290   0.800   1.058   4.451 -0.2942  0.2518  0.2651
   35MOL    C63 8291   0.787   1.087   4.298  0.2724  0.1999 -0.4087
   35MOL    C64 8292   0.737   1.225   4.263 -0.0554  0.2719  0.3224
   35MOL    O65 8293   0.727   1.314   4.345 -0.0377  0.2775 -0.7108
   35MOL    O66 8294   0.704   1.237   4.131  0.0703  0.4905  0.6254
   35MOL    C67 8295   0.667   1.364   4.084 -0.1193 -0.3320 -0.0367
   35MOL    H68 8296   0.889   1.109   4.489  0.7284 -1.1560 -0.1902
   35MOL    H69 8297   0.828   0.953   4.467  0.3078 -0.0063 -2.3033
   35MOL    H70 8298   0.726   1.007   4.255 -1.3985  1.5225 -0.5393
   35MOL    H71 8299   0.640   1.348   3.980  0.2525 -1.5688  0.0454
   35MOL    H72 8300   0.747   1.434   4.108 -0.5667  0.4112 -0.6936
   35MOL    H73 8301   0.576   1.386   4.139  1.2901  1.0864  1.8015
   35MOL    C74 8302   0.925   1.060   4.229  0.6425  0.5048 -0.0931
   35MOL    C75 8303   0.923   0.914   4.168  0.2841 -0.6985 -0.5775
   35MOL    C76 8304   0.869   0.922   4.026  0.0847 -0.6299 -0.3386
   35MOL    O77 8305   0.948   0.926   3.928 -0.7951 -0.0024 -0.2651
   35MOL    O78 8306   0.744   0.954   4.014 -0.0307  0.2460  0.2677
   35MOL    C79 8307   0.682   0.998   3.898  0.0538 -0.0353  0.0354
   35MOL    H80 8308   0.946   1.129   4.148 -0.3835  0.2986 -0.5469
   35MOL    H81 8309   1.013   1.078   4.290  1.1364 -0.4076 -0.5342
   35MOL    H82 8310   0.839   0.864   4.217 -1.3526 -0.4034 -2.9805
   35MOL    H83 8311   0.699   0.931   3.813  2.5354  1.0725 -0.4073
   35MOL    H84 8312   0.723   1.097   3.878 -1.9096  0.3795 -2.1556
   35MOL    H85 8313   0.577   1.018   3.919 -0.5481 -2.9573  0.0101
   35MOL    C86 8314   1.063   0.847   4.170  0.2959 -0.3087 -0.2214
   35MOL    C87 8315   1.096   0.786   4.312 -0.5698  0.8805 -0.4065
   35MOL    C88 8316   1.001   0.675   4.355  0.0984  0.4461  0.1128
   35MOL    O89 8317   0.954   0.659   4.468 -0.2881 -0.0442  0.2056
   35MOL    O90 8318   0.992   0.581   4.258 -0.0910  0.0080  0.2224
   35MOL    C91 8319   0.920   0.461   4.275 -0.0853 -0.2290  0.0254
   35MOL    H92 8320   1.077   0.771   4.093 -0.1727  0.2146 -0.8213
   35MOL    H93 8321   1.139   0.922   4.147 -1.7227  1.8232 -0.0956
   35MOL    H94 8322   1.091   0.880   4.368  0.6487  0.9220 -0.3524
   35MOL    H95 8323   0.977   0.380   4.320  0.6179 -0.5054 -1.3622
   35MOL    H96 8324   0.879   0.432   4.179  0.6897  1.9895 -1.0162
   35MOL    H97 8325   0.843   0.479   4.350  0.1629  1.2118 -0.0501
   35MOL    C98 8326   1.242   0.728   4.307 -0.6865  0.5970 -0.4462
   35MOL    C99 8327   1.338   0.824   4.384  0.1102  0.5950 -0.3917
   35MOL   C100 8328   1.423   0.743   4.496 -0.5550  0.5343 -0.3165
   35MOL   O101 8329   1.549   0.733   4.487 -0.2632 -0.2038  0.3181
   35MOL   O102 8330   1.346   0.690   4.589 -0.8784  0.3004  0.4361
   35MOL   C103 8331   1.398   0.619   4.701 -0.5203  0.1866 -0.2025
   35MOL   H104 8332   1.235   0.634   4.362  1.5444  0.1068 -0.9791
   35MOL   H105 8333   1.278   0.698   4.209 -1.8462 -3.9936  0.4242
   35MOL   H106 8334   1.282   0.896   4.444 -0.4461 -0.1918  0.0488
   35MOL   H107 8335   1.483   0.683   4.725  0.7353 -1.5797  0.1693
   35MOL   H108 8336   1.425   0.520   4.665 -1.8048  0.4657 -1.9594
   35MOL   H109 8337   1.326   0.616   4.783 -0.3202 -1.7495 -0.0608
   35MOL   C110 8338   1.424   0.917   4.295  0.4951  0.1764 -0.0391
   35MOL   C111 8339   1.365   1.057   4.261 -0.0001 -0.3839  0.1969
   35MOL   C112 8340   1.366   1.155   4.383  0.0573 -0.1445  0.3750
   35MOL   O113 8341   1.259   1.211   4.414 -0.7259  0.5910 -0.4768
   35MOL   O114 8342   1.486   1.153   4.442 -0.4846 -0.0702  0.8118
   35MOL   C115 8343   1.506   1.229   4.559  0.7084  0.5866 -0.5791
   35MOL   H116 8344   1.514   0.939   4.351 -1.5181  3.4544  2.0428
   35MOL   H117 8345   1.449   0.863   4.203 -0.4418  1.5045 -1.0800
   35MOL   H118 8346   1.259   1.044   4.241  0.0738  1.1268 -1.3102
   35MOL   H119 8347   1.585   1.180   4.617 -0.8413 -0.6671  0.5315
   35MOL   H120 8348   1.413   1.225   4.616  0.7081 -1.2774 -0.6701
   35MOL   H121 8349   1.539   1.328   4.527 -1.1273  1.2802 -0.3884
   35MOL   C122 8350   1.428   1.118   4.134 -0.0101 -0.6214  0.4517
   35MOL   C123 8351   1.344   1.110   4.004 -0.4281 -0.5087 -0.1016
   35MOL   C124 8352   1.270   1.246   3.976  0.5256 -0.4518 -0.7687
   35MOL   O125 8353   1.313   1.325   3.899  0.0687 -0.0409 -0.2295
   35MOL   O126 8354   1.165   1.255   4.054  0.8614  0.3894  0.0343
   35MOL   C127 8355   1.093   1.376   4.061  0.0665 -0.5481  0.0792
   35MOL   H128 8356   1.464   1.220   4.150 -0.7132 -0.5541  1.6123
   35MOL   H129 8357   1.522   1.067   4.113  1.0696  1.1872  0.6909
   35MOL   H130 8358   1.266   1.035   4.008 -1.7590  0.8374 -0.2722
   35MOL   H131 8359   0.985   1.365   4.070 -0.1024  1.2208  0.3155
   35MOL   H132 8360   1.114   1.433   3.971  0.6517 -1.4752 -0.3833
   35MOL   H133 8361   1.126   1.433   4.148  0.3441  0.2690 -0.5597
   35MOL   C134 8362   1.443   1.077   3.886 -0.6544  0.8442  0.4324
   35MOL   C135 8363   1.514   0.938   3.890 -0.1741 -0.6185  0.2087
   35MOL   C136 8364   1.411   0.827   3.890 -0.5994 -0.3619 -0.3070
   35MOL   O137 8365   1.421   0.731   3.963 -0.5434 -0.3731  0.3864
   35MOL   O138 8366   1.313   0.848   3.803  0.5753 -0.1610 -0.1371
   35MOL   C139 8367   1.198   0.759   3.803  0.0349  0.7611  0.3159
   35MOL   H140 8368   1.398   1.097   3.788 -1.6934 -1.8456  0.3317
   35MOL   H141 8369   1.529   1.144   3.894 -0.6293  0.5680  2.8285
   35MOL   H142 8370   1.568   0.908   3.981  0.0214  2.1241  1.0302
   35MOL   H143 8371   1.118   0.800   3.742  1.8269  3.1056 -0.5308
   35MOL   H144 8372   1.156   0.735   3.900 -0.8223 -2.0560 -0.6916
   35MOL   H145 8373   1.232   0.668   3.752 -0.6568 -0.0097  1.2044
   35MOL   C146 8374   1.626   0.920   3.780  0.0149  0.1534  0.1246
   35MOL   C147 8375   1.702   0.778   3.783 -0.0243  0.4769 -0.0337
   35MOL   C148 8376   1.673   0.702   3.656  0.4193 -0.2670  0.2830
   35MOL   O149 8377   1.745   0.715   3.554 -0.0864 -1.2331  0.5968
   35MOL   O150 8378   1.566   0.621   3.660 -0.0838  0.0086  0.3928
   35MOL   C151 8379   1.500   0.588   3.538  0.6109  0.2096  0.1452
   35MOL   H152 8380   1.586   0.939   3.681  1.8782 -1.4636 -0.9616
   35MOL   H153 8381   1.698   1.002   3.791  1.0544 -0.8325  0.8648
   35MOL   H154 8382   1.646   0.718   3.855 -0.6994 -0.1301 -1.0548
   35MOL   H155 8383   1.433   0.503   3.550 -0.9673  1.5150  0.7273
   35MOL   H156 8384   1.571   0.547   3.466 -0.5075 -1.9606  0.2321
   35MOL   H157 8385   1.448   0.670   3.488  0.0835  0.0169  0.3741
   35MOL   C158 8386   1.855   0.797   3.804 -0.1190 -0.0574  0.4106
   35MOL   C159 8387   1.899   0.861   3.944 -0.4036 -0.6403 -0.3537
   35MOL   C160 8388   1.853   0.798   4.076  0.5373 -0.4401  0.0039
   35MOL   O161 8389   1.831   0.676   4.077  0.4910  0.1009 -0.2677
   35MOL   O162 8390   1.824   0.888   4.180  0.0564  0.1563  0.0045
   35MOL   C163 8391   1.769   0.832   4.300  0.5307  0.5832 -0.3479
   35MOL   H164 8392   1.907   0.702   3.790 -0.0399  0.1523 -0.7304
   35MOL   H165 8393   1.886   0.862   3.722  0.1368  0.3322  0.8108
   35MOL   H166 8394   1.874   0.967   3.946 -0.9401 -0.7756  0.0201
   35MOL   H167 8395   1.732   0.914   4.361  1.2004  1.0287 -0.5341
   35MOL   H168 8396   1.862   0.794   4.344  0.0608  0.4227  0.5118
   35MOL   H169 8397   1.693   0.755   4.290  0.8005  0.2615  0.0274
   35MOL   C170 8398   2.054   0.867   3.935  0.3559  0.2682 -0.5612
   35MOL   C171 8399   2.122   0.971   4.028 -0.2134 -0.1029  0.0428
   35MOL   C172 8400   2.171   0.915   4.161 -0.0791  0.1687 -0.1345
   35MOL   O173 8401   2.279   0.860   4.174 -0.1596 -0.2923 -0.5126
   35MOL   O174 8402   2.088   0.943   4.263 -0.4668  0.5619 -0.3268
   35MOL   C175 8403   2.115   0.888   4.395 -0.6827 -0.1608 -0.8761
   35MOL   H176 8404   2.088   0.764   3.950 -0.0291  0.0469 -1.1525
   35MOL   H177 8405   2.095   0.888   3.836  2.4828 -0.0653  0.2237
   35MOL   H178 8406   2.047   1.049   4.041 -0.0893  0.5270 -2.7576
   35MOL   H179 8407   2.071   0.947   4.475 -1.3813 -2.2539  0.3127
   35MOL   H180 8408   2.222   0.878   4.415 -1.0101 -1.1075  0.4638
   35MOL   H181 8409   2.061   0.795   4.412 -0.5675 -0.2554 -1.0224
   35MOL   C182 8410   2.241   1.041   3.962 -0.4462  0.0502  0.1249
   35MOL   C183 8411   2.321   1.141   4.050  0.4051  0.3529 -0.1547
   35MOL   C184 8412   2.430   1.213   3.973 -0.0676 -0.0295 -0.4127
   35MOL   O185 8413   2.437   1.209   3.850 -0.3636  0.1607 -0.0817
   35MOL   O186 8414   2.514   1.279   4.050  0.5590 -0.2529 -0.2807
   35MOL   C187 8415   2.613   1.376   4.005  0.5633  0.4471 -0.0880
   35MOL   H188 8416   2.308   0.968   3.916 -0.7792 -1.2376  1.6153
   35MOL   H189 8417   2.211   1.107   3.881 -0.7914  0.9292  0.9599
   35MOL   H190 8418   2.365   1.084   4.132 -0.8613 -0.3570  0.0431
   35MOL   H191 8419   2.670   1.409   4.092  0.5497 -2.7420  1.2266
   35MOL   H192 8420   2.561   1.449   3.944  1.5402  2.1113  1.0563
   35MOL   H193 8421   2.681   1.310   3.950 -0.1568 -2.4519  2.3141
   35MOL   C194 8422   2.230   1.242   4.124 -0.2748 -1.0854  0.5151
   35MOL   C195 8423   2.291   1.306   4.257 -0.4502 -0.2129  0.3431
   35MOL   C196 8424   2.220   1.433   4.287  0.3263  0.0061  0.7227
   35MOL   O197 8425   2.128   1.442   4.362  0.0867  0.0524  0.0157
   35MOL   O198 8426   2.263   1.528   4.206 -0.0175  0.2331  0.6157
   35MOL   C199 8427   2.201   1.651   4.213 -0.7863 -0.4895  0.4456
   35MOL   H200 8428   2.211   1.326   4.057  1.9495  0.3715  1.6216
   35MOL   H201 8429   2.133   1.201   4.151 -0.9977 -0.1145 -0.6024
   35MOL   H202 8430   2.395   1.336   4.243  0.0559 -1.9891  0.2053
   35MOL   H203 8431   2.237   1.714   4.131  0.5487 -1.6754  0.1043
   35MOL   H204 8432   2.233   1.703   4.303  0.6693 -1.3950  0.4540
   35MOL   H205 8433   2.092   1.649   4.210 -0.8952  1.6232  1.9437
   35MOL   C206 8434   2.281   1.211   4.376  0.4950  0.6325  0.6560
   35MOL   C207 8435   2.359   1.271   4.499  0.3844 -0.6623 -0.2830
   35MOL   C208 8436   2.296   1.209   4.620  0.1212  0.2392 -0.8534
   35MOL   O209 8437   2.349   1.113   4.680 -0.6796 -0.4531 -0.2573
   35MOL   O210 8438   2.178   1.265   4.648 -0.6636 -0.5357 -0.3301
   35MOL   C211 8439   2.076   1.206   4.739 -0.2023  0.0916  0.3153
   35MOL   H212 8440   2.177   1.191   4.400  0.8563 -1.9686  0.1836
   35MOL   H213 8441   2.327   1.115   4.354  0.2831  1.1698 -2.3529
   35MOL   H214 8442   2.341   1.374   4.529  0.7817 -0.8573  0.6669
   35MOL   H215 8443   2.037   1.115   4.694 -2.3066  1.0043  0.2128
   35MOL   H216 8444   1.997   1.281   4.743  0.1412  0.5591 -1.2312
   35MOL   H217 8445   2.123   1.192   4.837 -2.0340  0.7045  1.3067
   35MOL   C218 8446   2.512   1.249   4.482  1.0256 -0.6672  0.7975
   35MOL   C219 8447   2.602   1.355   4.535 -0.7536  0.5305 -0.0621
   35MOL   C220 8448   2.626   1.478   4.439  0.3752 -0.4256  1.0993
   35MOL   O221 8449   2.559   1.492   4.335 -0.1527 -0.3055 -0.3360
   35MOL   O222 8450   2.722   1.562   4.483  0.2178  0.6111  0.4788
   35MOL   C223 8451   2.740   1.684   4.426 -1.1572  0.0294  0.3207
   35MOL   H224 8452   2.547   1.156   4.527  3.0998 -1.1220 -1.6374
   35MOL   H225 8453   2.526   1.223   4.377 -1.7567 -1.8218  0.6633
   35MOL   H226 8454   2.702   1.312   4.541 -0.9298 -0.0977 -1.4379
   35MOL   H227 8455   2.651   1.744   4.447 -1.0448 -0.1978  1.5020
   35MOL   H228 8456   2.783   1.687   4.326  1.7912 -2.0055  1.4372
   35MOL   H229 8457   2.816   1.737   4.483 -0.2166 -0.7727 -0.1683
   35MOL   C230 8458   2.560   1.411   4.676 -0.6709  0.3228 -0.3013
   35MOL   C231 8459   2.605   1.312   4.781  0.1807  0.2221 -0.3217
   35MOL   C232 8460   2.532   1.339   4.912 -0.8624  0.7448  0.1843
   35MOL   O233 8461   2.465   1.254   4.967 -0.1375  0.1694 -0.4070
   35MOL   O234 8462   2.560   1.465   4.955  0.3560 -0.6951 -0.4538
   35MOL   C235 8463   2.508   1.526   5.071  0.6494 -0.3578  0.2517
   35MOL   H236 8464   2.612   1.506   4.688  2.4787 -1.5620  1.6713
   35MOL   H237 8465   2.453   1.432   4.678 -0.5160  1.1383 -0.4392
   35MOL   H238 8466   2.713   1.322   4.785  0.1589  0.1371  0.6211
   35MOL   H239 8467   2.488   1.448   5.146  0.2246 -1.3331 -0.8629
   35MOL   H240 8468   2.418   1.586   5.057  0.0021 -1.3164  0.2427
   35MOL   H241 8469   2.587   1.591   5.109  1.6865 -2.2415  1.3841
   35MOL   H242 8470   2.576   1.209   4.761 -0.6660 -0.2211  2.7837
   36MOL     C1 8471   6.669   3.213   3.985  0.3276  0.0568 -0.2112
   36MOL     C2 8472   6.559   3.200   3.872 -0.3115  0.6106 -0.2038
   36MOL     C3 8473   6.566   3.295   3.751  0.4499 -0.2649  0.1556
   36MOL     O4 8474   6.472   3.360   3.702 -0.2349  0.2413  0.5599
   36MOL     O5 8475   6.688   3.296   3.707  0.0081  0.1343 -0.0816
   36MOL     C6 8476   6.729   3.364   3.593 -0.3806 -0.1068 -0.0538
   36MOL     H7 8477   6.660   3.314   4.025 -0.3913 -0.1463  0.1524
   36MOL     H8 8478   6.775   3.193   3.972  0.1450 -0.4405 -0.9830
   36MOL     H9 8479   6.465   3.221   3.923  0.1449  0.1437  0.8604
   36MOL    H10 8480   6.713   3.468   3.622 -0.9111 -0.6104  1.4797
   36MOL    H11 8481   6.676   3.338   3.501 -0.0687 -1.2838  0.0959
   36MOL    H12 8482   6.836   3.353   3.579 -0.3302 -1.0819  1.0058
   36MOL    H13 8483   6.638   3.152   4.070 -1.4247  0.9718 -0.1697
   36MOL    C14 8484   6.549   3.051   3.826 -0.1857 -0.9484 -0.0442
   36MOL    C15 8485   6.474   2.965   3.941  0.0211 -1.0742 -0.1889
   36MOL    C16 8486   6.320   2.984   3.942 -0.0521 -0.0682 -0.0151
   36MOL    O17 8487   6.258   3.044   3.855  0.1379 -0.0511 -0.0140
   36MOL    O18 8488   6.263   2.935   4.057 -0.0165  0.1450  0.4338
   36MOL    C19 8489   6.125   2.939   4.082 -0.4118 -0.7018 -0.1286
   36MOL    H20 8490   6.495   3.046   3.732 -0.0090 -1.7982 -0.0967
   36MOL    H21 8491   6.648   3.011   3.806 -0.9910 -3.8581  1.5602
   36MOL    H22 8492   6.508   3.004   4.037 -0.5139 -1.0043 -0.0258
   36MOL    H23 8493   6.077   3.022   4.030 -0.4932  0.2174  1.4095
   36MOL    H24 8494   6.096   2.958   4.185 -1.0937 -0.0180 -0.4430
   36MOL    H25 8495   6.069   2.853   4.046  0.5980 -1.3769 -0.1048
   36MOL    C26 8496   6.504   2.816   3.947  0.0449 -0.1580  0.8451
   36MOL    C27 8497   6.655   2.776   3.964  0.3357 -0.2865  0.0836
   36MOL    C28 8498   6.729   2.859   4.067  0.4322 -0.0983 -0.0627
   36MOL    O29 8499   6.828   2.931   4.034  0.1238 -0.2550  0.1790
   36MOL    O30 8500   6.679   2.857   4.187 -0.0886 -0.6333  0.4451
   36MOL    C31 8501   6.729   2.942   4.294 -0.0014  0.1893  0.5654
   36MOL    H32 8502   6.454   2.776   4.035 -2.0412  2.6134  0.9635
   36MOL    H33 8503   6.451   2.768   3.864 -0.2641  0.5484  0.6333
   36MOL    H34 8504   6.697   2.788   3.865 -1.8049  3.8303 -0.4270
   36MOL    H35 8505   6.697   2.903   4.391 -2.9606 -0.5127 -0.6367
   36MOL    H36 8506   6.678   3.038   4.285  0.0609  0.1544 -0.1574
   36MOL    H37 8507   6.838   2.949   4.290 -0.0318 -0.0483 -0.7560
   36MOL    C38 8508   6.664   2.625   3.988  0.6742 -0.2153  0.0058
   36MOL    C39 8509   6.644   2.537   3.861  0.4299  0.0128  0.4256
   36MOL    C40 8510   6.755   2.544   3.756 -0.2955  0.6808  0.3456
   36MOL    O41 8511   6.841   2.458   3.742 -0.6665  0.0008  0.0993
   36MOL    O42 8512   6.765   2.669   3.695 -0.5471 -0.1867  0.6029
   36MOL    C43 8513   6.876   2.695   3.603 -1.1784  0.2086  0.2631
   36MOL    H44 8514   6.768   2.608   4.016  0.2421 -0.9026  1.2339
   36MOL    H45 8515   6.608   2.602   4.079 -1.3310  2.5017 -0.5102
   36MOL    H46 8516   6.547   2.570   3.824 -0.1097 -2.0698 -0.1102
   36MOL    H47 8517   6.876   2.626   3.519  1.6060 -0.3103  0.6184
   36MOL    H48 8518   6.975   2.697   3.649 -1.0043  0.6946 -0.1250
   36MOL    H49 8519   6.874   2.799   3.572 -0.3783  0.1830  0.0970
   36MOL    C50 8520   6.612   2.396   3.910 -0.8702 -0.3591 -0.2109
   36MOL    C51 8521   6.569   2.286   3.815 -0.3149 -0.4805 -0.9112
   36MOL    C52 8522   6.680   2.177   3.803  0.1583 -0.5158 -0.1933
   36MOL    O53 8523   6.721   2.143   3.694  0.0377  0.2097 -0.2111
   36MOL    O54 8524   6.724   2.132   3.918 -0.6258 -0.3535 -0.3239
   36MOL    C55 8525   6.823   2.031   3.929  0.1504 -0.0550  0.2859
   36MOL    H56 8526   6.699   2.357   3.963 -0.1770 -1.6769 -2.2665
   36MOL    H57 8527   6.533   2.411   3.985  0.6872  0.1373  1.3693
   36MOL    H58 8528   6.550   2.321   3.714  0.7738  2.0893 -0.2517
   36MOL    H59 8529   6.851   2.003   4.030  0.6348 -0.9035 -0.0833
   36MOL    H60 8530   6.912   2.060   3.872 -1.5111  1.7735 -1.4608
   36MOL    H61 8531   6.787   1.935   3.893  1.8404  0.3401 -2.6643
   36MOL    C62 8532   6.440   2.216   3.865  0.0057  0.0960  0.0719
   36MOL    C63 8533   6.305   2.270   3.801 -0.1014 -0.3392  0.0289
   36MOL    C64 8534   6.275   2.205   3.666 -0.3083  0.7524 -0.5021
   36MOL    O65 8535   6.323   2.253   3.559  0.0899 -0.2807  0.1555
   36MOL    O66 8536   6.203   2.087   3.673  0.1958  0.5290  0.1289
   36MOL    C67 8537   6.177   2.006   3.558  0.5353 -0.2177  0.2689
   36MOL    H68 8538   6.425   2.109   3.851  1.1316  0.1550 -1.7990
   36MOL    H69 8539   6.432   2.222   3.973 -1.3896  2.0384 -0.0979
   36MOL    H70 8540   6.315   2.375   3.773  0.4802 -0.5398 -0.5427
   36MOL    H71 8541   6.105   1.927   3.577 -0.9676  0.7633 -1.2053
   36MOL    H72 8542   6.258   1.965   3.498  0.8977  0.0618  0.5634
   36MOL    H73 8543   6.130   2.078   3.491  0.7689  2.8965  3.3374
   36MOL    C74 8544   6.188   2.262   3.901  0.4840  0.3855  0.3670
   36MOL    C75 8545   6.191   2.381   3.994 -0.4684  0.0525 -0.8520
   36MOL    C76 8546   6.129   2.506   3.930  0.7094  0.8447 -1.0385
   36MOL    O77 8547   6.195   2.609   3.912  0.2788  0.5655 -0.2171
   36MOL    O78 8548   5.995   2.494   3.898 -0.4466  0.2533  0.4764
   36MOL    C79 8549   5.912   2.604   3.880 -0.5286  0.0491  0.3529
   36MOL    H80 8550   6.089   2.263   3.854  0.4170 -3.3269  0.3401
   36MOL    H81 8551   6.191   2.159   3.935 -0.1151 -0.3157 -1.6367
   36MOL    H82 8552   6.294   2.415   4.006 -1.4723  2.7496  0.5678
   36MOL    H83 8553   5.951   2.684   3.815  2.4045 -1.6257 -0.0355
   36MOL    H84 8554   5.887   2.649   3.976  1.8070  0.4237  0.8077
   36MOL    H85 8555   5.813   2.571   3.847  0.1370 -1.8902  0.2367
   36MOL    C86 8556   6.132   2.350   4.134  0.2955  0.4760 -0.5611
   36MOL    C87 8557   6.146   2.469   4.237 -0.5718  0.2044 -0.1552
   36MOL    C88 8558   6.057   2.453   4.357 -0.0545  0.0341 -0.7120
   36MOL    O89 8559   6.058   2.352   4.423 -0.0168 -0.0815 -0.0818
   36MOL    O90 8560   5.983   2.567   4.383  0.0789 -0.0177  0.0265
   36MOL    C91 8561   5.919   2.572   4.506 -0.1717 -0.0841 -0.2685
   36MOL    H92 8562   6.024   2.338   4.121  0.1408  1.2175  0.0484
   36MOL    H93 8563   6.167   2.262   4.188 -1.2043  0.8496  1.0840
   36MOL    H94 8564   6.110   2.561   4.193  2.8638  1.6848 -0.0408
   36MOL    H95 8565   5.821   2.526   4.491  0.0923 -1.2889  1.5751
   36MOL    H96 8566   5.894   2.674   4.538 -0.0780  0.3583 -1.5758
   36MOL    H97 8567   5.979   2.532   4.588 -0.6255  1.8225  1.0270
   36MOL    C98 8568   6.296   2.483   4.281  0.2171  0.1765  0.5563
   36MOL    C99 8569   6.332   2.599   4.380  0.2308 -0.1577 -0.1467
   36MOL   C100 8570   6.477   2.584   4.425  0.2393 -0.6804 -0.2666
   36MOL   O101 8571   6.497   2.536   4.540  0.1269 -0.0323  0.3888
   36MOL   O102 8572   6.567   2.630   4.337 -0.7029  0.1957  0.9348
   36MOL   C103 8573   6.706   2.603   4.364  0.0469 -0.0755  0.3610
   36MOL   H104 8574   6.337   2.388   4.314  2.2338  0.3979 -1.1877
   36MOL   H105 8575   6.360   2.516   4.199  0.5002 -0.1892  0.6332
   36MOL   H106 8576   6.277   2.567   4.469 -0.2229 -1.9940 -1.0580
   36MOL   H107 8577   6.781   2.638   4.294  1.1232 -1.7172  0.6513
   36MOL   H108 8578   6.722   2.497   4.382 -0.5311 -0.2098  0.1049
   36MOL   H109 8579   6.726   2.665   4.452  2.3738 -0.9270  0.4502
   36MOL   C110 8580   6.292   2.743   4.344  0.4604  0.1952 -1.0313
   36MOL   C111 8581   6.294   2.855   4.457 -0.3863 -0.1587  0.5446
   36MOL   C112 8582   6.277   3.001   4.396 -0.0047  0.2098  0.5665
   36MOL   O113 8583   6.180   3.075   4.412  0.1932  0.8696 -0.0544
   36MOL   O114 8584   6.385   3.035   4.328 -0.0215  0.1581  0.6331
   36MOL   C115 8585   6.388   3.164   4.258  0.3105 -0.1483 -0.4225
   36MOL   H116 8586   6.353   2.780   4.263  1.0457 -2.4581 -1.8656
   36MOL   H117 8587   6.189   2.741   4.309  0.4888  0.8466 -1.1500
   36MOL   H118 8588   6.389   2.850   4.510 -1.1450  1.0965  2.0686
   36MOL   H119 8589   6.349   3.250   4.314 -2.2687 -0.5045 -1.5610
   36MOL   H120 8590   6.331   3.173   4.166 -0.9266 -0.0532  0.3329
   36MOL   H121 8591   6.489   3.188   4.227 -0.4770  3.8434 -0.1580
   36MOL   C122 8592   6.190   2.819   4.568 -0.0164  0.3318  0.9579
   36MOL   C123 8593   6.194   2.922   4.685 -0.2184  0.3432 -0.1200
   36MOL   C124 8594   6.067   2.900   4.770 -0.4309 -0.7121  0.9331
   36MOL   O125 8595   6.010   2.787   4.772  0.0091 -0.6353  0.1643
   36MOL   O126 8596   6.021   3.019   4.829  0.4663  0.1130  0.2045
   36MOL   C127 8597   5.916   3.009   4.916 -0.1600  0.3076 -0.1762
   36MOL   H128 8598   6.093   2.816   4.519  0.2946  0.9994  0.3001
   36MOL   H129 8599   6.205   2.718   4.606 -2.5519  0.5877  2.7946
   36MOL   H130 8600   6.194   3.022   4.640  1.1396  0.1834 -0.5040
   36MOL   H131 8601   5.922   3.092   4.987 -1.6225 -0.5491  0.9783
   36MOL   H132 8602   5.926   2.916   4.973 -2.1608  0.2169  0.0701
   36MOL   H133 8603   5.824   3.011   4.857  0.0106  1.3111 -0.4205
   36MOL   C134 8604   6.323   2.896   4.778  0.0740  0.9873 -0.7364
   36MOL   C135 8605   6.412   3.019   4.795 -0.2275 -0.3025  0.1081
   36MOL   C136 8606   6.442   3.055   4.943 -0.4451  0.4991  0.4178
   36MOL   O137 8607   6.552   3.058   4.989 -0.0820 -0.8003 -0.6146
   36MOL   O138 8608   6.332   3.087   5.005  0.3808 -0.2824  0.4918
   36MOL   C139 8609   6.346   3.138   5.141 -0.0732  0.0946 -0.6783
   36MOL   H140 8610   6.288   2.860   4.875  1.0331  0.0031 -0.7417
   36MOL   H141 8611   6.375   2.812   4.732  0.2448 -0.0932  1.3519
   36MOL   H142 8612   6.363   3.102   4.743 -0.6640 -0.3276  0.4836
   36MOL   H143 8613   6.385   3.062   5.208 -2.0223  0.2302  0.6553
   36MOL   H144 8614   6.245   3.165   5.173  0.7036  0.1749  1.7787
   36MOL   H145 8615   6.407   3.228   5.149  0.7991 -0.2030 -3.4827
   36MOL   C146 8616   6.545   2.993   4.721  0.4450  0.3224  0.2385
   36MOL   C147 8617   6.626   3.121   4.696 -0.0029  0.9612 -0.1469
   36MOL   C148 8618   6.775   3.094   4.712 -0.3678 -0.3144 -0.0213
   36MOL   O149 8619   6.846   3.159   4.794  0.9118 -0.4561 -0.1044
   36MOL   O150 8620   6.827   3.012   4.625  0.0786 -0.3198  0.1789
   36MOL   C151 8621   6.966   2.989   4.626  0.3758 -0.9120 -0.0581
   36MOL   H152 8622   6.602   2.918   4.777  1.0398 -0.2175 -1.0807
   36MOL   H153 8623   6.529   2.944   4.625  1.8274 -0.4312  0.3714
   36MOL   H154 8624   6.605   3.197   4.772  0.3545  2.3181 -1.3761
   36MOL   H155 8625   6.999   2.917   4.701 -0.5461 -1.2080  0.0663
   36MOL   H156 8626   7.025   3.080   4.636  0.0003 -0.5045 -1.4252
   36MOL   H157 8627   6.994   2.942   4.532  4.9018 -0.5268  0.9759
   36MOL   C158 8628   6.589   3.188   4.563  0.0902  0.1727 -0.2518
   36MOL   C159 8629   6.665   3.321   4.535 -0.1891 -0.2430 -0.1517
   36MOL   C160 8630   6.713   3.325   4.389  0.1694  0.7243 -0.0002
   36MOL   O161 8631   6.685   3.415   4.314 -0.9926 -0.1547 -0.2757
   36MOL   O162 8632   6.796   3.226   4.359  0.3272  0.0669  0.3490
   36MOL   C163 8633   6.885   3.231   4.253  0.3304 -0.4785 -0.3078
   36MOL   H164 8634   6.607   3.116   4.483  0.3810 -0.0567  0.0135
   36MOL   H165 8635   6.481   3.199   4.568  0.2031  0.6240  1.5085
   36MOL   H166 8636   6.763   3.336   4.580 -0.9037 -0.3362  1.4704
   36MOL   H167 8637   6.955   3.148   4.247  0.4888 -0.6321  2.8194
   36MOL   H168 8638   6.932   3.329   4.246  1.2914 -1.0153 -1.5309
   36MOL   H169 8639   6.845   3.218   4.153 -0.7398 -1.9425  0.2896
   36MOL   C170 8640   6.574   3.451   4.582 -0.1500  0.7972 -0.3165
   36MOL   C171 8641   6.525   3.451   4.729  0.4555 -0.4269  0.0274
   36MOL   C172 8642   6.643   3.473   4.829  0.2486 -0.4556  0.1977
   36MOL   O173 8643   6.723   3.563   4.813  0.5664 -0.8711  0.3524
   36MOL   O174 8644   6.648   3.376   4.922  0.1304  0.3963  0.2548
   36MOL   C175 8645   6.752   3.372   5.016 -1.1837  0.6192  1.1438
   36MOL   H176 8646   6.614   3.550   4.560  3.9156 -0.8501 -0.7076
   36MOL   H177 8647   6.492   3.428   4.513  2.6432 -2.6144 -2.6773
   36MOL   H178 8648   6.476   3.356   4.748  1.6504 -0.9763  0.3881
   36MOL   H179 8649   6.841   3.411   4.967 -2.0341 -1.6906 -2.4344
   36MOL   H180 8650   6.772   3.275   5.063  1.4720  0.1338 -0.8654
   36MOL   H181 8651   6.733   3.435   5.102  1.3710  2.5487  0.3666
   36MOL   C182 8652   6.417   3.558   4.747 -0.5793 -0.3321  0.4296
   36MOL   C183 8653   6.293   3.559   4.647 -0.3768 -0.5432  0.1738
   36MOL   C184 8654   6.215   3.436   4.671 -0.0916 -0.2527  0.2214
   36MOL   O185 8655   6.211   3.348   4.585  0.0206  0.3813  0.0271
   36MOL   O186 8656   6.162   3.424   4.791 -0.1379 -0.2016  0.3065
   36MOL   C187 8657   6.143   3.296   4.842  0.5179 -0.3634 -0.2752
   36MOL   H188 8658   6.392   3.567   4.853 -1.7089 -1.6470  0.2897
   36MOL   H189 8659   6.474   3.650   4.732 -1.9988  0.1910 -1.9235
   36MOL   H190 8660   6.334   3.560   4.546 -0.2108 -2.5916  0.2026
   36MOL   H191 8661   6.177   3.298   4.945  0.6177  0.3857 -0.3229
   36MOL   H192 8662   6.201   3.221   4.788  1.6010  0.1768  0.1368
   36MOL   H193 8663   6.037   3.279   4.822  0.5603  0.0771 -0.9045
   36MOL   C194 8664   6.219   3.688   4.661  0.6462  0.3085  0.3932
   36MOL   C195 8665   6.168   3.761   4.530  0.6793 -0.7629  0.0901
   36MOL   C196 8666   6.293   3.822   4.455  0.0641  0.2407 -0.7272
   36MOL   O197 8667   6.327   3.782   4.346  0.0741  0.6840  0.1359
   36MOL   O198 8668   6.341   3.934   4.521 -0.1505 -0.3317 -0.0249
   36MOL   C199 8669   6.447   4.009   4.458 -0.5424  0.1766 -0.5177
   36MOL   H200 8670   6.131   3.667   4.722 -0.9143  0.6648 -1.6501
   36MOL   H201 8671   6.276   3.759   4.720 -0.1871  1.7861 -0.5129
   36MOL   H202 8672   6.107   3.845   4.564  0.2319 -0.7094 -0.8428
   36MOL   H203 8673   6.416   4.092   4.394 -0.0534  0.8578  0.1307
   36MOL   H204 8674   6.511   3.932   4.414  1.5228  1.0082  0.9474
   36MOL   H205 8675   6.512   4.060   4.529 -4.0371  4.0674  0.1024
   36MOL   C206 8676   6.087   3.667   4.440 -0.4492  0.0478 -0.1456
   36MOL   C207 8677   5.954   3.612   4.503 -0.1294 -0.1017 -0.6461
   36MOL   C208 8678   5.845   3.723   4.536 -0.4251  0.1808 -0.2527
   36MOL   O209 8679   5.849   3.787   4.641  0.2406 -0.3890 -0.2876
   36MOL   O210 8680   5.759   3.739   4.439 -0.6197  0.6240  0.4378
   36MOL   C211 8681   5.652   3.831   4.442  0.0619 -0.0468 -0.0529
   36MOL   H212 8682   6.062   3.700   4.339 -1.1493  0.3864  0.1309
   36MOL   H213 8683   6.148   3.582   4.413  0.2419  0.8738 -1.2152
   36MOL   H214 8684   5.974   3.566   4.600 -0.1467 -1.3417 -1.2154
   36MOL   H215 8685   5.561   3.784   4.405 -0.4290 -0.7655  1.9863
   36MOL   H216 8686   5.672   3.918   4.379 -1.6818  0.7223  0.4234
   36MOL   H217 8687   5.628   3.847   4.547  0.6655 -3.1457  0.5936
   36MOL   C218 8688   5.902   3.475   4.434 -0.1325  0.0787 -0.5900
   36MOL   C219 8689   5.874   3.361   4.537  0.1535 -0.0899 -0.6098
   36MOL   C220 8690   5.762   3.402   4.631 -0.2420 -0.4702 -0.2044
   36MOL   O221 8691   5.784   3.427   4.750 -0.6467 -0.7667  0.2283
   36MOL   O222 8692   5.645   3.420   4.574  0.0895 -0.3888 -0.3859
   36MOL   C223 8693   5.529   3.427   4.656 -0.3012  0.0365  0.0740
   36MOL   H224 8694   5.812   3.496   4.376 -1.2102  0.1466  1.0625
   36MOL   H225 8695   5.973   3.440   4.360 -0.2167  1.2000 -1.2156
   36MOL   H226 8696   5.961   3.350   4.602 -1.5796 -0.7327  1.6412
   36MOL   H227 8697   5.520   3.531   4.686  0.3023  0.0081  0.3710
   36MOL   H228 8698   5.537   3.361   4.743 -0.3780  0.9929  0.8085
   36MOL   H229 8699   5.436   3.423   4.599 -0.7840  1.4584  0.7522
   36MOL   C230 8700   5.844   3.229   4.464  0.1584  0.4494 -0.0641
   36MOL   C231 8701   5.831   3.100   4.551 -0.3619  0.2618  0.6115
   36MOL   C232 8702   5.790   2.978   4.469 -0.1523  0.0748  0.4393
   36MOL   O233 8703   5.675   2.940   4.489  0.3686 -0.0046  0.1290
   36MOL   O234 8704   5.867   2.941   4.366 -0.2954  0.6397  0.1907
   36MOL   C235 8705   5.821   2.835   4.284  0.3672 -0.0881  0.7385
   36MOL   H236 8706   5.762   3.248   4.395  1.8501 -0.1532 -2.2946
   36MOL   H237 8707   5.930   3.212   4.400 -0.1657  0.0142 -0.3868
   36MOL   H238 8708   5.747   3.118   4.618  0.7048  1.0621  1.7475
   36MOL   H239 8709   5.908   2.804   4.225  0.1277 -1.2723  0.9869
   36MOL   H240 8710   5.741   2.858   4.213  1.2051 -0.1901 -0.2552
   36MOL   H241 8711   5.787   2.746   4.337 -0.8251 -0.6764 -0.9664
   36MOL   H242 8712   5.917   3.076   4.613 -0.4439  3.4989  2.0771
   37MOL     C1 8713   2.844   0.367   4.342 -0.2158  0.5713 -0.3614
   37MOL     C2 8714   2.821   0.504   4.281  0.0444  0.8004  1.2822
   37MOL     C3 8715   2.677   0.562   4.304 -0.4396 -0.0946  0.1663
   37MOL     O4 8716   2.624   0.563   4.416  0.5908  0.2992 -0.5914
   37MOL     O5 8717   2.621   0.605   4.191  0.0042  0.4350 -0.0995
   37MOL     C6 8718   2.481   0.613   4.190  0.3953 -0.3639 -0.4708
   37MOL     H7 8719   2.948   0.337   4.329  0.0843  0.5773  1.9351
   37MOL     H8 8720   2.771   0.300   4.296 -1.3578  2.7445 -1.8236
   37MOL     H9 8721   2.814   0.487   4.174  0.2104  0.9983  1.2389
   37MOL    H10 8722   2.446   0.649   4.287  2.3060 -1.7949  0.7885
   37MOL    H11 8723   2.427   0.523   4.160 -0.8601  0.6317 -1.2366
   37MOL    H12 8724   2.459   0.689   4.116  0.3671  0.8365  0.7558
   37MOL    H13 8725   2.824   0.376   4.449 -0.0226  1.0700 -0.3663
   37MOL    C14 8726   2.943   0.605   4.297 -0.1419 -0.1846  0.8449
   37MOL    C15 8727   2.968   0.679   4.430  0.1956  0.8774 -0.1817
   37MOL    C16 8728   3.003   0.576   4.544 -0.0953  0.6439  0.8744
   37MOL    O17 8729   3.058   0.469   4.522  0.0455  0.5113 -0.3202
   37MOL    O18 8730   2.981   0.617   4.672 -0.0002 -0.4409 -0.0948
   37MOL    C19 8731   3.022   0.540   4.779  0.8707  0.4542 -0.0182
   37MOL    H20 8732   3.035   0.559   4.262 -0.0234  2.1340 -2.1932
   37MOL    H21 8733   2.928   0.684   4.223 -1.3764 -1.0116  0.1907
   37MOL    H22 8734   2.880   0.730   4.469 -0.0410 -0.7652  1.5165
   37MOL    H23 8735   2.967   0.446   4.783 -0.2380  1.0884 -0.1274
   37MOL    H24 8736   2.999   0.591   4.872  3.9749  1.2175  0.3595
   37MOL    H25 8737   3.130   0.529   4.777  0.9479  1.2291 -0.0424
   37MOL    C26 8738   3.076   0.781   4.423 -0.4134 -0.0582 -0.4735
   37MOL    C27 8739   3.073   0.894   4.314 -0.1327 -0.4453 -0.3172
   37MOL    C28 8740   2.944   0.978   4.336  0.1860  0.0648 -0.4625
   37MOL    O29 8741   2.956   1.081   4.403  0.5345 -0.6504  0.7835
   37MOL    O30 8742   2.833   0.924   4.283 -0.1993  0.0140  0.0849
   37MOL    C31 8743   2.717   0.999   4.294  0.0074 -0.0034 -0.2324
   37MOL    H32 8744   3.067   0.823   4.524  1.5866 -2.1480  0.6111
   37MOL    H33 8745   3.173   0.733   4.413 -0.1758 -0.1975  2.0474
   37MOL    H34 8746   3.081   0.848   4.215 -0.9636 -0.4521 -0.3783
   37MOL    H35 8747   2.690   1.080   4.226 -0.3447  1.4040  1.5513
   37MOL    H36 8748   2.703   1.032   4.397  4.5231 -0.4233  0.6023
   37MOL    H37 8749   2.631   0.931   4.288 -0.2169  0.0491  1.9621
   37MOL    C38 8750   3.207   0.978   4.312 -0.5359 -0.6508 -0.0515
   37MOL    C39 8751   3.229   1.093   4.214  0.1620  0.1734  0.7457
   37MOL    C40 8752   3.378   1.144   4.213  0.0171 -0.7361  0.6674
   37MOL    O41 8753   3.410   1.266   4.212 -0.0089  0.3463  0.0841
   37MOL    O42 8754   3.474   1.041   4.204 -0.1190  0.0149 -0.3685
   37MOL    C43 8755   3.605   1.079   4.170  0.0911  0.1763 -0.4983
   37MOL    H44 8756   3.240   1.003   4.413 -1.0034 -1.2743  0.2575
   37MOL    H45 8757   3.285   0.908   4.284  0.1604  0.1812 -0.2259
   37MOL    H46 8758   3.160   1.171   4.246 -2.9472 -1.3345 -1.8983
   37MOL    H47 8759   3.609   1.164   4.103 -1.4557  0.8529  0.2542
   37MOL    H48 8760   3.660   1.001   4.118  0.5342  1.0169 -1.2949
   37MOL    H49 8761   3.663   1.093   4.262 -2.1610  1.1367  0.8138
   37MOL    C50 8762   3.187   1.044   4.070  0.1583  0.2421  0.6702
   37MOL    C51 8763   3.227   1.121   3.943 -0.3304 -0.2094  0.0917
   37MOL    C52 8764   3.201   1.044   3.818 -0.3527  0.3909  0.4051
   37MOL    O53 8765   3.286   1.014   3.738 -0.2928  0.6809 -0.1007
   37MOL    O54 8766   3.072   1.014   3.797 -0.1518  0.1340  0.6595
   37MOL    C55 8767   3.016   0.947   3.682 -0.2187  0.0289  0.6689
   37MOL    H56 8768   3.221   0.941   4.061  1.6829  0.9667 -2.2694
   37MOL    H57 8769   3.078   1.034   4.065  0.1589  0.6407 -0.1495
   37MOL    H58 8770   3.335   1.133   3.939 -0.4079  0.6980  0.6253
   37MOL    H59 8771   3.048   0.843   3.683 -0.4832 -0.0747 -0.7872
   37MOL    H60 8772   3.058   0.998   3.596  3.1245 -0.7613  1.7684
   37MOL    H61 8773   2.907   0.940   3.693 -0.1494  0.5347  1.6679
   37MOL    C62 8774   3.184   1.272   3.931 -0.6771  0.1976  0.3609
   37MOL    C63 8775   3.031   1.299   3.930  0.2520 -0.3301  0.2182
   37MOL    C64 8776   2.979   1.310   4.073  0.1274  0.2266  0.1638
   37MOL    O65 8777   2.900   1.226   4.121 -0.2919  0.1802  0.8445
   37MOL    O66 8778   3.016   1.427   4.130  0.6866 -0.3458  0.0008
   37MOL    C67 8779   2.969   1.444   4.262 -0.8278  0.5233  0.3577
   37MOL    H68 8780   3.224   1.330   4.014  0.4553 -1.1110  0.7481
   37MOL    H69 8781   3.241   1.315   3.848 -2.2537  0.1488 -0.7609
   37MOL    H70 8782   2.981   1.213   3.885 -0.3844 -1.2557  2.6178
   37MOL    H71 8783   2.985   1.352   4.318 -2.1461  0.2594  0.3273
   37MOL    H72 8784   2.867   1.482   4.257 -0.9325  0.0897 -1.1643
   37MOL    H73 8785   3.042   1.516   4.299  0.1005  0.4713 -1.2869
   37MOL    C74 8786   2.996   1.431   3.851 -0.2760 -0.1384 -0.3296
   37MOL    C75 8787   3.007   1.416   3.699 -0.1776 -0.1172  0.4378
   37MOL    C76 8788   2.882   1.334   3.641  0.7192  0.2117 -0.2446
   37MOL    O77 8789   2.896   1.218   3.610  0.0873 -0.7163 -0.3934
   37MOL    O78 8790   2.774   1.400   3.643  0.4922  0.0613  0.5968
   37MOL    C79 8791   2.651   1.342   3.600 -0.2973 -0.0920  0.7224
   37MOL    H80 8792   2.895   1.467   3.872  1.0975  3.5478  0.2825
   37MOL    H81 8793   3.061   1.513   3.884  1.2478 -1.5957  0.3698
   37MOL    H82 8794   3.085   1.349   3.664 -1.1038  0.7372 -3.4752
   37MOL    H83 8795   2.600   1.288   3.680 -1.0109 -2.8258 -1.5180
   37MOL    H84 8796   2.666   1.263   3.526 -0.2346 -0.8916  1.5738
   37MOL    H85 8797   2.593   1.426   3.564  4.8163  1.7935 -3.7900
   37MOL    C86 8798   3.023   1.549   3.619 -0.1270 -0.3607  0.4015
   37MOL    C87 8799   3.157   1.622   3.654 -0.1755  0.2673 -0.9081
   37MOL    C88 8800   3.270   1.567   3.569 -0.0282 -0.7597 -0.3377
   37MOL    O89 8801   3.347   1.483   3.611 -0.2791  0.3775 -0.2687
   37MOL    O90 8802   3.266   1.614   3.445 -0.1808 -0.2625 -0.1034
   37MOL    C91 8803   3.373   1.572   3.353  0.2717 -0.2832  0.0918
   37MOL    H92 8804   3.005   1.527   3.514  1.0910 -1.4735  0.4071
   37MOL    H93 8805   2.949   1.613   3.667 -0.3992  0.8309 -1.5558
   37MOL    H94 8806   3.195   1.600   3.754  1.6824  0.5445 -1.5294
   37MOL    H95 8807   3.471   1.608   3.385  1.0466 -0.2645 -2.1786
   37MOL    H96 8808   3.369   1.608   3.250  0.2718  0.9622  0.5088
   37MOL    H97 8809   3.366   1.464   3.344  1.2474 -0.3233 -0.2134
   37MOL    C98 8810   3.149   1.778   3.649  0.2581 -0.2791  0.1475
   37MOL    C99 8811   3.262   1.858   3.709 -0.3168  0.3723  0.6553
   37MOL   C100 8812   3.325   1.939   3.596 -1.4912  0.2013 -0.2716
   37MOL   O101 8813   3.288   2.052   3.570  0.3866  0.1710 -0.2123
   37MOL   O102 8814   3.412   1.873   3.519 -0.6178  0.2461  0.7946
   37MOL   C103 8815   3.450   1.931   3.389 -1.0673 -0.5762 -0.3023
   37MOL   H104 8816   3.129   1.812   3.547 -0.2788 -0.0388  0.3256
   37MOL   H105 8817   3.049   1.797   3.689 -0.0714 -0.1797 -0.6933
   37MOL   H106 8818   3.332   1.789   3.757  1.1058 -0.4277 -2.4458
   37MOL   H107 8819   3.456   2.040   3.391  0.5140 -0.6684  1.8916
   37MOL   H108 8820   3.379   1.892   3.316  0.7168 -1.7198 -1.4445
   37MOL   H109 8821   3.546   1.893   3.356 -0.4047 -2.2490  3.2491
   37MOL   C110 8822   3.225   1.931   3.842 -0.5975 -0.3786  0.0235
   37MOL   C111 8823   3.162   1.843   3.949 -0.4386  0.1116 -0.1553
   37MOL   C112 8824   3.272   1.748   4.015  0.4797  0.4285  0.5495
   37MOL   O113 8825   3.388   1.780   4.019  0.1272 -0.4793 -0.1541
   37MOL   O114 8826   3.220   1.646   4.083 -0.0592 -0.2333  0.1051
   37MOL   C115 8827   3.302   1.558   4.161  0.3011 -0.6329  0.0913
   37MOL   H116 8828   3.313   1.980   3.883 -0.8143  0.2205 -0.2270
   37MOL   H117 8829   3.155   2.009   3.814  1.3902  1.9878  1.4548
   37MOL   H118 8830   3.082   1.783   3.904 -2.3407  0.3090  2.7944
   37MOL   H119 8831   3.327   1.611   4.253 -0.2390  1.0440 -0.6977
   37MOL   H120 8832   3.396   1.535   4.111 -0.3904 -2.3121 -0.4658
   37MOL   H121 8833   3.250   1.468   4.193 -0.2519 -0.1747  0.5098
   37MOL   C122 8834   3.086   1.928   4.055  0.1948  0.1297 -0.3754
   37MOL   C123 8835   3.170   2.040   4.124  0.1695  0.2245 -0.1476
   37MOL   C124 8836   3.168   2.169   4.041  0.3796  0.7302  0.4491
   37MOL   O125 8837   3.266   2.217   3.986 -0.1772  0.3261 -0.9658
   37MOL   O126 8838   3.044   2.219   4.038 -0.3462 -0.0336 -0.0901
   37MOL   C127 8839   3.008   2.335   3.969 -0.6978  0.0958  1.0519
   37MOL   H128 8840   2.987   1.959   4.021 -1.1830 -1.2022  2.2362
   37MOL   H129 8841   3.042   1.859   4.128  1.3726 -0.5157 -0.2634
   37MOL   H130 8842   3.275   2.009   4.121 -0.2031 -1.2960  1.4807
   37MOL   H131 8843   3.058   2.414   4.024  0.7887 -0.5714  0.6918
   37MOL   H132 8844   2.901   2.350   3.955 -0.9555 -1.0228  1.7247
   37MOL   H133 8845   3.050   2.328   3.868 -0.2776 -0.9290  1.2866
   37MOL   C134 8846   3.124   2.071   4.265 -0.4001  0.0043 -0.4137
   37MOL   C135 8847   3.163   1.958   4.371 -0.6283  0.1879 -0.1853
   37MOL   C136 8848   3.322   1.952   4.369 -0.0266  0.1176 -0.1821
   37MOL   O137 8849   3.390   1.851   4.332  0.4693  1.0305 -0.3846
   37MOL   O138 8850   3.383   2.059   4.421 -0.9002  0.5727 -0.0696
   37MOL   C139 8851   3.517   2.064   4.459 -0.1658  0.5313  0.2861
   37MOL   H140 8852   3.179   2.161   4.292 -0.9178  0.5831 -1.2493
   37MOL   H141 8853   3.017   2.092   4.271 -0.1726  1.0887  0.0543
   37MOL   H142 8854   3.121   1.862   4.339 -1.0448 -0.1047  1.1928
   37MOL   H143 8855   3.539   1.988   4.534 -0.5839  0.4812  0.3567
   37MOL   H144 8856   3.542   2.164   4.495 -0.2561  0.7511 -0.2558
   37MOL   H145 8857   3.560   2.050   4.360  1.1143  0.8227  0.7883
   37MOL   C146 8858   3.109   1.972   4.515  0.6559 -0.4301  0.3773
   37MOL   C147 8859   3.151   1.884   4.624  0.1568 -0.0328  0.1364
   37MOL   C148 8860   3.103   1.917   4.764  0.6494  0.3762  0.0310
   37MOL   O149 8861   2.985   1.891   4.793  0.1417  0.4121 -0.4957
   37MOL   O150 8862   3.198   1.960   4.847  0.8786  0.1381 -0.5413
   37MOL   C151 8863   3.180   1.982   4.987  1.0534  0.1245  0.2639
   37MOL   H152 8864   3.125   2.076   4.543  1.1192 -0.1229 -0.9431
   37MOL   H153 8865   3.004   1.953   4.496  0.8827 -0.9901 -0.3737
   37MOL   H154 8866   3.258   1.899   4.615 -0.0096  1.2302  0.0474
   37MOL   H155 8867   3.090   2.038   5.012  1.1816 -0.2816  1.7155
   37MOL   H156 8868   3.264   2.031   5.036  0.0828 -1.1969  3.4099
   37MOL   H157 8869   3.157   1.887   5.035  0.6357  0.7977  1.4165
   37MOL   C158 8870   3.132   1.733   4.587  0.0681 -0.1607 -0.4865
   37MOL   C159 8871   3.224   1.639   4.671  0.8092 -0.2919 -0.1726
   37MOL   C160 8872   3.216   1.498   4.620 -0.3579  0.0154 -0.5093
   37MOL   O161 8873   3.318   1.434   4.607 -0.3837 -0.3462  0.0156
   37MOL   O162 8874   3.092   1.458   4.594  0.2594  0.0451 -0.1633
   37MOL   C163 8875   3.052   1.318   4.585  0.1226  0.0769  0.1690
   37MOL   H164 8876   3.031   1.699   4.606  0.9122 -1.3886  2.0538
   37MOL   H165 8877   3.149   1.711   4.482 -0.0107  0.5220 -0.6443
   37MOL   H166 8878   3.174   1.636   4.768 -0.5133  0.4264 -0.8224
   37MOL   H167 8879   3.081   1.277   4.488 -0.4100 -1.3860  0.6140
   37MOL   H168 8880   2.945   1.300   4.598  0.5283  0.4098  4.5819
   37MOL   H169 8881   3.100   1.265   4.667 -0.0014  1.5449  1.2282
   37MOL   C170 8882   3.371   1.679   4.703 -0.2464 -0.2300 -0.6218
   37MOL   C171 8883   3.441   1.612   4.825 -0.4801 -0.0211  0.4658
   37MOL   C172 8884   3.580   1.581   4.771 -0.8607 -0.0451  0.0810
   37MOL   O173 8885   3.620   1.464   4.763  0.1005  0.4634 -0.2099
   37MOL   O174 8886   3.642   1.689   4.731 -0.3292 -0.0314 -0.0019
   37MOL   C175 8887   3.782   1.687   4.686  0.5822 -0.3302  0.0455
   37MOL   H176 8888   3.422   1.654   4.610  1.9262  0.5915  0.3150
   37MOL   H177 8889   3.395   1.786   4.707  0.3093 -0.4317  3.2197
   37MOL   H178 8890   3.384   1.523   4.852  0.8546 -0.9069  0.4566
   37MOL   H179 8891   3.849   1.714   4.767  1.2261  0.3531 -0.6965
   37MOL   H180 8892   3.797   1.768   4.613  2.1370 -1.5289 -0.9896
   37MOL   H181 8893   3.815   1.597   4.634  0.7245 -1.0293  1.3403
   37MOL   C182 8894   3.431   1.704   4.950  0.5408  0.7761 -0.2562
   37MOL   C183 8895   3.468   1.651   5.085  0.0628 -0.9825 -0.0341
   37MOL   C184 8896   3.622   1.636   5.109  1.1574 -0.1227  0.6566
   37MOL   O185 8897   3.666   1.530   5.160  0.1440 -0.7115 -0.6852
   37MOL   O186 8898   3.692   1.744   5.070  0.3230  0.2301  0.4994
   37MOL   C187 8899   3.837   1.741   5.064 -0.3170 -0.7561 -0.5099
   37MOL   H188 8900   3.486   1.798   4.939  0.0638  1.1245  0.2788
   37MOL   H189 8901   3.330   1.745   4.961 -0.4355 -1.3562 -1.0288
   37MOL   H190 8902   3.430   1.549   5.092 -1.8877 -0.3408 -0.9403
   37MOL   H191 8903   3.881   1.830   5.018 -2.0464  1.2645  1.6654
   37MOL   H192 8904   3.871   1.662   4.997 -1.3118 -1.2143 -0.4790
   37MOL   H193 8905   3.891   1.744   5.158  0.1677  1.3655 -0.8320
   37MOL   C194 8906   3.418   1.733   5.209  0.1988  0.1347  0.0876
   37MOL   C195 8907   3.295   1.676   5.283 -0.0340  0.9699  0.0011
   37MOL   C196 8908   3.323   1.528   5.327 -0.8097 -0.0430  0.2816
   37MOL   O197 8909   3.253   1.438   5.280  0.5322 -0.1164 -0.1266
   37MOL   O198 8910   3.421   1.523   5.413  0.5146  0.3035 -0.7196
   37MOL   C199 8911   3.481   1.397   5.442 -0.1666 -0.1587  0.9801
   37MOL   H200 8912   3.500   1.754   5.278 -0.2516 -0.2736  0.7396
   37MOL   H201 8913   3.386   1.835   5.185 -0.1428 -0.2422 -1.0937
   37MOL   H202 8914   3.203   1.687   5.226 -0.3704  1.2978  0.5907
   37MOL   H203 8915   3.528   1.390   5.540 -0.7256 -0.3318  1.2418
   37MOL   H204 8916   3.558   1.373   5.369  1.9967  2.4062  2.3708
   37MOL   H205 8917   3.410   1.314   5.440 -2.1192  1.4771 -1.3558
   37MOL   C206 8918   3.259   1.758   5.410 -0.3338 -0.2395 -0.3796
   37MOL   C207 8919   3.121   1.729   5.472  0.2473 -0.5033  0.4792
   37MOL   C208 8920   3.117   1.758   5.626 -0.0605 -0.5265  0.5043
   37MOL   O209 8921   3.118   1.665   5.708  0.7419 -0.3057  0.1005
   37MOL   O210 8922   3.114   1.883   5.655 -0.0188 -0.0290 -0.1522
   37MOL   C211 8923   3.097   1.923   5.791 -0.1143  0.0747 -0.5105
   37MOL   H212 8924   3.324   1.730   5.493 -1.7568  0.1523  0.8822
   37MOL   H213 8925   3.276   1.865   5.394  1.9847 -0.9974 -3.4872
   37MOL   H214 8926   3.101   1.622   5.466  0.5708 -0.6191  1.3236
   37MOL   H215 8927   3.034   2.011   5.785 -0.6542 -0.0571  2.2730
   37MOL   H216 8928   3.195   1.935   5.838 -0.7691 -0.0598  0.9280
   37MOL   H217 8929   3.034   1.854   5.848  0.0347  0.5589  0.2520
   37MOL   C218 8930   3.012   1.800   5.396 -0.5304  0.2496 -0.4311
   37MOL   C219 8931   2.904   1.699   5.349 -0.7919 -0.4923 -0.3854
   37MOL   C220 8932   2.823   1.635   5.467 -0.2877 -0.6926  0.0853
   37MOL   O221 8933   2.779   1.525   5.460  0.1114  0.0798 -0.2345
   37MOL   O222 8934   2.808   1.714   5.575 -0.2957 -0.1908 -0.1208
   37MOL   C223 8935   2.735   1.658   5.687  0.3265 -0.2748 -0.4646
   37MOL   H224 8936   2.965   1.879   5.455 -1.3334 -0.7752  0.3054
   37MOL   H225 8937   3.044   1.852   5.305 -0.9929 -3.4428 -2.7911
   37MOL   H226 8938   2.959   1.615   5.308  1.7366  0.7535  0.3951
   37MOL   H227 8939   2.655   1.588   5.663  1.2248 -1.1539 -0.9241
   37MOL   H228 8940   2.687   1.741   5.739  0.9343 -0.5489  0.5542
   37MOL   H229 8941   2.798   1.616   5.765 -2.7130 -0.4782  1.9900
   37MOL   C230 8942   2.796   1.734   5.237 -0.8189  0.3723  0.1332
   37MOL   C231 8943   2.848   1.795   5.106 -0.4875 -0.3647  0.4824
   37MOL   C232 8944   2.931   1.693   5.029 -0.6964  0.5148 -0.6000
   37MOL   O233 8945   3.045   1.678   5.069  0.2958 -0.0549  0.1529
   37MOL   O234 8946   2.874   1.631   4.927  0.4325  0.2295 -0.1380
   37MOL   C235 8947   2.935   1.518   4.877 -0.5645 -0.4000  0.0474
   37MOL   H236 8948   2.741   1.643   5.214  1.2423 -1.7401  3.2192
   37MOL   H237 8949   2.734   1.817   5.271 -0.5279  1.2169 -1.3380
   37MOL   H238 8950   2.892   1.894   5.119  0.8483 -0.7517 -0.8983
   37MOL   H239 8951   3.039   1.543   4.856 -0.5896 -0.1212  0.2515
   37MOL   H240 8952   2.890   1.476   4.787  0.4902 -2.1918  0.3443
   37MOL   H241 8953   2.941   1.443   4.955  0.1338 -1.7246 -1.2499
   37MOL   H242 8954   2.765   1.830   5.044 -2.9169 -0.6450  3.4413
   38MOL     C1 8955   6.514   7.832   0.311  0.4509 -0.6567 -0.0139
   38MOL     C2 8956   6.545   0.024   0.218  0.2944 -0.9939  0.0274
   38MOL     C3 8957   6.439   0.057   0.121 -0.3764 -0.5341 -0.8409
   38MOL     O4 8958   6.452   0.035   0.002  0.2024 -0.1216  0.3192
   38MOL     O5 8959   6.321   0.101   0.176  0.1826  0.1102 -0.1395
   38MOL     C6 8960   6.220   0.148   0.081 -0.1865 -0.0100 -0.4602
   38MOL     H7 8961   6.609   7.801   0.355  1.2153 -0.7257 -1.6810
   38MOL     H8 8962   6.476   7.740   0.266  1.5487  0.9235 -4.3648
   38MOL     H9 8963   6.631   7.927   0.158 -1.0519 -4.1068 -0.4472
   38MOL    H10 8964   6.267   0.234   0.034  2.6500 -0.5125  1.3331
   38MOL    H11 8965   6.118   0.172   0.112  0.3561  1.7406 -0.0108
   38MOL    H12 8966   6.195   0.075   0.004  2.6166  2.3302 -3.7280
   38MOL    H13 8967   6.453   7.866   0.395 -2.0025 -2.5591 -0.9669
   38MOL    C14 8968   6.597   0.138   0.308  0.1990 -0.1129 -0.2301
   38MOL    C15 8969   6.717   0.221   0.252  0.0726 -0.3012 -0.6510
   38MOL    C16 8970   6.710   0.361   0.309 -0.3181 -0.0235 -0.2974
   38MOL    O17 8971   6.711   0.470   0.243  0.0529  0.2251 -0.0792
   38MOL    O18 8972   6.715   0.354   0.439  0.1570  0.3568 -0.2526
   38MOL    C19 8973   6.688   0.461   0.520  0.3421  0.7072 -0.0683
   38MOL    H20 8974   6.523   0.199   0.360  1.7705  2.0799 -0.4825
   38MOL    H21 8975   6.628   0.095   0.402  0.8728 -0.5364 -0.6461
   38MOL    H22 8976   6.703   0.242   0.146  0.6553 -0.7766 -0.8307
   38MOL    H23 8977   6.732   0.554   0.486  0.1202  1.7017  2.2840
   38MOL    H24 8978   6.737   0.439   0.615  0.2671  2.2709  0.3307
   38MOL    H25 8979   6.586   0.478   0.555 -0.0565 -1.4459 -0.0950
   38MOL    C26 8980   6.855   0.153   0.290  0.5102 -0.3785  0.2385
   38MOL    C27 8981   6.990   0.215   0.242  1.4309 -0.2720 -0.5764
   38MOL    C28 8982   7.047   0.331   0.334  0.1837 -0.0354  0.3221
   38MOL    O29 8983   7.052   0.444   0.297 -0.4331 -0.3276 -0.2783
   38MOL    O30 8984   7.079   0.279   0.452  0.1605 -0.2367 -0.1089
   38MOL    C31 8985   7.134   0.364   0.552 -0.3598 -0.2233  0.5581
   38MOL    H32 8986   6.851   0.134   0.397  0.9160 -3.2068 -0.1884
   38MOL    H33 8987   6.851   0.051   0.252  0.7930 -0.9638  1.7623
   38MOL    H34 8988   6.974   0.270   0.149  0.6256 -0.3325 -0.4753
   38MOL    H35 8989   7.234   0.387   0.515 -1.4210 -0.4469 -2.5702
   38MOL    H36 8990   7.148   0.313   0.647  0.0095 -3.1416 -0.9917
   38MOL    H37 8991   7.086   0.458   0.577 -0.2531 -0.1801  0.5986
   38MOL    C38 8992   7.107   0.111   0.210 -0.3425  0.0007  0.9711
   38MOL    C39 8993   7.109   0.096   0.054 -0.6155  0.7615  0.1990
   38MOL    C40 8994   7.160   0.226   7.922 -0.2633  0.3100 -0.3930
   38MOL    O41 8995   7.099   0.285   7.826  0.2977 -0.3837  0.2772
   38MOL    O42 8996   7.276   0.255   0.045  0.3958  0.3138 -0.8246
   38MOL    C43 8997   7.352   0.360   7.926  0.6650  0.2176 -0.0131
   38MOL    H44 8998   7.203   0.146   0.247 -0.5500  2.8350 -0.9961
   38MOL    H45 8999   7.094   0.014   0.257  1.6609 -0.3862  0.7713
   38MOL    H46 9000   7.002   0.098   0.034 -0.3994  1.1022 -0.9857
   38MOL    H47 9001   7.367   0.439   0.067  1.2839  0.6684 -0.6176
   38MOL    H48 9002   7.306   0.396   7.834 -1.5442 -2.0560  0.1370
   38MOL    H49 9003   7.447   0.317   7.896  0.6395 -0.2435  0.5538
   38MOL    C50 9004   7.165   7.893   7.930  0.1400 -0.5300 -0.4531
   38MOL    C51 9005   7.122   7.866   7.780  0.4281 -0.5146 -0.3908
   38MOL    C52 9006   7.239   7.816   7.694 -0.6881 -0.7853  0.5906
   38MOL    O53 9007   7.315   7.891   7.632  0.2259 -0.1690  0.0365
   38MOL    O54 9008   7.247   7.685   7.696 -0.6029 -0.0637 -0.2025
   38MOL    C55 9009   7.318   7.602   7.605 -1.1079  0.4685  0.8548
   38MOL    H56 9010   7.273   7.876   0.001  0.3415  0.6577 -0.8586
   38MOL    H57 9011   7.117   7.814   0.054 -1.8390  0.6906 -0.3983
   38MOL    H58 9012   7.101   0.026   7.727  3.4052 -0.4105 -1.5096
   38MOL    H59 9013   7.291   7.497   7.612  1.5204 -0.2091  1.4198
   38MOL    H60 9014   7.426   7.613   7.616 -1.1483 -1.0492  3.1708
   38MOL    H61 9015   7.291   7.636   7.506  0.1226  2.9120  1.3208
   38MOL    C62 9016   6.995   7.787   7.748 -0.8519 -0.1927  0.4303
   38MOL    C63 9017   6.866   7.859   7.795 -0.1056 -0.3369 -0.2955
   38MOL    C64 9018   6.852   0.068   7.742  0.4421 -0.3245  0.1034
   38MOL    O65 9019   6.900   0.103   7.634 -0.4733  0.5562 -0.3533
   38MOL    O66 9020   6.779   0.142   7.828  0.2335 -0.7550  0.3381
   38MOL    C67 9021   6.761   0.281   7.791  0.5663  0.2365 -0.1060
   38MOL    H68 9022   6.996   7.771   7.641  1.5376 -0.9302  0.5339
   38MOL    H69 9023   6.988   7.685   7.787 -1.8813 -0.5074 -0.5769
   38MOL    H70 9024   6.892   7.881   7.898  1.8192  0.2377 -0.8726
   38MOL    H71 9025   6.738   0.343   7.877 -1.8642 -2.4026  1.2380
   38MOL    H72 9026   6.676   0.296   7.725 -0.1197 -2.3852  0.1164
   38MOL    H73 9027   6.850   0.320   7.740  0.6811  2.0647  1.4628
   38MOL    C74 9028   6.737   7.761   7.804 -0.1693 -0.6557  0.4308
   38MOL    C75 9029   6.663   7.759   7.673  1.1669 -0.1995 -0.4692
   38MOL    C76 9030   6.745   7.695   7.558 -0.1155 -0.3859  0.4419
   38MOL    O77 9031   6.819   7.597   7.574  0.4790 -0.2475 -1.1346
   38MOL    O78 9032   6.740   7.774   7.448 -0.3644 -0.9121  0.6693
   38MOL    C79 9033   6.817   7.742   7.330 -0.0964  0.1298 -0.3601
   38MOL    H80 9034   6.760   7.662   7.843  2.6360 -0.8677 -1.5603
   38MOL    H81 9035   6.660   7.802   7.869 -0.1256 -2.7822  1.8752
   38MOL    H82 9036   6.644   7.861   7.641 -0.7717 -0.3256  0.1815
   38MOL    H83 9037   6.773   7.777   7.236  1.0884  2.4331 -0.0883
   38MOL    H84 9038   6.791   7.637   7.317  1.8082 -0.3407 -0.5701
   38MOL    H85 9039   6.923   7.767   7.330  0.1758 -0.9753  1.8197
   38MOL    C86 9040   6.528   7.681   7.678 -0.2525 -0.0641 -0.5212
   38MOL    C87 9041   6.411   7.713   7.576 -0.0343  0.5025  0.0577
   38MOL    C88 9042   6.347   7.844   7.623  0.2763 -0.1986 -0.2601
   38MOL    O89 9043   6.256   7.847   7.705  0.7054 -0.0068  0.3390
   38MOL    O90 9044   6.393   0.019   7.558  0.0468  0.0615 -0.4173
   38MOL    C91 9045   6.373   0.147   7.614  0.3735  0.4822 -0.4894
   38MOL    H92 9046   6.548   7.574   7.671  0.3982  0.1555 -2.3963
   38MOL    H93 9047   6.483   7.693   7.776  0.7562  0.5967 -0.1264
   38MOL    H94 9048   6.345   7.627   7.592  0.0644  0.4097 -0.0326
   38MOL    H95 9049   6.440   0.222   7.570 -0.4319  1.1559 -0.5810
   38MOL    H96 9050   6.392   0.138   7.721  2.4200 -0.2683 -0.8818
   38MOL    H97 9051   6.269   0.177   7.603  1.0408  2.8336 -0.7789
   38MOL    C98 9052   6.450   7.711   7.427 -1.4399  0.1771 -0.2233
   38MOL    C99 9053   6.344   7.710   7.317  0.9025 -0.3895  0.6050
   38MOL   C100 9054   6.413   7.729   7.180 -0.3528 -0.1133  0.6279
   38MOL   O101 9055   6.393   7.829   7.113 -0.5982 -0.1567 -0.2489
   38MOL   O102 9056   6.502   7.627   7.161  0.1964  0.6801 -0.0468
   38MOL   C103 9057   6.586   7.612   7.045  0.3563 -0.0552 -0.9907
   38MOL   H104 9058   6.510   7.801   7.409 -0.3755 -0.2417  1.1665
   38MOL   H105 9059   6.521   7.632   7.404  0.6778  2.0975 -0.4984
   38MOL   H106 9060   6.266   7.785   7.334 -0.6215 -1.9914  0.7641
   38MOL   H107 9061   6.583   7.703   6.986 -1.3327 -0.1529 -1.0810
   38MOL   H108 9062   6.547   7.521   6.998  0.1821 -1.3011  1.4598
   38MOL   H109 9063   6.685   7.587   7.082  0.3616  0.5742 -0.5813
   38MOL   C110 9064   6.264   7.581   7.317 -0.5096 -0.7160 -0.3179
   38MOL   C111 9065   6.138   7.581   7.224 -0.1733 -0.2268 -0.1714
   38MOL   C112 9066   6.022   7.669   7.292 -0.0955  0.6725 -0.8070
   38MOL   O113 9067   5.992   7.781   7.242  0.4098  0.1540  0.8383
   38MOL   O114 9068   5.976   7.613   7.402  0.1444 -0.2055  0.1482
   38MOL   C115 9069   5.894   7.684   7.489 -0.4094 -0.1187 -0.1936
   38MOL   H116 9070   6.324   7.500   7.278  1.7191  1.3186 -1.2267
   38MOL   H117 9071   6.236   7.560   7.420 -0.6478 -2.9922 -0.8023
   38MOL   H118 9072   6.095   7.481   7.226  0.3189 -0.4635 -1.1139
   38MOL   H119 9073   5.886   7.633   7.585 -0.2100 -1.0221 -0.6546
   38MOL   H120 9074   5.794   7.702   7.449 -0.0958 -0.7428 -1.2686
   38MOL   H121 9075   5.935   7.782   7.515 -0.0065 -0.1637 -0.6529
   38MOL   C122 9076   6.152   7.602   7.068  0.1623 -0.9370  0.2044
   38MOL   C123 9077   6.041   7.526   6.992  1.0043  0.1448  0.9481
   38MOL   C124 9078   5.982   7.578   6.860  0.4460  0.0289 -0.3766
   38MOL   O125 9079   5.871   7.533   6.820  0.0321  0.0168 -0.2291
   38MOL   O126 9080   6.057   7.658   6.790 -0.4316  0.2046 -0.5169
   38MOL   C127 9081   6.000   7.740   6.695  0.0084 -0.0733 -0.6819
   38MOL   H128 9082   6.158   7.709   7.048  0.9586 -1.1604 -0.7693
   38MOL   H129 9083   6.251   7.570   7.035 -0.3242 -1.2448 -0.9570
   38MOL   H130 9084   5.946   7.537   7.044 -0.0226  0.2197 -0.8794
   38MOL   H131 9085   6.068   7.819   6.664 -0.8128  0.8457 -0.1816
   38MOL   H132 9086   5.919   7.800   6.736  0.9491 -0.6165  2.0318
   38MOL   H133 9087   5.960   7.683   6.610 -2.3624 -0.4661  0.6448
   38MOL   C134 9088   6.060   7.370   6.982  1.2336  0.6639 -0.1271
   38MOL   C135 9089   6.173   7.336   6.886  0.7012 -0.0923  0.2283
   38MOL   C136 9090   6.294   7.290   6.957 -0.1993  0.2140  1.2043
   38MOL   O137 9091   6.369   7.368   7.019  0.1042 -0.1289 -1.0433
   38MOL   O138 9092   6.297   7.154   6.968  0.1682  0.2946  0.9228
   38MOL   C139 9093   6.396   7.084   7.030 -0.0037 -0.4591  0.3515
   38MOL   H140 9094   6.057   7.324   7.081 -1.6206 -0.3709 -0.6407
   38MOL   H141 9095   5.965   7.330   6.949  0.2074  1.2744  2.0084
   38MOL   H142 9096   6.220   7.420   6.835  1.5605 -0.9448 -0.4067
   38MOL   H143 9097   6.489   7.093   6.974  0.1826 -0.9585  0.5765
   38MOL   H144 9098   6.364   6.980   7.033 -0.0974 -0.4452 -0.2028
   38MOL   H145 9099   6.420   7.114   7.132  2.1673 -0.8415 -0.0157
   38MOL   C146 9100   6.127   7.235   6.777  0.4863 -0.4559  0.4507
   38MOL   C147 9101   6.024   7.292   6.674 -0.3362  0.2438  0.0323
   38MOL   C148 9102   6.107   7.361   6.560 -0.0638  0.1325 -0.7330
   38MOL   O149 9103   6.117   7.309   6.451  0.4421 -0.0298  0.2051
   38MOL   O150 9104   6.168   7.476   6.598  0.8533  0.3553 -0.0107
   38MOL   C151 9105   6.229   7.559   6.498  0.0461 -0.8362 -0.4410
   38MOL   H152 9106   6.212   7.192   6.723 -1.2681 -2.2500 -0.9278
   38MOL   H153 9107   6.082   7.154   6.834  0.3166 -0.6913 -0.0209
   38MOL   H154 9108   5.959   7.366   6.722 -1.6469 -1.3259  0.7496
   38MOL   H155 9109   6.168   7.586   6.412 -0.6286 -2.0157 -0.3316
   38MOL   H156 9110   6.322   7.506   6.475  0.1272 -0.2871 -1.3968
   38MOL   H157 9111   6.279   7.649   6.533  0.8863 -1.0432 -1.0546
   38MOL   C158 9112   5.927   7.195   6.605  0.5246  0.1393 -0.0694
   38MOL   C159 9113   5.819   7.265   6.513 -0.8005 -0.2928  0.4685
   38MOL   C160 9114   5.780   7.184   6.389  0.2861 -0.0212 -0.6735
   38MOL   O161 9115   5.796   7.220   6.274  0.3357 -0.6704 -0.4418
   38MOL   O162 9116   5.722   7.066   6.422  0.1387 -0.1298 -0.1231
   38MOL   C163 9117   5.699   6.958   6.328  0.5160 -1.4604 -0.3296
   38MOL   H164 9118   5.972   7.112   6.551 -0.6774 -0.7262  0.2157
   38MOL   H165 9119   5.871   7.152   6.688 -0.9018  0.5630 -0.7804
   38MOL   H166 9120   5.857   7.359   6.474 -0.9542 -0.6455 -0.5541
   38MOL   H167 9121   5.788   6.943   6.267  2.5563  3.1506  1.2375
   38MOL   H168 9122   5.618   6.988   6.262 -2.4624 -1.9324  2.9322
   38MOL   H169 9123   5.666   6.870   6.383 -0.4550  1.1562  3.5108
   38MOL   C170 9124   5.703   7.319   6.600 -0.0147  0.6791 -0.1252
   38MOL   C171 9125   5.602   7.418   6.532 -0.3405 -0.1846  0.0380
   38MOL   C172 9126   5.479   7.423   6.629  0.4288 -0.9775  0.2648
   38MOL   O173 9127   5.378   7.353   6.614 -0.2861  0.2703 -0.1920
   38MOL   O174 9128   5.496   7.521   6.726 -0.0887 -0.3028  0.2993
   38MOL   C175 9129   5.418   7.510   6.842 -0.9120 -0.1461  0.7994
   38MOL   H176 9130   5.657   7.237   6.656  0.8871  1.3432  1.6242
   38MOL   H177 9131   5.751   7.381   6.675  3.0527 -1.1878 -0.4941
   38MOL   H178 9132   5.563   7.372   6.441  1.4229 -1.7528  0.0542
   38MOL   H179 9133   5.460   7.442   6.917  0.3598 -2.3041 -1.7967
   38MOL   H180 9134   5.317   7.491   6.808 -1.1428  1.6126  0.4726
   38MOL   H181 9135   5.420   7.605   6.895  1.2222 -0.5764  1.5698
   38MOL   C182 9136   5.656   7.558   6.485 -0.9271  0.2860 -0.8523
   38MOL   C183 9137   5.560   7.629   6.393  0.5027 -0.4981 -0.2075
   38MOL   C184 9138   5.554   7.776   6.421 -0.1723  0.6690  0.2863
   38MOL   O185 9139   5.649   7.834   6.472  0.3078  0.1954  0.0076
   38MOL   O186 9140   5.436   7.823   6.385  0.7975  0.6637 -0.1906
   38MOL   C187 9141   5.417   0.032   6.405  0.2931  0.3685 -0.1772
   38MOL   H188 9142   5.673   7.621   6.572 -0.9595 -0.2172 -0.4790
   38MOL   H189 9143   5.756   7.551   6.442  1.0035 -3.4132  3.6845
   38MOL   H190 9144   5.461   7.587   6.412  0.4012  0.1547  0.7166
   38MOL   H191 9145   5.475   0.090   6.334  1.0178 -0.1543 -0.0241
   38MOL   H192 9146   5.448   0.068   6.503  0.8453 -1.9443  0.5284
   38MOL   H193 9147   5.312   0.054   6.391 -0.1344 -2.2224 -1.4314
   38MOL   C194 9148   5.590   7.605   6.242 -0.1793  0.0487 -0.2551
   38MOL   C195 9149   5.703   7.686   6.171 -0.1677  0.0339  0.1399
   38MOL   C196 9150   5.841   7.626   6.195 -0.6702  0.6377  0.3597
   38MOL   O197 9151   5.917   7.678   6.281  0.2661  0.1611 -0.5296
   38MOL   O198 9152   5.875   7.522   6.116  0.2725  0.2280 -0.2725
   38MOL   C199 9153   6.003   7.464   6.132 -0.9503 -0.9433  0.0823
   38MOL   H200 9154   5.594   7.502   6.207  0.9004  0.8427 -2.6321
   38MOL   H201 9155   5.501   7.648   6.197  0.5293  1.5019 -0.2968
   38MOL   H202 9156   5.710   7.786   6.214  0.9938  0.5139 -1.1318
   38MOL   H203 9157   6.008   7.407   6.225 -1.9865 -1.3094 -0.0816
   38MOL   H204 9158   6.076   7.544   6.140  0.2070 -2.0325  0.5675
   38MOL   H205 9159   6.023   7.392   6.053 -0.7055  0.1722 -0.8689
   38MOL   C206 9160   5.676   7.699   6.017 -0.4814 -0.3070 -0.2192
   38MOL   C207 9161   5.547   7.766   5.969  0.3274 -0.1597  0.1979
   38MOL   C208 9162   5.515   7.901   6.026  0.2809  0.1912 -0.3501
   38MOL   O209 9163   5.399   7.924   6.068  0.0769  0.1542 -0.0964
   38MOL   O210 9164   5.616   0.053   6.016 -0.1042  0.0795  0.6176
   38MOL   C211 9165   5.614   0.181   6.075  0.0356  0.1363  0.1500
   38MOL   H212 9166   5.763   7.752   5.977 -1.1372 -0.5350 -1.9956
   38MOL   H213 9167   5.678   7.597   5.977  0.8688 -0.3889  0.0360
   38MOL   H214 9168   5.464   7.699   5.994  0.9157 -0.9301  0.1101
   38MOL   H215 9169   5.692   0.166   6.150  1.5333 -0.1840 -1.4412
   38MOL   H216 9170   5.513   0.203   6.109 -1.5819 -0.9158 -3.7225
   38MOL   H217 9171   5.642   0.262   6.008  1.7411 -2.4216 -2.3259
   38MOL   C218 9172   5.537   7.776   5.816 -0.1821  0.6044  0.3171
   38MOL   C219 9173   5.395   7.797   5.753 -1.0013 -0.5086 -0.2698
   38MOL   C220 9174   5.383   7.917   5.659 -0.5275 -0.2578 -0.5041
   38MOL   O221 9175   5.379   7.902   5.537  0.1785 -0.4054 -0.2045
   38MOL   O222 9176   5.372   0.107   5.719  0.7470 -0.7808 -0.9501
   38MOL   C223 9177   5.360   0.232   5.656  0.7265 -0.1946  0.5442
   38MOL   H224 9178   5.599   7.858   5.778  1.2551  0.3061  1.9691
   38MOL   H225 9179   5.596   7.695   5.774  1.1182  1.3555  0.6685
   38MOL   H226 9180   5.331   7.828   5.835  0.5809  2.6487 -0.1401
   38MOL   H227 9181   5.401   0.310   5.719 -1.0364 -0.1529  1.6814
   38MOL   H228 9182   5.256   0.261   5.640  0.3320 -0.6663  2.1069
   38MOL   H229 9183   5.410   0.243   5.560 -0.7395  0.4555 -0.1692
   38MOL   C230 9184   5.340   7.665   5.701 -0.1841  0.2828  0.4546
   38MOL   C231 9185   5.200   7.670   5.664  0.7029  0.3228  0.0132
   38MOL   C232 9186   5.155   7.568   5.568  0.0967  0.3137  0.3862
   38MOL   O233 9187   5.069   7.489   5.595  0.3762  0.2785  0.2230
   38MOL   O234 9188   5.220   7.584   5.448 -0.2312  0.3954 -0.3499
   38MOL   C235 9189   5.208   7.486   5.346  0.0630  0.6876  0.4091
   38MOL   H236 9190   5.391   7.635   5.609  0.5655  0.6024  0.7600
   38MOL   H237 9191   5.361   7.595   5.781 -2.7389 -0.0608  0.8753
   38MOL   H238 9192   5.166   7.767   5.628  0.1630  0.0957 -0.1090
   38MOL   H239 9193   5.257   7.495   5.249  0.6129  0.8697  0.7047
   38MOL   H240 9194   5.107   7.496   5.305  0.0243  2.4632  0.8855
   38MOL   H241 9195   5.223   7.385   5.383  0.9475 -0.3437 -2.5805
   38MOL   H242 9196   5.153   7.648   5.760 -2.9728 -0.7172 -1.9143
   39MOL     C1 9197   4.771   1.034   4.703  0.1827  0.1146 -0.0789
   39MOL     C2 9198   4.734   0.886   4.712 -0.1042 -0.3819 -0.3801
   39MOL     C3 9199   4.700   0.844   4.854  0.0184  0.2577  0.3693
   39MOL     O4 9200   4.758   0.755   4.918  0.1335 -0.0787  0.2157
   39MOL     O5 9201   4.597   0.929   4.896  0.9463  0.2096  0.1312
   39MOL     C6 9202   4.533   0.925   5.016  0.1173 -0.7406  0.1634
   39MOL     H7 9203   4.794   1.069   4.602 -2.9258 -0.5142 -1.0779
   39MOL     H8 9204   4.861   1.048   4.763  0.9640 -0.9654 -0.9838
   39MOL     H9 9205   4.823   0.827   4.688  0.1452 -1.1046  2.1755
   39MOL    H10 9206   4.536   0.825   5.060 -0.5486 -0.3974  1.0168
   39MOL    H11 9207   4.429   0.959   5.011  0.1885 -0.4511  0.6597
   39MOL    H12 9208   4.587   0.985   5.089  1.3869 -1.0357 -0.5286
   39MOL    H13 9209   4.695   1.109   4.726 -0.8425 -0.8247 -0.3224
   39MOL    C14 9210   4.613   0.846   4.612 -0.1212 -0.6814 -0.3917
   39MOL    C15 9211   4.646   0.867   4.459 -1.0579  0.7280 -0.0703
   39MOL    C16 9212   4.749   0.772   4.401 -0.5671  0.5501  0.2971
   39MOL    O17 9213   4.806   0.686   4.474  0.3861 -0.6818  0.2717
   39MOL    O18 9214   4.784   0.801   4.277  0.0071  0.0274  0.5010
   39MOL    C19 9215   4.882   0.726   4.212  0.2623 -0.5183  0.0560
   39MOL    H20 9216   4.590   0.741   4.634  0.5584 -1.3906 -2.9405
   39MOL    H21 9217   4.522   0.897   4.643 -1.1038 -1.9229 -1.1770
   39MOL    H22 9218   4.688   0.967   4.456 -1.1552  0.7986  0.8779
   39MOL    H23 9219   4.843   0.625   4.198 -3.7585  0.9152  0.0453
   39MOL    H24 9220   4.981   0.723   4.256  0.4197  0.1208 -0.2476
   39MOL    H25 9221   4.894   0.762   4.110 -2.4004 -0.3290 -0.2448
   39MOL    C26 9222   4.517   0.860   4.367  0.0120 -0.6916 -0.4209
   39MOL    C27 9223   4.411   0.979   4.383 -0.0790  0.3663  0.5812
   39MOL    C28 9224   4.484   1.112   4.376  0.7879 -0.3722 -0.2557
   39MOL    O29 9225   4.535   1.154   4.268 -0.1847 -0.0875 -0.6777
   39MOL    O30 9226   4.487   1.171   4.496  0.2620 -0.0512  0.3647
   39MOL    C31 9227   4.559   1.293   4.511  1.1683  0.2063 -0.6179
   39MOL    H32 9228   4.548   0.869   4.262  0.4676 -1.8446 -0.3869
   39MOL    H33 9229   4.470   0.762   4.361 -2.0262  0.0739  2.0556
   39MOL    H34 9230   4.366   0.973   4.482 -1.2144  1.2619  0.1410
   39MOL    H35 9231   4.658   1.274   4.469  1.7135 -0.2139  0.8488
   39MOL    H36 9232   4.555   1.326   4.614  0.7409  2.1923 -1.2386
   39MOL    H37 9233   4.509   1.372   4.454 -1.1600  0.6295  1.9023
   39MOL    C38 9234   4.300   0.984   4.272 -0.1164  0.2242 -0.6506
   39MOL    C39 9235   4.209   0.858   4.262 -0.4245  0.3587 -0.1800
   39MOL    C40 9236   4.100   0.853   4.369  0.6958 -0.7612  0.0040
   39MOL    O41 9237   4.063   0.749   4.428 -0.2701 -0.0828 -0.3968
   39MOL    O42 9238   4.048   0.981   4.390 -0.3377  0.3803 -0.2569
   39MOL    C43 9239   3.956   0.992   4.493  0.7177  0.1647 -0.0039
   39MOL    H44 9240   4.243   1.076   4.277  0.3254  0.4736 -0.2211
   39MOL    H45 9241   4.349   0.999   4.176 -1.4405  0.7871 -1.2609
   39MOL    H46 9242   4.269   0.769   4.286 -1.0116  0.2563  0.9567
   39MOL    H47 9243   3.857   0.967   4.455  0.5240 -0.0393  0.6181
   39MOL    H48 9244   3.933   1.091   4.533  1.9100  0.8719 -1.0214
   39MOL    H49 9245   3.988   0.934   4.580  1.1942  1.6034  0.8024
   39MOL    C50 9246   4.166   0.831   4.114 -0.6847  0.2228 -0.3527
   39MOL    C51 9247   4.081   0.703   4.072 -0.5681 -0.1482 -0.2658
   39MOL    C52 9248   3.948   0.750   4.011 -0.1357  0.4509  0.1997
   39MOL    O53 9249   3.866   0.799   4.086 -0.5636 -0.2288  0.7917
   39MOL    O54 9250   3.940   0.729   3.873 -0.4011 -0.4806 -0.4105
   39MOL    C55 9251   3.814   0.784   3.818 -0.1275 -0.3307 -0.5948
   39MOL    H56 9252   4.109   0.921   4.093 -1.1933  0.7573  3.0216
   39MOL    H57 9253   4.255   0.848   4.053  0.1908 -0.4445  0.7177
   39MOL    H58 9254   4.053   0.651   4.163 -2.2618 -2.1052 -1.8625
   39MOL    H59 9255   3.830   0.821   3.717 -3.4744 -0.1450 -1.1337
   39MOL    H60 9256   3.791   0.881   3.864  0.2608 -0.2686 -0.5290
   39MOL    H61 9257   3.728   0.717   3.820 -0.3064 -0.1290 -1.5667
   39MOL    C62 9258   4.161   0.597   3.993  1.0213 -0.3911 -0.0439
   39MOL    C63 9259   4.244   0.490   4.075  1.1249 -0.4569 -0.2038
   39MOL    C64 9260   4.144   0.378   4.121 -0.1633 -0.3502  1.0701
   39MOL    O65 9261   4.158   0.267   4.076  0.4036  0.1598  0.1253
   39MOL    O66 9262   4.041   0.419   4.188 -0.0913  0.4299  0.2380
   39MOL    C67 9263   3.943   0.329   4.234  0.1260  0.3982  0.3719
   39MOL    H68 9264   4.092   0.537   3.933  0.2770  0.7343 -0.3125
   39MOL    H69 9265   4.227   0.646   3.921  0.4218  3.2390  1.7830
   39MOL    H70 9266   4.288   0.539   4.162  0.4096 -0.7124  0.3017
   39MOL    H71 9267   3.905   0.277   4.147 -2.3775  1.5385  0.7471
   39MOL    H72 9268   3.850   0.372   4.271 -0.4328  0.2262 -0.8240
   39MOL    H73 9269   3.976   0.247   4.298 -0.8824 -0.9037 -0.7565
   39MOL    C74 9270   4.367   0.438   3.995  0.7502  0.2262 -0.2317
   39MOL    C75 9271   4.491   0.531   4.005  0.0563  0.6023 -0.3004
   39MOL    C76 9272   4.565   0.501   4.141  0.3175 -0.4912 -0.3055
   39MOL    O77 9273   4.573   0.583   4.230  0.3264  0.7450  0.3943
   39MOL    O78 9274   4.629   0.382   4.145 -0.1200  0.7793  0.1825
   39MOL    C79 9275   4.700   0.345   4.265 -0.0812 -0.4726 -0.1107
   39MOL    H80 9276   4.391   0.338   4.032  0.9324  1.1181  2.1857
   39MOL    H81 9277   4.345   0.423   3.890  4.4665  0.5594 -1.1154
   39MOL    H82 9278   4.449   0.632   4.008  2.2052  1.4867  2.5545
   39MOL    H83 9279   4.648   0.371   4.358 -1.7609 -1.4468 -0.7531
   39MOL    H84 9280   4.794   0.401   4.263  0.0312 -0.6896 -0.9899
   39MOL    H85 9281   4.716   0.238   4.262  1.6687 -0.2880  1.7553
   39MOL    C86 9282   4.585   0.534   3.882  0.5300  0.2118 -0.1320
   39MOL    C87 9283   4.536   0.616   3.760 -0.2840  0.3430  0.0405
   39MOL    C88 9284   4.565   0.762   3.783  0.5076  0.3649 -0.6190
   39MOL    O89 9285   4.476   0.846   3.783  0.1417  0.1877  0.0729
   39MOL    O90 9286   4.695   0.790   3.788 -0.1783  0.8099  0.0129
   39MOL    C91 9287   4.735   0.920   3.834 -0.0653 -0.1056 -0.2094
   39MOL    H92 9288   4.686   0.558   3.917 -0.2147  2.8352  0.3306
   39MOL    H93 9289   4.587   0.427   3.862  0.3596  0.2254 -0.2204
   39MOL    H94 9290   4.433   0.583   3.743  0.3743 -0.5227 -2.5545
   39MOL    H95 9291   4.841   0.931   3.811  0.3220 -0.3011  1.4523
   39MOL    H96 9292   4.718   0.934   3.940  0.1096 -2.5678  0.1634
   39MOL    H97 9293   4.679   0.998   3.782  0.0078 -0.5549 -0.9788
   39MOL    C98 9294   4.608   0.585   3.626 -0.1192  0.1615 -0.0596
   39MOL    C99 9295   4.535   0.633   3.499  0.2559 -0.2090  0.8142
   39MOL   C100 9296   4.586   0.772   3.449 -0.0103  0.7580 -0.1050
   39MOL   O101 9297   4.700   0.782   3.403 -0.2149 -0.1724 -0.4681
   39MOL   O102 9298   4.506   0.881   3.480 -0.1662 -0.5493  0.1218
   39MOL   C103 9299   4.561   1.011   3.472  0.0141 -0.2478  0.4088
   39MOL   H104 9300   4.707   0.632   3.620 -0.9726  2.3189  2.1042
   39MOL   H105 9301   4.616   0.477   3.630 -1.6137 -0.0501 -2.1126
   39MOL   H106 9302   4.431   0.647   3.527  0.4948  0.2783  1.4831
   39MOL   H107 9303   4.629   1.012   3.557  1.3284  2.6186 -0.6415
   39MOL   H108 9304   4.492   1.094   3.484 -1.5477 -0.8684 -3.4098
   39MOL   H109 9305   4.627   1.028   3.387  0.7924 -2.1515  0.5972
   39MOL   C110 9306   4.541   0.523   3.387 -0.6643 -0.2606 -0.5843
   39MOL   C111 9307   4.405   0.438   3.374 -0.4009 -0.4393  0.1628
   39MOL   C112 9308   4.407   0.356   3.242  0.2679  0.5018 -0.6106
   39MOL   O113 9309   4.514   0.338   3.186  0.2506 -0.0730  0.0805
   39MOL   O114 9310   4.289   0.310   3.207  0.7770 -0.0119 -0.0453
   39MOL   C115 9311   4.289   0.238   3.088 -0.4985  0.2359  1.1617
   39MOL   H116 9312   4.573   0.559   3.289  2.3713 -1.1334  0.0281
   39MOL   H117 9313   4.623   0.453   3.403  0.6776  1.6188  1.0302
   39MOL   H118 9314   4.325   0.508   3.349  0.4303  0.2160 -0.6593
   39MOL   H119 9315   4.256   0.299   3.003 -1.7281  1.4721  2.4944
   39MOL   H120 9316   4.215   0.158   3.097  1.6238 -2.0622 -1.0369
   39MOL   H121 9317   4.380   0.187   3.058  0.6348  1.7595  1.8960
   39MOL   C122 9318   4.353   0.360   3.493  0.6374 -0.2569  0.4712
   39MOL   C123 9319   4.401   0.210   3.500  0.8807 -0.2189  0.5908
   39MOL   C124 9320   4.553   0.183   3.520 -0.5779 -0.2570  0.4488
   39MOL   O125 9321   4.617   0.139   3.423 -0.1132 -0.2630  0.1378
   39MOL   O126 9322   4.600   0.203   3.647  0.2907 -0.5978 -0.6548
   39MOL   C127 9323   4.737   0.176   3.673 -0.4690  0.1235 -0.3276
   39MOL   H128 9324   4.378   0.411   3.586  2.1401  1.2317 -0.7091
   39MOL   H129 9325   4.245   0.370   3.484  0.6027 -0.7508  0.3415
   39MOL   H130 9326   4.377   0.164   3.404 -0.0656  0.2089  0.6261
   39MOL   H131 9327   4.740   0.148   3.779  0.0595 -0.0413 -0.3830
   39MOL   H132 9328   4.797   0.262   3.643  0.3405 -0.1509  0.4816
   39MOL   H133 9329   4.764   0.086   3.619 -0.4089  1.1797 -2.0987
   39MOL   C134 9330   4.329   0.113   3.592 -0.9147 -0.2784 -0.1158
   39MOL   C135 9331   4.175   0.115   3.564 -0.0494  0.0720  0.5317
   39MOL   C136 9332   4.139   0.032   3.440 -0.0903 -0.0616 -0.1227
   39MOL   O137 9333   4.187   7.856   3.422 -0.9950 -0.0760  0.0228
   39MOL   O138 9334   4.059   0.094   3.360  0.7198  0.3825  0.4313
   39MOL   C139 9335   4.005   0.026   3.246 -0.1590 -0.2171  0.2218
   39MOL   H140 9336   4.372   0.015   3.571  2.0424  1.2158 -1.3849
   39MOL   H141 9337   4.339   0.146   3.695  1.4279  0.5007 -0.5710
   39MOL   H142 9338   4.156   0.220   3.544  1.4993  0.3798  0.6267
   39MOL   H143 9339   3.981   0.090   3.161  0.2691  0.5822  0.7016
   39MOL   H144 9340   3.911   7.912   3.276  1.3894 -1.6708  3.0171
   39MOL   H145 9341   4.076   7.886   3.208  0.3459 -1.0577  2.6954
   39MOL   C146 9342   4.089   0.074   3.690 -0.3974 -0.3987  0.5809
   39MOL   C147 9343   3.937   0.100   3.681  0.0551 -0.5712 -0.1198
   39MOL   C148 9344   3.888   0.004   3.789 -0.3241  0.3286  0.0583
   39MOL   O149 9345   3.884   0.033   3.912 -0.5634 -0.1854 -0.0583
   39MOL   O150 9346   3.843   7.821   3.740 -0.4125 -0.2129 -0.2845
   39MOL   C151 9347   3.774   7.742   3.835  0.5655 -0.5313  0.0826
   39MOL   H152 9348   4.109   7.901   3.711  1.7845  0.2646  2.0784
   39MOL   H153 9349   4.129   0.117   3.782 -0.3654  0.8700 -0.0151
   39MOL   H154 9350   3.894   0.064   3.588 -0.7728 -1.3730  0.5575
   39MOL   H155 9351   3.832   7.698   3.917  1.2030  1.2632  0.6092
   39MOL   H156 9352   3.733   7.653   3.789  0.7167  0.4230 -1.9247
   39MOL   H157 9353   3.694   7.796   3.886 -0.8151 -1.9362 -0.5697
   39MOL   C158 9354   3.898   0.255   3.704 -1.0311  0.6101 -0.5100
   39MOL   C159 9355   3.753   0.279   3.672  0.6693 -0.0267  0.6337
   39MOL   C160 9356   3.660   0.247   3.796  0.5626 -0.0237 -0.2261
   39MOL   O161 9357   3.569   0.164   3.782 -0.2039 -0.9782  0.0594
   39MOL   O162 9358   3.697   0.305   3.912  0.0355  0.2022 -0.2204
   39MOL   C163 9359   3.641   0.257   4.036 -0.6257 -0.4224  0.2601
   39MOL   H164 9360   3.931   0.289   3.802  0.2874 -0.0038 -0.7265
   39MOL   H165 9361   3.957   0.316   3.636  0.9003  0.4480  0.9597
   39MOL   H166 9362   3.722   0.212   3.593  0.8404  1.6634 -0.8945
   39MOL   H167 9363   3.633   0.329   4.118  1.1087  2.2410 -1.8286
   39MOL   H168 9364   3.709   0.173   4.055 -0.8517 -0.8876 -0.9658
   39MOL   H169 9365   3.547   0.209   4.010 -0.2426  0.0016 -2.0386
   39MOL   C170 9366   3.718   0.424   3.632 -0.3881 -0.0656 -0.6086
   39MOL   C171 9367   3.600   0.428   3.522 -0.1448  0.1705  0.0905
   39MOL   C172 9368   3.625   0.333   3.401  0.3352 -0.4316  0.1096
   39MOL   O173 9369   3.569   0.228   3.388  0.2446  0.5031  0.4224
   39MOL   O174 9370   3.722   0.379   3.313 -0.6968  0.4324 -0.3585
   39MOL   C175 9371   3.757   0.291   3.209 -0.4465  0.1259 -0.8952
   39MOL   H176 9372   3.702   0.485   3.721 -1.2285 -1.3912  0.1572
   39MOL   H177 9373   3.802   0.474   3.585  1.1271 -2.1151 -0.1192
   39MOL   H178 9374   3.618   0.533   3.497 -0.5798  0.6130  1.5746
   39MOL   H179 9375   3.833   0.223   3.248 -1.1145 -1.8656 -2.9191
   39MOL   H180 9376   3.807   0.344   3.128 -0.8270 -1.2884 -2.0834
   39MOL   H181 9377   3.681   0.230   3.158 -1.0850  0.8105 -0.7777
   39MOL   C182 9378   3.453   0.425   3.568  0.6170 -0.2157 -0.0840
   39MOL   C183 9379   3.412   0.557   3.649  0.1247 -0.0646 -0.0830
   39MOL   C184 9380   3.425   0.691   3.570 -0.0566 -0.1634 -0.2554
   39MOL   O185 9381   3.511   0.766   3.605 -0.4082  0.3495 -0.4498
   39MOL   O186 9382   3.344   0.710   3.463 -0.2165  0.9137 -0.3126
   39MOL   C187 9383   3.369   0.815   3.380 -0.0725 -0.0297  0.3695
   39MOL   H188 9384   3.387   0.418   3.482  0.3888  0.1356  0.0615
   39MOL   H189 9385   3.439   0.328   3.616  0.0388 -1.1333 -2.0474
   39MOL   H190 9386   3.474   0.564   3.738  0.6297  1.1337 -0.5203
   39MOL   H191 9387   3.465   0.808   3.329 -0.7197  2.1378 -1.2122
   39MOL   H192 9388   3.352   0.905   3.440  1.1888  0.2893  0.2588
   39MOL   H193 9389   3.306   0.818   3.291  0.9933 -1.3477 -0.4348
   39MOL   C194 9390   3.260   0.550   3.697 -0.4886  0.4316  0.5149
   39MOL   C195 9391   3.247   0.564   3.848  0.4963 -0.1571 -0.4805
   39MOL   C196 9392   3.106   0.600   3.884 -0.4254 -0.0857 -0.1987
   39MOL   O197 9393   3.082   0.708   3.936  0.2081  0.0928  0.0476
   39MOL   O198 9394   3.017   0.513   3.849 -0.1992  0.6771  0.3095
   39MOL   C199 9395   2.876   0.535   3.876  0.2308  0.4676 -0.2845
   39MOL   H200 9396   3.195   0.620   3.644  0.1057 -0.3996 -1.3488
   39MOL   H201 9397   3.242   0.445   3.673 -0.7923  0.7681 -0.7647
   39MOL   H202 9398   3.308   0.652   3.869 -0.3835  0.3969 -0.2123
   39MOL   H203 9399   2.832   0.599   3.800 -1.4126  0.0306  0.2797
   39MOL   H204 9400   2.862   0.590   3.969  0.2444  0.5849 -0.3515
   39MOL   H205 9401   2.823   0.440   3.876  3.3917 -1.3676  1.5770
   39MOL   C206 9402   3.305   0.439   3.928 -0.6974 -0.3320  0.2136
   39MOL   C207 9403   3.270   0.425   4.077 -0.9532 -0.2624 -0.1273
   39MOL   C208 9404   3.260   0.282   4.133  0.0456 -0.1813 -0.0579
   39MOL   O209 9405   3.322   0.184   4.085  0.3767  0.6606 -0.6289
   39MOL   O210 9406   3.170   0.279   4.243  0.0746 -0.3778 -0.5716
   39MOL   C211 9407   3.146   0.153   4.306  0.4330 -0.7051 -0.0418
   39MOL   H212 9408   3.261   0.356   3.873 -2.8018  1.9200 -1.6452
   39MOL   H213 9409   3.413   0.424   3.927 -0.6588 -0.0271 -1.6393
   39MOL   H214 9410   3.163   0.447   4.078 -1.0267 -0.6369  0.3052
   39MOL   H215 9411   3.087   0.100   4.231 -1.9336  0.4600  0.9254
   39MOL   H216 9412   3.094   0.155   4.402  0.7089 -0.9315  0.1106
   39MOL   H217 9413   3.231   0.088   4.326  0.0755 -0.6026  1.8397
   39MOL   C218 9414   3.323   0.528   4.180 -0.0719 -0.5105  0.0405
   39MOL   C219 9415   3.474   0.572   4.181  0.7491 -1.4117  0.2405
   39MOL   C220 9416   3.526   0.648   4.061 -0.0156  0.3719 -0.5375
   39MOL   O221 9417   3.617   0.598   3.999  0.0460  0.2779 -0.1203
   39MOL   O222 9418   3.471   0.768   4.040 -0.1760  0.4886  0.2149
   39MOL   C223 9419   3.510   0.848   3.929  0.1494  0.1460  0.1960
   39MOL   H224 9420   3.259   0.616   4.176  0.7509  0.1661  1.8300
   39MOL   H225 9421   3.288   0.499   4.279  1.0178  1.2070  0.9454
   39MOL   H226 9422   3.543   0.487   4.189  0.3250 -1.5581  2.8254
   39MOL   H227 9423   3.613   0.880   3.946  0.0938 -1.2510  3.4244
   39MOL   H228 9424   3.449   0.938   3.936  0.4494  0.4988 -1.4976
   39MOL   H229 9425   3.489   0.794   3.836  1.1351  0.2435 -0.0882
   39MOL   C230 9426   3.490   0.659   4.313 -0.9010  0.6209  1.0369
   39MOL   C231 9427   3.639   0.684   4.343 -0.5341  0.6529  0.6872
   39MOL   C232 9428   3.702   0.620   4.467 -0.8152 -0.4771  0.2624
   39MOL   O233 9429   3.699   0.502   4.497  0.0727 -0.1762  0.3099
   39MOL   O234 9430   3.762   0.718   4.547 -0.1853  0.2614 -0.5587
   39MOL   C235 9431   3.835   0.680   4.660 -0.1642  0.8439  0.0781
   39MOL   H236 9432   3.444   0.758   4.316 -0.1127  1.0189  0.4376
   39MOL   H237 9433   3.456   0.604   4.400 -1.7125  1.4643  1.2545
   39MOL   H238 9434   3.641   0.790   4.368  1.7826  0.9343 -0.5562
   39MOL   H239 9435   3.763   0.633   4.727  0.5217 -1.5956 -0.8175
   39MOL   H240 9436   3.890   0.756   4.716  1.7891  0.2002 -0.9085
   39MOL   H241 9437   3.899   0.594   4.637  0.6434  0.9907  1.6726
   39MOL   H242 9438   3.706   0.663   4.260  2.9341  0.4194  3.4182
   40MOL     C1 9439   4.081   3.128   6.188 -0.4497 -0.0198 -0.1418
   40MOL     C2 9440   4.010   3.267   6.211 -0.7579  0.2512 -0.1988
   40MOL     C3 9441   3.868   3.273   6.155  0.2267  0.1702 -0.2981
   40MOL     O4 9442   3.767   3.277   6.225 -0.1247 -0.0713  0.4185
   40MOL     O5 9443   3.862   3.256   6.024  0.2545 -0.1533 -0.5708
   40MOL     C6 9444   3.746   3.289   5.943 -0.3891 -0.3524  0.1624
   40MOL     H7 9445   4.052   3.072   6.277  1.6056  3.7679  3.0813
   40MOL     H8 9446   4.189   3.140   6.192 -0.5766  0.9786  0.4538
   40MOL     H9 9447   4.046   3.347   6.147 -1.8682  1.2831  0.4642
   40MOL    H10 9448   3.666   3.217   5.964  0.0459 -0.5282  1.2428
   40MOL    H11 9449   3.761   3.291   5.835 -0.5604  0.2067  0.1475
   40MOL    H12 9450   3.701   3.380   5.983  1.1687  1.0927 -1.3138
   40MOL    H13 9451   4.057   3.077   6.094 -0.5837  0.2745 -0.2660
   40MOL    C14 9452   4.024   3.307   6.358  0.1911 -0.4152 -0.3321
   40MOL    C15 9453   4.161   3.372   6.386  0.8837  0.4607  0.0650
   40MOL    C16 9454   4.169   3.512   6.319 -0.4526  0.5972  0.1719
   40MOL    O17 9455   4.260   3.533   6.237  0.0090 -0.1331 -0.4186
   40MOL    O18 9456   4.105   3.599   6.382 -0.2617 -0.7538 -0.1820
   40MOL    C19 9457   4.128   3.739   6.358  0.0809  0.4989  0.2727
   40MOL    H20 9458   3.947   3.380   6.385 -0.4006 -1.0594 -0.2791
   40MOL    H21 9459   4.023   3.221   6.425 -0.9683  0.0618  0.2925
   40MOL    H22 9460   4.232   3.303   6.340 -1.5820 -1.7313 -0.5390
   40MOL    H23 9461   4.229   3.760   6.321 -0.6184 -0.3064 -2.1890
   40MOL    H24 9462   4.111   3.788   6.454  0.8717  1.1775  0.0771
   40MOL    H25 9463   4.053   3.770   6.286  1.1635  1.7546 -0.3442
   40MOL    C26 9464   4.198   3.381   6.537 -0.0966  0.2620  0.4107
   40MOL    C27 9465   4.345   3.375   6.562 -0.4620  0.0976  0.8155
   40MOL    C28 9466   4.398   3.516   6.583 -0.0866 -0.7607  0.2613
   40MOL    O29 9467   4.395   3.569   6.692 -0.2500 -0.0403  0.3830
   40MOL    O30 9468   4.456   3.568   6.475 -0.3980  0.1140  0.0066
   40MOL    C31 9469   4.498   3.706   6.474 -0.0054  1.0863  0.2917
   40MOL    H32 9470   4.136   3.460   6.580 -0.1764 -0.9371  2.5605
   40MOL    H33 9471   4.157   3.288   6.576  0.7268 -0.2213  0.1272
   40MOL    H34 9472   4.402   3.338   6.477 -0.2649  1.0185  0.5344
   40MOL    H35 9473   4.565   3.722   6.390  0.6946 -0.4509  0.5580
   40MOL    H36 9474   4.536   3.744   6.569  0.4159  1.9220 -0.2095
   40MOL    H37 9475   4.414   3.770   6.445 -0.3249  0.2574 -0.6210
   40MOL    C38 9476   4.381   3.284   6.679  0.2686 -0.1539 -0.1342
   40MOL    C39 9477   4.514   3.208   6.646  0.0679  0.5930  0.4817
   40MOL    C40 9478   4.630   3.243   6.746 -0.1079  0.0908  0.3977
   40MOL    O41 9479   4.648   3.175   6.851 -0.6115  0.6998  0.0236
   40MOL    O42 9480   4.699   3.343   6.700  0.1425  0.6395 -0.6091
   40MOL    C43 9481   4.815   3.394   6.767  0.5496 -0.0503  0.2138
   40MOL    H44 9482   4.401   3.337   6.772 -4.5247  2.1334 -0.2223
   40MOL    H45 9483   4.312   3.207   6.712  0.1570 -0.0723 -0.1747
   40MOL    H46 9484   4.560   3.243   6.553  0.1612 -1.5617 -0.3316
   40MOL    H47 9485   4.859   3.476   6.710  1.7010 -1.2665 -0.6820
   40MOL    H48 9486   4.893   3.320   6.784 -0.5274 -1.2204  0.1109
   40MOL    H49 9487   4.783   3.437   6.862 -3.2625  0.1209 -1.0463
   40MOL    C50 9488   4.490   3.054   6.645 -0.0612  0.1067 -0.4974
   40MOL    C51 9489   4.397   3.000   6.536  0.2180 -0.0153 -0.2173
   40MOL    C52 9490   4.482   3.006   6.406  0.5990 -0.5214  0.3816
   40MOL    O53 9491   4.577   2.925   6.393  0.0793 -0.0718  0.5443
   40MOL    O54 9492   4.438   3.104   6.316 -0.1838 -0.0811  0.1445
   40MOL    C55 9493   4.495   3.134   6.184 -0.4572 -0.4529 -0.6819
   40MOL    H56 9494   4.590   3.010   6.639 -0.2677 -0.4519  0.0934
   40MOL    H57 9495   4.447   3.031   6.742  1.3933 -0.4767  0.0237
   40MOL    H58 9496   4.313   3.069   6.526  0.2158  0.0675  0.3250
   40MOL    H59 9497   4.460   3.237   6.175 -0.3335 -0.2367  1.1536
   40MOL    H60 9498   4.455   3.067   6.108 -2.5298  1.8775 -1.7468
   40MOL    H61 9499   4.602   3.122   6.196 -0.6342 -0.0898  1.5590
   40MOL    C62 9500   4.363   2.858   6.565  0.0662  0.4054  0.1344
   40MOL    C63 9501   4.273   2.839   6.691  0.1917 -0.5333 -0.0284
   40MOL    C64 9502   4.134   2.899   6.660 -0.5819  0.7152 -0.3312
   40MOL    O65 9503   4.098   2.994   6.725 -0.5045 -0.3780  0.0110
   40MOL    O66 9504   4.076   2.831   6.564 -0.2837  0.1161 -0.0494
   40MOL    C67 9505   3.946   2.872   6.522  0.4809  0.5848 -0.0346
   40MOL    H68 9506   4.315   2.818   6.476  1.4729 -1.4987  0.2128
   40MOL    H69 9507   4.459   2.808   6.575  0.4802  1.3931  1.2381
   40MOL    H70 9508   4.320   2.890   6.775  2.3820 -0.6826 -1.1249
   40MOL    H71 9509   3.928   2.967   6.572 -4.6517  2.2956 -4.7265
   40MOL    H72 9510   3.881   2.789   6.551 -0.0187  0.9577 -0.0794
   40MOL    H73 9511   3.938   2.895   6.416 -2.7957 -0.3574 -0.0459
   40MOL    C74 9512   4.263   2.696   6.742  0.1616  0.8119 -0.3299
   40MOL    C75 9513   4.393   2.628   6.783  0.1556 -0.4530 -0.2050
   40MOL    C76 9514   4.485   2.723   6.861  0.9380  0.4587 -0.0974
   40MOL    O77 9515   4.593   2.754   6.813  0.1648  0.2394 -0.4837
   40MOL    O78 9516   4.433   2.766   6.982 -0.2858 -0.7319  0.1691
   40MOL    C79 9517   4.505   2.877   7.050  0.0474  0.8080  0.3418
   40MOL    H80 9518   4.195   2.702   6.827 -0.5465  1.2784 -0.9237
   40MOL    H81 9519   4.214   2.638   6.665 -0.5590  0.1200  0.6452
   40MOL    H82 9520   4.439   2.596   6.690  1.0171 -0.8423  0.3473
   40MOL    H83 9521   4.447   2.890   7.141  0.6667 -1.9466  1.1928
   40MOL    H84 9522   4.508   2.962   6.982 -1.4548  0.9103  0.3918
   40MOL    H85 9523   4.610   2.857   7.073 -0.0839 -0.8231 -0.3765
   40MOL    C86 9524   4.378   2.496   6.860  0.2166 -0.7522  0.3092
   40MOL    C87 9525   4.441   2.369   6.794  0.4874  0.0093 -0.4768
   40MOL    C88 9526   4.575   2.323   6.859  0.0346 -0.6552  0.4216
   40MOL    O89 9527   4.682   2.351   6.808  0.3611 -0.2445 -0.5283
   40MOL    O90 9528   4.553   2.254   6.971 -0.7959  0.3685  0.1284
   40MOL    C91 9529   4.664   2.218   7.050  0.3551 -0.0703 -0.5267
   40MOL    H92 9530   4.419   2.508   6.960  1.0259  1.6877 -0.2663
   40MOL    H93 9531   4.273   2.476   6.879 -0.0742  1.4523  1.1371
   40MOL    H94 9532   4.476   2.401   6.696 -0.7884  2.6857 -0.1119
   40MOL    H95 9533   4.740   2.155   7.002 -0.4992  0.9007 -3.2591
   40MOL    H96 9534   4.637   2.160   7.138 -0.1417  0.1698 -0.5217
   40MOL    H97 9535   4.713   2.307   7.089  0.7984  0.0553 -1.3563
   40MOL    C98 9536   4.345   2.252   6.771  0.4709  0.5372  0.5327
   40MOL    C99 9537   4.256   2.286   6.657 -0.2377 -0.4212  0.1575
   40MOL   C100 9538   4.323   2.284   6.517 -0.0073 -0.4945  0.5225
   40MOL   O101 9539   4.327   2.379   6.439  0.3177  0.4976  0.3374
   40MOL   O102 9540   4.367   2.166   6.492 -0.3667  0.1957  0.5449
   40MOL   C103 9541   4.433   2.137   6.363 -0.4166 -0.0422  0.4364
   40MOL   H104 9542   4.397   2.158   6.755 -1.5772 -0.8591  1.8275
   40MOL   H105 9543   4.295   2.253   6.867 -0.1163  0.1692  0.2376
   40MOL   H106 9544   4.217   2.386   6.677 -2.1299 -1.7651  3.6031
   40MOL   H107 9545   4.542   2.137   6.364 -0.4243 -0.5207  2.3602
   40MOL   H108 9546   4.395   2.205   6.286  2.0787  1.3576  0.4005
   40MOL   H109 9547   4.406   2.039   6.323  1.8051 -0.2220 -0.6959
   40MOL   C110 9548   4.132   2.195   6.650  0.2790  0.0774 -0.0034
   40MOL   C111 9549   4.026   2.233   6.546 -0.0441  0.3621 -0.0893
   40MOL   C112 9550   3.936   2.112   6.513 -0.4547  0.0635 -0.3931
   40MOL   O113 9551   3.911   2.077   6.398  0.2829  0.8495  0.0836
   40MOL   O114 9552   3.883   2.053   6.626 -0.5831  0.4512 -0.0867
   40MOL   C115 9553   3.815   1.929   6.624  0.3428 -0.0390 -0.7313
   40MOL   H116 9554   4.148   2.088   6.650 -1.6595 -0.2343  0.5769
   40MOL   H117 9555   4.083   2.199   6.748 -1.9499 -1.4688 -1.0280
   40MOL   H118 9556   4.078   2.255   6.453  0.9363  0.3936  0.4495
   40MOL   H119 9557   3.782   1.901   6.724  2.9813  0.4486  0.3143
   40MOL   H120 9558   3.867   1.843   6.581  0.2480 -1.3225  1.6182
   40MOL   H121 9559   3.728   1.949   6.563 -1.3626 -0.6752  1.4416
   40MOL   C122 9560   3.947   2.352   6.594 -0.1330  0.2727  0.5712
   40MOL   C123 9561   3.879   2.419   6.472  0.2616  0.0387 -0.1807
   40MOL   C124 9562   3.771   2.516   6.513  0.4525  0.8466 -0.1653
   40MOL   O125 9563   3.769   2.575   6.623 -0.1312  0.2757 -0.3353
   40MOL   O126 9564   3.683   2.540   6.410  0.7838 -0.0831 -0.1600
   40MOL   C127 9565   3.571   2.630   6.427  0.0916  0.4842  0.0156
   40MOL   H128 9566   3.863   2.318   6.654 -0.4315  0.2404  0.1365
   40MOL   H129 9567   4.011   2.426   6.643 -0.2061  0.3421  0.5635
   40MOL   H130 9568   3.838   2.337   6.413 -1.4991 -0.0429  1.1225
   40MOL   H131 9569   3.506   2.602   6.510  0.1556 -1.4009 -0.5464
   40MOL   H132 9570   3.509   2.616   6.339  1.6243 -0.1198 -0.9747
   40MOL   H133 9571   3.613   2.731   6.433  1.9886 -0.3115  0.4106
   40MOL   C134 9572   3.981   2.499   6.392 -0.2958  0.1073 -0.0565
   40MOL   C135 9573   3.933   2.534   6.248 -0.1543  0.1616  0.6232
   40MOL   C136 9574   4.022   2.657   6.204 -0.0425 -1.0692 -0.3519
   40MOL   O137 9575   3.972   2.766   6.173  0.1764  0.7222 -0.4039
   40MOL   O138 9576   4.157   2.633   6.205  0.2239 -0.6651 -0.5862
   40MOL   C139 9577   4.246   2.737   6.171 -0.8821  0.3929 -0.7413
   40MOL   H140 9578   3.999   2.596   6.439 -1.1696  1.3732 -2.2766
   40MOL   H141 9579   4.078   2.449   6.391  0.2421  1.1072 -3.5296
   40MOL   H142 9580   3.836   2.582   6.241 -0.4759 -0.4873  0.6133
   40MOL   H143 9581   4.260   2.812   6.249  0.2052 -0.5434 -0.0089
   40MOL   H144 9582   4.218   2.783   6.076 -0.0140 -2.8604 -2.6593
   40MOL   H145 9583   4.342   2.687   6.157 -0.4770  0.3255  1.9183
   40MOL   C146 9584   3.950   2.419   6.149 -1.1011 -0.0161  0.0507
   40MOL   C147 9585   3.876   2.437   6.013  0.2329  0.0799  0.5721
   40MOL   C148 9586   3.935   2.339   5.906 -0.3914 -0.2046  0.3177
   40MOL   O149 9587   3.994   2.374   5.804 -0.4652  0.3297  0.5987
   40MOL   O150 9588   3.911   2.217   5.938 -0.4125  0.0916  0.1856
   40MOL   C151 9589   3.974   2.109   5.867  0.5947  0.2923 -0.0207
   40MOL   H152 9590   4.059   2.421   6.145 -1.0659 -0.1619  0.8065
   40MOL   H153 9591   3.936   2.318   6.188  1.4309 -0.7827 -0.9125
   40MOL   H154 9592   3.911   2.533   5.975 -2.2119  0.0002 -2.0449
   40MOL   H155 9593   4.002   2.136   5.765  0.4356 -0.8676 -0.3768
   40MOL   H156 9594   3.903   2.029   5.844  0.9443 -0.2837  0.8667
   40MOL   H157 9595   4.067   2.071   5.908  0.3955 -1.1292 -0.8661
   40MOL   C158 9596   3.719   2.422   6.035 -0.1165  0.2454 -0.6076
   40MOL   C159 9597   3.611   2.509   5.953 -0.0070 -0.3333  0.1652
   40MOL   C160 9598   3.654   2.661   5.969 -0.4554  0.0174  0.5114
   40MOL   O161 9599   3.670   2.739   5.875  0.0894  0.3514  0.4401
   40MOL   O162 9600   3.672   2.692   6.102  0.0185  0.5042 -0.6707
   40MOL   C163 9601   3.674   2.829   6.140  0.5300 -0.2979 -0.1714
   40MOL   H164 9602   3.699   2.319   6.007  1.2858  0.1796 -1.4488
   40MOL   H165 9603   3.689   2.419   6.139 -0.2588 -0.1376 -0.6584
   40MOL   H166 9604   3.510   2.497   5.994 -1.3103  0.4639 -2.6968
   40MOL   H167 9605   3.570   2.854   6.158  0.5332 -0.5343  0.1835
   40MOL   H168 9606   3.712   2.895   6.063 -2.3059  1.9533  0.2793
   40MOL   H169 9607   3.727   2.840   6.235  0.4386 -0.1113 -0.1417
   40MOL   C170 9608   3.595   2.466   5.800 -0.1378  0.3626  0.5085
   40MOL   C171 9609   3.542   2.323   5.770  0.8888  0.0565 -0.0805
   40MOL   C172 9610   3.410   2.295   5.851  0.5239 -0.0830  0.0955
   40MOL   O173 9611   3.390   2.206   5.939 -0.0880  0.3055 -0.3193
   40MOL   O174 9612   3.307   2.376   5.809  0.4623  0.0413  0.6956
   40MOL   C175 9613   3.187   2.369   5.878 -0.2537 -0.1120 -0.3183
   40MOL   H176 9614   3.531   2.542   5.756 -0.9388 -1.2264 -1.1231
   40MOL   H177 9615   3.697   2.465   5.762  0.3214 -1.9209  1.6965
   40MOL   H178 9616   3.620   2.255   5.802 -0.3915 -2.6281 -2.4964
   40MOL   H179 9617   3.198   2.354   5.986 -2.2134  1.3697  0.1175
   40MOL   H180 9618   3.137   2.281   5.838 -1.1965  0.9931 -1.6392
   40MOL   H181 9619   3.120   2.454   5.866 -1.5844 -0.9304  1.1663
   40MOL   C182 9620   3.528   2.290   5.619  0.4299  0.3131 -0.3125
   40MOL   C183 9621   3.470   2.155   5.554  0.8371  0.3346  0.6282
   40MOL   C184 9622   3.539   2.022   5.611 -0.0457 -0.3798 -0.2376
   40MOL   O185 9623   3.546   1.914   5.551  0.3146 -0.0852 -0.4177
   40MOL   O186 9624   3.589   2.043   5.727  0.0344  0.3482 -0.6630
   40MOL   C187 9625   3.632   1.931   5.809 -0.1496  0.8333 -0.3422
   40MOL   H188 9626   3.468   2.372   5.578 -2.4448 -1.4889  0.1690
   40MOL   H189 9627   3.627   2.308   5.576  0.7183 -0.9442 -0.1841
   40MOL   H190 9628   3.501   2.173   5.451  0.0021 -1.7179 -0.0084
   40MOL   H191 9629   3.549   1.880   5.857 -0.1745 -2.0792 -3.2598
   40MOL   H192 9630   3.707   1.968   5.879  1.6263  0.5079 -2.0276
   40MOL   H193 9631   3.685   1.857   5.749 -0.6706 -1.1427  1.5661
   40MOL   C194 9632   3.313   2.141   5.563 -0.2383  0.0885 -0.1715
   40MOL   C195 9633   3.223   2.241   5.480  0.2614  0.5521  0.4808
   40MOL   C196 9634   3.260   2.235   5.338  0.4245  0.4474  0.3197
   40MOL   O197 9635   3.202   2.154   5.268  0.5130 -0.4557 -0.4232
   40MOL   O198 9636   3.345   2.324   5.283 -0.2636 -0.1720 -0.9890
   40MOL   C199 9637   3.372   2.323   5.143 -0.3837  0.1330  0.1501
   40MOL   H200 9638   3.283   2.040   5.536 -0.9421  0.1286  0.4768
   40MOL   H201 9639   3.276   2.151   5.664 -2.1384 -1.2929 -0.7091
   40MOL   H202 9640   3.252   2.342   5.509 -1.5826  1.3181 -0.2829
   40MOL   H203 9641   3.414   2.417   5.105 -0.3425  0.1859  0.3297
   40MOL   H204 9642   3.285   2.289   5.087  0.5670 -1.5955 -0.3145
   40MOL   H205 9643   3.453   2.252   5.127 -0.9596 -0.3411 -0.7262
   40MOL   C206 9644   3.070   2.224   5.526  0.6931  0.3464  0.3820
   40MOL   C207 9645   3.000   2.361   5.549 -0.2409 -0.2018  0.3535
   40MOL   C208 9646   2.986   2.449   5.423 -0.1064 -0.2838  0.3458
   40MOL   O209 9647   2.906   2.416   5.333 -0.3922  0.5867 -0.7666
   40MOL   O210 9648   3.079   2.548   5.409  0.0538 -0.6826 -0.4248
   40MOL   C211 9649   3.090   2.626   5.297 -0.2041  0.3761  0.1524
   40MOL   H212 9650   3.013   2.165   5.454 -0.1440  2.5121 -0.7828
   40MOL   H213 9651   3.067   2.175   5.623  1.4840 -1.7521 -0.6286
   40MOL   H214 9652   3.067   2.416   5.615  0.6830  2.1441 -2.4340
   40MOL   H215 9653   2.992   2.652   5.259  0.5811 -0.3886 -2.5331
   40MOL   H216 9654   3.157   2.587   5.219 -0.8083  1.8602 -1.1396
   40MOL   H217 9655   3.129   2.722   5.332 -0.7582  0.6770 -0.0461
   40MOL   C218 9656   2.865   2.346   5.630 -0.3103 -0.1574 -1.2280
   40MOL   C219 9657   2.777   2.475   5.644 -0.7937  0.3371  0.4062
   40MOL   C220 9658   2.631   2.442   5.671  0.1398 -0.0080 -0.6564
   40MOL   O221 9659   2.538   2.496   5.609 -0.6270  0.1985 -1.0249
   40MOL   O222 9660   2.617   2.355   5.768 -0.2109  0.0392 -0.0056
   40MOL   C223 9661   2.479   2.324   5.796 -0.0115  0.0846  0.4847
   40MOL   H224 9662   2.812   2.262   5.584 -0.1311 -0.4431 -0.9142
   40MOL   H225 9663   2.893   2.312   5.730 -0.3675 -0.7760 -1.4218
   40MOL   H226 9664   2.788   2.523   5.547 -0.4299  1.1450  0.8461
   40MOL   H227 9665   2.475   2.279   5.895  0.1555 -2.2371 -0.5394
   40MOL   H228 9666   2.451   2.254   5.718 -2.6230 -0.2791  1.7043
   40MOL   H229 9667   2.402   2.401   5.791  0.7633  0.8210 -0.3326
   40MOL   C230 9668   2.845   2.571   5.741  0.6889  0.6868 -0.1701
   40MOL   C231 9669   2.785   2.716   5.749  0.3827 -0.1691  0.2335
   40MOL   C232 9670   2.857   2.811   5.655  0.4506  1.0518 -0.2284
   40MOL   O233 9671   2.856   2.790   5.537  0.0968  0.6105  0.2137
   40MOL   O234 9672   2.892   2.919   5.726  0.5599  0.4114  0.0767
   40MOL   C235 9673   2.957   3.019   5.660 -0.3203 -1.4467 -0.0262
   40MOL   H236 9674   2.835   2.526   5.840  0.9441 -0.3306 -0.6115
   40MOL   H237 9675   2.950   2.580   5.714  1.4843 -3.5240  1.1542
   40MOL   H238 9676   2.798   2.740   5.855 -3.0343 -0.1410  0.7189
   40MOL   H239 9677   3.055   2.989   5.622  0.2002  1.7302 -1.2721
   40MOL   H240 9678   2.974   3.107   5.722  0.9647  0.4271 -2.9753
   40MOL   H241 9679   2.890   3.053   5.581 -0.7618  0.6896  1.2309
   40MOL   H242 9680   2.678   2.730   5.731  0.3832 -0.5535 -0.0910
   41MOL     C1 9681   6.735   0.164   6.498 -0.3885  0.0279 -0.5687
   41MOL     C2 9682   6.760   0.016   6.535 -0.0492 -0.2999 -0.7163
   41MOL     C3 9683   6.868   7.881   6.447  0.5294 -0.4165 -1.1730
   41MOL     O4 9684   6.967   0.002   6.399 -0.0844  0.8134  0.5038
   41MOL     O5 9685   6.838   7.752   6.438 -0.4613 -0.5789 -0.1681
   41MOL     C6 9686   6.916   7.668   6.361  0.6577 -0.1995 -0.0851
   41MOL     H7 9687   6.643   0.189   6.550 -1.2005  0.4834 -2.1997
   41MOL     H8 9688   6.719   0.167   6.390  0.4786 -2.7190 -0.8083
   41MOL     H9 9689   6.678   7.893   6.490  0.2698 -0.1697 -1.4711
   41MOL    H10 9690   6.860   7.576   6.343  1.3459 -0.7417  0.5430
   41MOL    H11 9691   7.002   7.633   6.418  0.9517  0.3511 -0.1898
   41MOL    H12 9692   6.939   7.714   6.264 -1.5359 -0.3794 -0.7230
   41MOL    H13 9693   6.815   0.228   6.535  0.1800 -0.3251 -1.1932
   41MOL    C14 9694   6.774   7.928   6.692 -0.4035 -0.3866  0.1889
   41MOL    C15 9695   6.711   7.806   6.759 -0.5490 -0.0547 -0.2417
   41MOL    C16 9696   6.564   7.794   6.723 -0.0513  0.1893  0.2478
   41MOL    O17 9697   6.526   7.718   6.631 -0.0692  0.4040 -0.4578
   41MOL    O18 9698   6.481   7.879   6.799 -0.1580  0.0267  0.1298
   41MOL    C19 9699   6.338   7.861   6.783  0.1219  0.8981 -0.0275
   41MOL    H20 9700   6.869   0.021   6.738 -0.7914 -0.2409  0.9108
   41MOL    H21 9701   6.719   0.082   6.729  1.0487  1.0208 -0.8635
   41MOL    H22 9702   6.699   7.834   6.864  1.5754  0.0558 -0.0039
   41MOL    H23 9703   6.301   7.760   6.766  0.6408  0.4091  1.6382
   41MOL    H24 9704   6.310   7.896   6.684  3.0745 -0.3721 -1.3724
   41MOL    H25 9705   6.294   7.910   6.870  0.2420  2.6781 -0.9435
   41MOL    C26 9706   6.793   7.672   6.747  0.6996 -0.5363  0.1941
   41MOL    C27 9707   6.938   7.680   6.781 -0.1908 -0.0675 -0.2058
   41MOL    C28 9708   6.959   7.738   6.919  0.2496 -0.3233 -0.1787
   41MOL    O29 9709   6.869   7.730   7.004 -0.5541 -0.1371  0.1790
   41MOL    O30 9710   7.068   7.801   6.938  0.2301 -0.1898 -0.0235
   41MOL    C31 9711   7.093   7.868   7.063 -0.7262 -0.8499  0.0857
   41MOL    H32 9712   6.750   7.601   6.818 -0.3334  1.1399  1.2790
   41MOL    H33 9713   6.774   7.639   6.645 -0.0671  1.8182 -0.4534
   41MOL    H34 9714   6.966   7.755   6.707  0.8669 -2.0916 -1.8829
   41MOL    H35 9715   7.187   7.921   7.069 -1.2662  0.3998 -1.8932
   41MOL    H36 9716   7.057   7.808   7.147  0.3092 -1.6329 -0.0270
   41MOL    H37 9717   7.032   0.024   7.079  0.9177 -0.3889  4.3124
   41MOL    C38 9718   7.009   7.543   6.764  0.1294 -0.1782  0.3592
   41MOL    C39 9719   7.162   7.554   6.784 -0.5121  0.0819 -0.0363
   41MOL    C40 9720   7.223   7.415   6.792  0.0705  0.2078  0.2069
   41MOL    O41 9721   7.273   7.373   6.894  0.4352 -0.3720 -0.2652
   41MOL    O42 9722   7.211   7.343   6.682 -0.0759  0.2981  0.3465
   41MOL    C43 9723   7.230   7.210   6.685 -0.7152  0.2288 -0.0892
   41MOL    H44 9724   6.970   7.466   6.831 -0.3359 -0.6054 -0.3958
   41MOL    H45 9725   6.991   7.509   6.662 -0.2112 -0.9448  0.6726
   41MOL    H46 9726   7.188   7.587   6.885 -0.6509 -3.0674  1.0779
   41MOL    H47 9727   7.332   7.188   6.718 -1.1607 -0.4483  0.8552
   41MOL    H48 9728   7.212   7.177   6.582  3.3765 -1.2857 -0.4183
   41MOL    H49 9729   7.144   7.169   6.737 -0.3922 -1.7279 -1.0395
   41MOL    C50 9730   7.240   7.629   6.671  0.7246  0.1601 -0.1435
   41MOL    C51 9731   7.273   7.774   6.702 -0.2506 -0.2849 -1.3566
   41MOL    C52 9732   7.383   7.793   6.814 -0.4283  0.8415  0.3164
   41MOL    O53 9733   7.381   7.889   6.886 -0.6790 -0.1907 -0.0722
   41MOL    O54 9734   7.464   7.684   6.839  0.3023  0.4139  0.0536
   41MOL    C55 9735   7.581   7.703   6.917  1.1736  0.5458  0.0823
   41MOL    H56 9736   7.337   7.589   6.641  0.5314 -0.2158 -0.2687
   41MOL    H57 9737   7.182   7.619   6.579  1.2935  2.0165 -0.7419
   41MOL    H58 9738   7.176   7.812   6.734  0.0063 -0.4669 -0.3535
   41MOL    H59 9739   7.575   7.781   6.993 -0.6003 -1.3263  1.9258
   41MOL    H60 9740   7.659   7.726   6.844  1.3040 -0.9357 -0.2725
   41MOL    H61 9741   7.610   7.604   6.954  0.8700  0.8377  1.1066
   41MOL    C62 9742   7.284   7.864   6.576 -0.1135 -0.1758  0.4380
   41MOL    C63 9743   7.296   0.080   6.607 -0.4146  0.3018 -0.0199
   41MOL    C64 9744   7.300   0.162   6.476 -0.4813 -0.3240  0.2132
   41MOL    O65 9745   7.214   0.240   6.444  0.0535  0.0261  0.3349
   41MOL    O66 9746   7.417   0.136   6.416 -0.2673  0.3510  0.1619
   41MOL    C67 9747   7.447   0.200   6.293 -0.0565  0.4997 -0.0017
   41MOL    H68 9748   7.366   7.824   6.515 -1.8438 -1.7332 -0.9202
   41MOL    H69 9749   7.199   7.846   6.511 -0.9669  0.7886  1.2647
   41MOL    H70 9750   7.396   0.105   6.645 -1.3917  0.5235  2.5259
   41MOL    H71 9751   7.486   0.301   6.306 -0.8716  0.9070 -0.6899
   41MOL    H72 9752   7.361   0.195   6.227  0.5500 -2.0333 -0.6830
   41MOL    H73 9753   7.518   0.129   6.249 -1.3876 -0.9038  0.1013
   41MOL    C74 9754   7.185   0.131   6.703 -0.3078  0.0606 -0.1348
   41MOL    C75 9755   7.192   0.280   6.745  0.0753 -0.4514 -0.1294
   41MOL    C76 9756   7.053   0.337   6.786 -0.1920  0.3565  0.5016
   41MOL    O77 9757   7.012   0.445   6.745  0.3347 -0.0086  0.3400
   41MOL    O78 9758   6.991   0.256   6.876 -0.1907 -0.2522 -0.3160
   41MOL    C79 9759   6.863   0.288   6.925  0.0927  0.4608  0.0224
   41MOL    H80 9760   7.091   0.128   6.647  0.6696 -0.8072 -1.7508
   41MOL    H81 9761   7.172   0.067   6.790  1.7441 -1.0136 -0.6006
   41MOL    H82 9762   7.214   0.337   6.654  0.3416 -2.0576 -1.1067
   41MOL    H83 9763   6.790   0.289   6.844  1.2882 -0.7741 -1.0996
   41MOL    H84 9764   6.863   0.378   6.987 -1.4470 -1.4585  2.9015
   41MOL    H85 9765   6.832   0.211   6.995 -0.6710  1.5322  0.8840
   41MOL    C86 9766   7.303   0.306   6.849  0.2015  0.0634 -0.6778
   41MOL    C87 9767   7.273   0.306   7.001 -0.6745 -1.1845  0.3439
   41MOL    C88 9768   7.400   0.258   7.068 -0.1176  0.3032 -0.2116
   41MOL    O89 9769   7.389   0.205   7.174  0.8922  0.6004 -0.1312
   41MOL    O90 9770   7.517   0.303   7.015 -0.4776 -0.2581 -0.1273
   41MOL    C91 9771   7.638   0.259   7.082 -0.1632 -0.2949  1.2193
   41MOL    H92 9772   7.379   0.231   6.828 -1.5935 -1.7533 -0.8901
   41MOL    H93 9773   7.338   0.408   6.831 -0.8566  0.8172  1.3128
   41MOL    H94 9774   7.197   0.228   7.015  0.0150 -2.1337 -1.0827
   41MOL    H95 9775   7.717   0.313   7.031  0.2429 -3.2846 -1.4841
   41MOL    H96 9776   7.643   0.152   7.063  1.1678  0.3738 -2.5359
   41MOL    H97 9777   7.635   0.286   7.187  1.0334  1.1450  0.8995
   41MOL    C98 9778   7.203   0.424   7.070  0.0559 -0.1292 -0.1326
   41MOL    C99 9779   7.283   0.554   7.086  0.0517 -0.6236  0.6543
   41MOL   C100 9780   7.275   0.646   6.968 -0.3346 -0.6770 -1.1622
   41MOL   O101 9781   7.374   0.645   6.894 -0.2616 -0.0587 -0.3145
   41MOL   O102 9782   7.155   0.714   6.953  0.1633  0.6356  1.2955
   41MOL   C103 9783   7.133   0.810   6.853 -0.2962 -0.2586 -0.6988
   41MOL   H104 9784   7.100   0.437   7.037 -0.6108 -0.4770  1.7635
   41MOL   H105 9785   7.184   0.377   7.167 -0.5427  0.7913  0.1995
   41MOL   H106 9786   7.387   0.521   7.088  0.1570 -0.3854 -0.5313
   41MOL   H107 9787   7.039   0.779   6.806  0.6637  1.4797 -3.9526
   41MOL   H108 9788   7.208   0.811   6.774  0.1887  0.5699 -0.2208
   41MOL   H109 9789   7.121   0.912   6.890  0.8297  0.0957 -1.3054
   41MOL   C110 9790   7.269   0.625   7.225  0.0050  0.0494  0.2634
   41MOL   C111 9791   7.119   0.656   7.255  0.4367  0.1751  0.0400
   41MOL   C112 9792   7.053   0.545   7.343  0.6566  0.4668  0.5537
   41MOL   O113 9793   6.964   0.475   7.300 -0.1282  0.0262  0.4919
   41MOL   O114 9794   7.102   0.536   7.468  0.0295  0.0072 -0.1843
   41MOL   C115 9795   7.047   0.435   7.549  0.3679 -0.0753 -0.4161
   41MOL   H116 9796   7.312   0.558   7.300 -0.5435  0.9378  1.3806
   41MOL   H117 9797   7.337   0.709   7.239 -0.4973  0.2316  1.7160
   41MOL   H118 9798   7.059   0.653   7.164 -0.9457 -1.1106  0.9633
   41MOL   H119 9799   7.048   0.336   7.505  1.2455 -0.0417 -0.4835
   41MOL   H120 9800   6.943   0.465   7.564  0.4726  1.6951 -2.7749
   41MOL   H121 9801   7.097   0.437   7.646  1.4321 -0.1180 -0.9536
   41MOL   C122 9802   7.103   0.802   7.317  0.1847  1.0093  0.4346
   41MOL   C123 9803   6.961   0.860   7.283 -0.3476  0.4101  0.4945
   41MOL   C124 9804   6.874   0.865   7.411 -0.7270  0.2301 -0.2674
   41MOL   O125 9805   6.826   0.965   7.459 -0.1734 -0.9116  0.0036
   41MOL   O126 9806   6.847   0.738   7.462  0.2948  0.0742  0.6243
   41MOL   C127 9807   6.762   0.724   7.570  0.3344  0.0439  0.1793
   41MOL   H128 9808   7.119   0.797   7.425 -2.4749 -0.5789  0.7995
   41MOL   H129 9809   7.179   0.868   7.275 -1.1753  1.6019 -1.1149
   41MOL   H130 9810   6.910   0.789   7.218 -0.1526  0.1332  0.6416
   41MOL   H131 9811   6.664   0.768   7.551 -1.1880 -2.6907  1.2945
   41MOL   H132 9812   6.803   0.755   7.667 -1.4271  0.5081  0.7937
   41MOL   H133 9813   6.757   0.615   7.581  1.6242 -0.0446 -0.0096
   41MOL   C134 9814   6.974   0.997   7.213 -0.0737 -0.1314  0.2521
   41MOL   C135 9815   6.867   1.044   7.120  0.0002 -0.5175  0.1768
   41MOL   C136 9816   6.910   1.175   7.054 -0.3698 -0.4198 -0.8617
   41MOL   O137 9817   7.031   1.210   7.037  0.0851 -0.0069 -0.0669
   41MOL   O138 9818   6.800   1.239   7.015  0.0961 -0.5123  0.1990
   41MOL   C139 9819   6.810   1.353   6.932 -0.1241 -0.5792  0.5406
   41MOL   H140 9820   6.983   1.070   7.293  0.7886 -2.4328  2.3119
   41MOL   H141 9821   7.075   1.005   7.172  1.1908  0.6164  3.3346
   41MOL   H142 9822   6.785   1.075   7.184  0.9501  0.7279  0.7967
   41MOL   H143 9823   6.901   1.339   6.875 -0.6110  1.4769 -0.8030
   41MOL   H144 9824   6.824   1.444   6.991 -0.6768 -0.0979 -0.0606
   41MOL   H145 9825   6.722   1.370   6.870  1.4222  0.2554 -1.4502
   41MOL   C146 9826   6.824   0.942   7.015  0.5554 -0.0038 -0.6958
   41MOL   C147 9827   6.691   0.877   7.051  0.4471  0.0262  0.7421
   41MOL   C148 9828   6.579   0.973   7.005  0.0539  0.3640  1.0513
   41MOL   O149 9829   6.503   1.024   7.090 -0.2121  0.2032  0.1584
   41MOL   O150 9830   6.575   0.995   6.869 -0.5727 -0.0724 -0.6551
   41MOL   C151 9831   6.454   1.060   6.811  0.2254  0.1397 -0.2136
   41MOL   H152 9832   6.822   0.975   6.912  0.4447  0.9832 -0.3791
   41MOL   H153 9833   6.902   0.866   7.012 -0.3063 -0.9303  0.0751
   41MOL   H154 9834   6.695   0.862   7.159  2.1880 -0.0451  0.6690
   41MOL   H155 9835   6.413   1.132   6.882 -1.6824 -0.7645 -0.3691
   41MOL   H156 9836   6.367   1.001   6.783 -0.3730  0.9022  0.0117
   41MOL   H157 9837   6.488   1.107   6.719  0.3385  1.8657  0.6904
   41MOL   C158 9838   6.673   0.736   6.987 -0.3327 -1.1168  0.0694
   41MOL   C159 9839   6.567   0.662   7.071 -0.6234  0.2131 -0.2336
   41MOL   C160 9840   6.483   0.568   6.981  0.9788  0.4640  0.6321
   41MOL   O161 9841   6.368   0.597   6.950  0.3026 -0.0890 -0.0993
   41MOL   O162 9842   6.546   0.455   6.932 -0.4195 -0.1754  0.3980
   41MOL   C163 9843   6.477   0.366   6.850 -0.9096 -0.0878  0.4322
   41MOL   H164 9844   6.648   0.756   6.883  2.0577  1.1505 -0.1061
   41MOL   H165 9845   6.766   0.679   6.991 -0.2470 -0.9177  0.8560
   41MOL   H166 9846   6.502   0.733   7.121 -0.2709  1.4427 -1.4975
   41MOL   H167 9847   6.548   0.308   6.791 -0.8069  0.4620  0.0082
   41MOL   H168 9848   6.408   0.419   6.784  1.9426  3.1097 -0.1146
   41MOL   H169 9849   6.418   0.302   6.916 -2.7272 -0.4728 -1.5188
   41MOL   C170 9850   6.630   0.583   7.188  0.0966  0.5103 -0.4076
   41MOL   C171 9851   6.536   0.498   7.283 -0.2756  0.8303  0.3580
   41MOL   C172 9852   6.621   0.392   7.360  0.0349 -0.2949  0.6175
   41MOL   O173 9853   6.649   0.408   7.476  0.1976 -0.4938 -0.4071
   41MOL   O174 9854   6.659   0.285   7.285 -0.4784 -0.0074 -0.1231
   41MOL   C175 9855   6.725   0.175   7.353 -0.1543  0.0378 -0.2679
   41MOL   H176 9856   6.705   0.521   7.139  0.3844 -0.1570  0.8489
   41MOL   H177 9857   6.689   0.643   7.258  1.1620 -2.7946  1.6663
   41MOL   H178 9858   6.463   0.444   7.221  0.2983  0.4016  0.0409
   41MOL   H179 9859   6.824   0.208   7.383  0.5026 -0.3851 -1.9271
   41MOL   H180 9860   6.741   0.091   7.285 -1.5189  0.1503 -0.7524
   41MOL   H181 9861   6.678   0.143   7.446  0.6420  0.1356  0.1698
   41MOL   C182 9862   6.457   0.594   7.375 -0.5048  0.2082 -0.0140
   41MOL   C183 9863   6.374   0.536   7.495 -0.1827  0.1635 -0.2726
   41MOL   C184 9864   6.418   0.571   7.637 -0.1399 -0.2957  0.1285
   41MOL   O185 9865   6.466   0.680   7.665  0.6105 -0.1420 -0.3889
   41MOL   O186 9866   6.393   0.466   7.723 -0.6345  0.2185  0.1854
   41MOL   C187 9867   6.437   0.473   7.857 -0.0539  0.1570 -0.4326
   41MOL   H188 9868   6.517   0.683   7.396  1.7679 -1.0903 -0.8156
   41MOL   H189 9869   6.387   0.647   7.311  2.9566  4.8195 -0.3111
   41MOL   H190 9870   6.389   0.428   7.491  2.5357  0.5338 -1.1083
   41MOL   H191 9871   6.541   0.505   7.849 -0.7675  2.3561 -1.1676
   41MOL   H192 9872   6.431   0.378   7.910  1.1317  2.1578  3.4250
   41MOL   H193 9873   6.373   0.543   7.909 -0.3505 -0.6469  0.2877
   41MOL   C194 9874   6.223   0.554   7.470  0.1129 -0.0495 -0.3848
   41MOL   C195 9875   6.160   0.480   7.350  0.0064  0.3507 -0.1211
   41MOL   C196 9876   6.192   0.328   7.346  0.4419 -0.1308 -0.6028
   41MOL   O197 9877   6.127   0.250   7.427 -0.1090 -0.2509  0.0454
   41MOL   O198 9878   6.285   0.290   7.249 -0.3478 -0.2738 -0.7188
   41MOL   C199 9879   6.323   0.156   7.240 -0.1767  0.8638 -0.1976
   41MOL   H200 9880   6.167   0.527   7.559  2.2011 -4.4775 -0.2851
   41MOL   H201 9881   6.210   0.661   7.451 -0.4112  0.0336  0.4181
   41MOL   H202 9882   6.206   0.527   7.264 -0.5745 -0.2203 -0.7510
   41MOL   H203 9883   6.263   0.113   7.160 -1.2561  2.0479 -0.0399
   41MOL   H204 9884   6.305   0.091   7.325  0.9066  0.6350 -0.1326
   41MOL   H205 9885   6.424   0.133   7.206 -1.0188 -1.5422 -1.1510
   41MOL   C206 9886   6.007   0.509   7.336 -0.1522  0.3292 -0.8644
   41MOL   C207 9887   5.927   0.430   7.236 -0.2836  0.1813  0.4299
   41MOL   C208 9888   5.780   0.478   7.244  0.5902 -0.0583 -0.2618
   41MOL   O209 9889   5.746   0.564   7.166 -0.1785 -0.8138  0.0177
   41MOL   O210 9890   5.712   0.423   7.338 -0.3022  0.2969 -0.3805
   41MOL   C211 9891   5.584   0.468   7.361 -0.3917  0.2679  0.2527
   41MOL   H212 9892   5.968   0.489   7.435 -0.2505 -1.1711 -1.1897
   41MOL   H213 9893   5.987   0.616   7.325  0.6108  0.8479  2.3557
   41MOL   H214 9894   5.919   0.327   7.271  0.1513  0.6576  1.9406
   41MOL   H215 9895   5.525   0.446   7.272 -0.5922 -0.3112  0.5272
   41MOL   H216 9896   5.573   0.575   7.379  1.9440  0.8119 -1.3672
   41MOL   H217 9897   5.533   0.422   7.446  0.4449  0.8236  1.0642
   41MOL   C218 9898   5.978   0.448   7.086 -0.4021 -0.7685 -0.3874
   41MOL   C219 9899   5.918   0.350   6.987  0.3976 -0.6178  0.0898
   41MOL   C220 9900   5.923   0.429   6.854  0.3784  0.2381  0.0237
   41MOL   O221 9901   5.822   0.452   6.793 -0.0138 -0.2516 -0.2458
   41MOL   O222 9902   6.050   0.454   6.818  0.4016 -0.0355  0.2648
   41MOL   C223 9903   6.089   0.514   6.691 -0.0244 -0.1701  0.5061
   41MOL   H224 9904   5.973   0.555   7.063  2.8001 -0.1794  1.3432
   41MOL   H225 9905   6.087   0.441   7.076 -0.1690 -1.1465  2.1414
   41MOL   H226 9906   5.814   0.328   7.013  1.1469 -2.8489  1.2797
   41MOL   H227 9907   6.196   0.508   6.672 -0.6819 -0.8490 -3.4421
   41MOL   H228 9908   6.055   0.617   6.683 -1.1479 -0.6852 -1.7607
   41MOL   H229 9909   6.050   0.456   6.607  2.0788 -0.4051 -0.3442
   41MOL   C230 9910   5.989   0.214   6.982  0.1065 -0.0221 -0.4486
   41MOL   C231 9911   5.920   0.104   6.900  0.0253 -0.0860 -0.2666
   41MOL   C232 9912   5.777   0.068   6.943 -0.0357  0.3702 -0.6919
   41MOL   O233 9913   5.736   0.093   7.063 -0.2313  0.2771 -0.3459
   41MOL   O234 9914   5.712   7.928   6.855  0.2986  0.5405  0.5061
   41MOL   C235 9915   5.584   7.877   6.893 -0.5541 -0.3982  0.2399
   41MOL   H236 9916   6.092   0.231   6.953  0.4334 -1.0903  0.0815
   41MOL   H237 9917   5.997   0.169   7.081  0.5270  1.9021  0.3997
   41MOL   H238 9918   5.984   0.016   6.902 -0.2185 -0.3018 -1.9674
   41MOL   H239 9919   5.597   7.814   6.981  1.4165  1.0734  1.0110
   41MOL   H240 9920   5.523   7.833   6.813  1.4453  0.0349 -1.5711
   41MOL   H241 9921   5.525   0.028   6.929 -0.3409 -0.0262 -0.2788
   41MOL   H242 9922   5.921   0.136   6.796  1.0031 -0.5380 -0.4060
   42MOL     C1 9923   1.830   2.136   5.874 -0.0430  0.1150  0.1152
   42MOL     C2 9924   1.686   2.087   5.842 -0.0460  0.4063 -0.1392
   42MOL     C3 9925   1.666   2.045   5.694  0.6182 -0.2725 -0.0549
   42MOL     O4 9926   1.578   2.097   5.625  0.5330 -0.1578  0.1178
   42MOL     O5 9927   1.750   1.950   5.650 -0.2606  0.3204  0.1146
   42MOL     C6 9928   1.732   1.902   5.521 -0.0509 -0.0715  0.5006
   42MOL     H7 9929   1.850   2.149   5.980 -0.7257  0.1459  0.2437
   42MOL     H8 9930   1.842   2.237   5.833 -1.8529  0.9099  1.4526
   42MOL     H9 9931   1.624   2.174   5.862 -0.7184  0.0680 -0.7422
   42MOL    H10 9932   1.827   1.868   5.481 -0.3662 -0.5968  0.1895
   42MOL    H11 9933   1.695   1.968   5.443  1.4682  0.0800 -0.0927
   42MOL    H12 9934   1.661   1.819   5.530 -0.9537  0.6498  0.1351
   42MOL    H13 9935   1.906   2.075   5.826  0.5355 -0.2366  1.4771
   42MOL    C14 9936   1.641   1.970   5.943 -0.5101 -0.1471 -0.3936
   42MOL    C15 9937   1.520   1.995   6.036  0.3755  0.0599  0.0133
   42MOL    C16 9938   1.541   2.120   6.125  0.1154 -0.3108 -0.0528
   42MOL    O17 9939   1.649   2.160   6.157 -0.2943 -0.8066  0.1914
   42MOL    O18 9940   1.422   2.162   6.161 -0.3146 -0.1055 -0.6488
   42MOL    C19 9941   1.404   2.273   6.250 -0.1247 -0.3509  0.2385
   42MOL    H20 9942   1.614   1.889   5.876 -2.7523 -1.1574  1.6663
   42MOL    H21 9943   1.722   1.930   6.003 -0.4959 -0.6209 -0.7269
   42MOL    H22 9944   1.522   1.916   6.111 -0.3936  1.3967  1.4675
   42MOL    H23 9945   1.441   2.356   6.189 -1.4656 -1.0309 -1.5488
   42MOL    H24 9946   1.468   2.261   6.337 -0.3195 -0.7729  0.3209
   42MOL    H25 9947   1.301   2.289   6.279 -0.3173  1.1156 -1.1599
   42MOL    C26 9948   1.385   1.989   5.958 -0.5136 -0.3100  0.2040
   42MOL    C27 9949   1.333   1.853   5.932  0.1720  0.1835 -0.0551
   42MOL    C28 9950   1.298   1.773   6.059 -0.1000 -0.3736  0.3288
   42MOL    O29 9951   1.294   1.825   6.175 -0.1295  0.0292  0.1469
   42MOL    O30 9952   1.272   1.642   6.032 -0.2470  0.3930 -0.3825
   42MOL    C31 9953   1.248   1.550   6.135  0.4337  0.0250 -0.3986
   42MOL    H32 9954   1.302   2.048   5.997 -0.5553  0.2952 -0.7756
   42MOL    H33 9955   1.403   2.030   5.858  2.4184  1.0253  1.2061
   42MOL    H34 9956   1.408   1.795   5.879  0.9146  1.7828 -0.7936
   42MOL    H35 9957   1.248   1.587   6.237  1.1341 -0.8058 -0.0998
   42MOL    H36 9958   1.311   1.461   6.130  1.6624  0.8153  0.7461
   42MOL    H37 9959   1.146   1.514   6.121  0.2628  0.3623 -0.0458
   42MOL    C38 9960   1.208   1.858   5.835 -0.1357  0.4948 -0.2364
   42MOL    C39 9961   1.236   1.825   5.688 -0.5528  0.2676 -0.6734
   42MOL    C40 9962   1.322   1.702   5.658 -0.0858 -1.1441 -0.0412
   42MOL    O41 9963   1.415   1.704   5.577 -0.3921 -0.4616  0.2461
   42MOL    O42 9964   1.272   1.595   5.719 -0.3884  0.3640  0.3339
   42MOL    C43 9965   1.329   1.462   5.704  0.4100  0.4231 -0.1973
   42MOL    H44 9966   1.139   1.777   5.860  1.3228 -1.0233 -0.9638
   42MOL    H45 9967   1.165   1.958   5.843  1.6627  1.2677  0.0400
   42MOL    H46 9968   1.306   1.899   5.650  1.6703 -1.9326 -1.0351
   42MOL    H47 9969   1.324   1.419   5.804  1.8314 -1.3123 -0.8229
   42MOL    H48 9970   1.431   1.454   5.665  0.1036  0.2799 -0.9813
   42MOL    H49 9971   1.270   1.388   5.650 -0.8929 -0.3459  2.2446
   42MOL    C50 9972   1.106   1.841   5.600 -0.2379  0.5479 -0.7393
   42MOL    C51 9973   1.114   1.777   5.461 -0.1719 -0.7712 -0.9122
   42MOL    C52 9974   0.969   1.772   5.403  0.1689  0.1409  0.3785
   42MOL    O53 9975   0.920   1.669   5.354 -0.1902 -0.2465 -0.0778
   42MOL    O54 9976   0.906   1.891   5.400 -0.2374 -0.2128  0.1972
   42MOL    C55 9977   0.772   1.901   5.372  0.4935 -0.3018  0.3192
   42MOL    H56 9978   1.029   1.803   5.666  2.8485 -0.9877  2.1365
   42MOL    H57 9979   1.082   1.947   5.599  1.4347  0.9831 -3.5692
   42MOL    H58 9980   1.135   1.670   5.465  0.0394 -0.6940 -0.0353
   42MOL    H59 9981   0.712   1.840   5.440 -0.6142  0.3541 -0.0546
   42MOL    H60 9982   0.738   1.851   5.281  0.8094 -0.5308  0.3278
   42MOL    H61 9983   0.742   2.005   5.359  2.4596  0.0626 -1.5849
   42MOL    C62 9984   1.205   1.838   5.351 -0.2297  0.4503 -0.7783
   42MOL    C63 9985   1.300   1.740   5.289  0.4376  0.1226 -0.1212
   42MOL    C64 9986   1.238   1.670   5.169 -0.0636  0.5235 -0.7741
   42MOL    O65 9987   1.230   1.547   5.171  0.5611  0.0620 -0.3667
   42MOL    O66 9988   1.194   1.748   5.066 -0.0155  0.5103 -0.6733
   42MOL    C67 9989   1.168   1.685   4.943  0.5705  0.4406  0.2765
   42MOL    H68 9990   1.157   1.899   5.275 -0.0035 -0.5397 -1.7245
   42MOL    H69 9991   1.264   1.914   5.403  0.5164 -0.0687 -0.8625
   42MOL    H70 9992   1.329   1.671   5.368 -2.6393  0.4518  1.3620
   42MOL    H71 9993   1.072   1.634   4.953  0.1111  1.0866 -0.6489
   42MOL    H72 9994   1.239   1.616   4.898 -1.1203 -2.1391  1.4775
   42MOL    H73 9995   1.152   1.762   4.867  1.5514  0.4278  0.0456
   42MOL    C74 9996   1.434   1.811   5.249  0.5234  0.3855  1.2221
   42MOL    C75 9997   1.550   1.731   5.196 -0.1923  0.1144  0.2278
   42MOL    C76 9998   1.587   1.611   5.285  0.8527  0.4851 -0.1374
   42MOL    O77 9999   1.684   1.616   5.365  0.1054  0.4263 -0.7425
   42MOL    O7810000   1.513   1.499   5.263 -0.2774 -0.6258  0.4097
   42MOL    C7910001   1.524   1.399   5.359  0.8141  0.4215  0.6572
   42MOL    H8010002   1.429   1.904   5.193  1.1349 -1.1842 -1.5527
   42MOL    H8110003   1.469   1.845   5.346 -0.3588  0.0130  1.6711
   42MOL    H8210004   1.634   1.798   5.213  0.6258 -1.2327  1.6710
   42MOL    H8310005   1.611   1.335   5.343 -0.2870 -1.3251  1.5254
   42MOL    H8410006   1.444   1.327   5.353  1.9166 -0.7808  0.1890
   42MOL    H8510007   1.524   1.437   5.462 -1.2845  0.0319  0.8150
   42MOL    C8610008   1.561   1.704   5.040  0.1516  0.9880 -0.2138
   42MOL    C8710009   1.555   1.836   4.950 -0.1338 -0.4474 -0.5175
   42MOL    C8810010   1.674   1.933   4.978  0.0262  0.8855  0.0698
   42MOL    O8910011   1.662   2.015   5.065 -0.2605  0.1229 -0.3416
   42MOL    O9010012   1.778   1.925   4.888 -0.0869  0.0442 -0.6955
   42MOL    C9110013   1.893   2.003   4.895  0.8438 -0.2850  0.3381
   42MOL    H9210014   1.658   1.654   5.032 -0.0870  0.5095 -0.1156
   42MOL    H9310015   1.485   1.632   5.010  0.2500  0.5672  0.5167
   42MOL    H9410016   1.472   1.897   4.985 -0.0932 -0.5189 -0.2924
   42MOL    H9510017   1.871   2.106   4.869  0.1894 -0.4660  0.1563
   42MOL    H9610018   1.969   1.957   4.832 -1.1431 -0.6371 -1.8570
   42MOL    H9710019   1.930   2.009   4.998 -0.4361  3.6268  0.6543
   42MOL    C9810020   1.532   1.806   4.802  1.0685 -0.3077  0.2082
   42MOL    C9910021   1.493   1.930   4.718 -0.5941  0.6336 -0.5613
   42MOL   C10010022   1.509   1.894   4.568  0.0620 -0.1501  0.5006
   42MOL   O10110023   1.475   1.781   4.524  0.4246 -0.0602 -0.2593
   42MOL   O10210024   1.532   2.003   4.498 -0.3914 -0.1524 -0.2521
   42MOL   C10310025   1.532   1.997   4.359 -0.5444  0.3355 -0.0445
   42MOL   H10410026   1.623   1.758   4.766 -0.6563 -0.8131 -3.7023
   42MOL   H10510027   1.453   1.732   4.791 -0.3409  1.0439  0.9305
   42MOL   H10610028   1.559   2.014   4.738 -0.2505  0.3287 -0.3950
   42MOL   H10710029   1.553   2.095   4.317  0.2953  0.5114  0.7749
   42MOL   H10810030   1.433   1.967   4.324 -0.0205 -1.5965  0.0742
   42MOL   H10910031   1.596   1.922   4.313 -4.1203 -1.4992 -2.2972
   42MOL   C11010032   1.349   1.975   4.752  0.6776  0.1152  0.7070
   42MOL   C11110033   1.355   2.119   4.805 -0.4529  0.7288 -0.3872
   42MOL   C11210034   1.378   2.220   4.697 -0.5248  0.0985 -0.1873
   42MOL   O11310035   1.483   2.285   4.696 -0.0835  0.3219  0.0694
   42MOL   O11410036   1.281   2.231   4.612  0.6503  0.1670  0.3357
   42MOL   C11510037   1.312   2.307   4.491 -0.5591 -0.0118  0.0317
   42MOL   H11610038   1.281   1.971   4.667  3.3535  1.4135 -1.5796
   42MOL   H11710039   1.312   1.905   4.827 -0.2283  0.1549  0.3002
   42MOL   H11810040   1.447   2.129   4.863 -0.8170 -4.0066  1.2082
   42MOL   H11910041   1.221   2.315   4.432 -0.7762 -1.3397  0.1733
   42MOL   H12010042   1.384   2.258   4.426 -2.0487 -0.7103 -1.1149
   42MOL   H12110043   1.348   2.407   4.516  0.3094 -0.3226  0.0590
   42MOL   C12210044   1.231   2.153   4.897 -0.4571  0.4542  0.0054
   42MOL   C12310045   1.267   2.260   5.008 -0.4165 -0.1180  0.4146
   42MOL   C12410046   1.141   2.316   5.069 -0.3353  0.4375 -0.2789
   42MOL   O12510047   1.049   2.249   5.115  0.3594  0.2049 -0.2820
   42MOL   O12610048   1.150   2.451   5.076  0.2119  0.0698  0.0305
   42MOL   C12710049   1.042   2.536   5.126 -0.3230 -0.5125  0.0996
   42MOL   H12810050   1.142   2.166   4.836  0.6380 -0.6906 -1.8607
   42MOL   H12910051   1.202   2.069   4.960 -0.4057 -0.8171 -1.6291
   42MOL   H13010052   1.312   2.341   4.949  3.4482  0.6253  4.1308
   42MOL   H13110053   1.033   2.624   5.063 -2.5737 -0.2177  0.7874
   42MOL   H13210054   1.062   2.567   5.229 -1.1434 -1.4660  0.5567
   42MOL   H13310055   0.941   2.498   5.137 -1.0830  1.4995  0.2619
   42MOL   C13410056   1.366   2.192   5.110  0.1810 -0.1485  0.0730
   42MOL   C13510057   1.428   2.296   5.208 -0.0482 -0.4236  0.4058
   42MOL   C13610058   1.337   2.319   5.334 -0.2036  0.7877 -0.4712
   42MOL   O13710059   1.298   2.425   5.372  0.3529  0.3815 -0.2247
   42MOL   O13810060   1.322   2.207   5.400  0.2009  0.0983  0.1942
   42MOL   C13910061   1.287   2.189   5.536 -0.1171 -0.5319 -0.1580
   42MOL   H14010062   1.308   2.122   5.170 -3.1775  1.8355 -0.7357
   42MOL   H14110063   1.447   2.138   5.060  2.2013 -0.0758  3.1630
   42MOL   H14210064   1.442   2.394   5.161  1.3868 -0.3600  0.9271
   42MOL   H14310065   1.273   2.084   5.562  0.3780 -0.8457 -1.1457
   42MOL   H14410066   1.193   2.243   5.549  0.6967  1.0023 -0.4746
   42MOL   H14510067   1.357   2.239   5.602 -0.5517  1.0620 -0.8657
   42MOL   C14610068   1.569   2.244   5.247 -0.1590  0.1251  0.6115
   42MOL   C14710069   1.652   2.320   5.352  0.1296  0.5736  0.1013
   42MOL   C14810070   1.784   2.249   5.367 -0.4224  0.3584  0.1741
   42MOL   O14910071   1.818   2.192   5.473 -0.0031  0.1595  0.0118
   42MOL   O15010072   1.852   2.258   5.257 -0.4219 -0.7020 -0.2475
   42MOL   C15110073   1.979   2.201   5.241  0.3992  0.1909  0.0043
   42MOL   H15210074   1.561   2.139   5.277 -0.0158  0.5392  2.1426
   42MOL   H15310075   1.625   2.252   5.155 -0.1565 -0.0464  0.5980
   42MOL   H15410076   1.594   2.299   5.442 -0.7353 -0.9240 -0.7861
   42MOL   H15510077   2.039   2.215   5.331  0.0995  2.7558 -0.1558
   42MOL   H15610078   2.025   2.263   5.164  0.2876 -0.2076 -0.3874
   42MOL   H15710079   1.979   2.097   5.206 -0.7855 -0.4450  1.8104
   42MOL   C15810080   1.663   2.475   5.316 -0.3608  0.3196 -0.3913
   42MOL   C15910081   1.738   2.566   5.414  0.1299  0.7389  0.2562
   42MOL   C16010082   1.878   2.609   5.353 -0.2622 -0.7591 -0.0199
   42MOL   O16110083   1.886   2.681   5.258 -0.1547 -0.3490 -0.0205
   42MOL   O16210084   1.979   2.569   5.429 -0.0601  0.3155  0.2687
   42MOL   C16310085   2.106   2.629   5.409 -0.3898 -0.1817 -0.0911
   42MOL   H16410086   1.706   2.484   5.216  1.5526  1.0167  0.4817
   42MOL   H16510087   1.568   2.528   5.302  1.2510  3.2189 -0.7790
   42MOL   H16610088   1.759   2.510   5.505  1.4220  0.1410 -0.3937
   42MOL   H16710089   2.162   2.582   5.490  0.3196 -0.1203 -0.5352
   42MOL   H16810090   2.105   2.736   5.428  1.5365 -0.5776  2.5917
   42MOL   H16910091   2.153   2.615   5.312  0.6641  0.1077  0.3689
   42MOL   C17010092   1.652   2.689   5.454 -0.1717  0.7293 -0.0004
   42MOL   C17110093   1.537   2.663   5.558  0.4362  0.2937 -0.4830
   42MOL   C17210094   1.584   2.600   5.683 -0.7371  0.3917 -0.2408
   42MOL   O17310095   1.695   2.634   5.734 -0.3156 -0.3270 -0.4765
   42MOL   O17410096   1.495   2.511   5.735  0.5966 -0.6082  0.3059
   42MOL   C17510097   1.539   2.428   5.844  0.1771  0.9332  0.4926
   42MOL   H17610098   1.722   2.771   5.472  1.3456 -0.4042 -0.6157
   42MOL   H17710099   1.608   2.730   5.364  0.3599  2.3393  0.4531
   42MOL   H17810100   1.478   2.584   5.511 -1.0577  0.8935  0.3502
   42MOL   H17910101   1.497   2.328   5.836  0.8110  0.7886 -1.1837
   42MOL   H18010102   1.505   2.476   5.936  1.5729 -1.8103  2.5207
   42MOL   H18110103   1.647   2.418   5.851  0.1862 -0.9515 -1.6640
   42MOL   C18210104   1.437   2.781   5.581 -0.7185 -0.3112  0.0700
   42MOL   C18310105   1.487   2.900   5.668 -1.4916  0.0168 -0.4244
   42MOL   C18410106   1.591   2.990   5.600  0.4647 -0.1282 -0.3415
   42MOL   O18510107   1.704   3.001   5.644 -0.3643 -0.2934  0.0241
   42MOL   O18610108   1.538   3.050   5.490 -0.5760  0.6576  0.5063
   42MOL   C18710109   1.599   3.172   5.441 -0.4798 -0.6912  0.0474
   42MOL   H18810110   1.402   2.821   5.486  1.3820  1.1858 -0.0879
   42MOL   H18910111   1.339   2.746   5.613 -0.9159 -1.8354 -2.0651
   42MOL   H19010112   1.546   2.860   5.751 -1.4338  2.4573  0.7393
   42MOL   H19110113   1.668   3.212   5.515  3.5958 -1.9982 -2.8887
   42MOL   H19210114   1.525   3.242   5.401  1.1155  0.6500 -0.6026
   42MOL   H19310115   1.659   3.140   5.356  0.1448  0.9583 -0.1519
   42MOL   C19410116   1.369   2.970   5.735  0.0287  0.3966 -0.1662
   42MOL   C19510117   1.369   2.959   5.891  0.9713  0.2861  0.1029
   42MOL   C19610118   1.259   3.058   5.941  0.5380  0.3790  0.2243
   42MOL   O19710119   1.145   3.011   5.975  0.0539 -0.6782  0.1104
   42MOL   O19810120   1.302   3.188   5.947 -0.0522 -0.1339  0.2424
   42MOL   C19910121   1.204   3.282   5.992  0.5402 -0.2766 -0.4840
   42MOL   H20010122   1.394   3.073   5.709 -0.3640  0.5166 -0.0804
   42MOL   H20110123   1.269   2.940   5.705  0.5881 -0.6638 -0.9705
   42MOL   H20210124   1.464   2.985   5.937  0.6888  0.0211  0.8355
   42MOL   H20310125   1.120   3.309   5.927 -0.5645 -0.1094  0.9860
   42MOL   H20410126   1.253   3.377   6.012 -0.7817  0.1066  1.0722
   42MOL   H20510127   1.168   3.237   6.085 -1.4388  0.5138 -0.8302
   42MOL   C20610128   1.351   2.808   5.922 -0.5033  0.3602 -0.2042
   42MOL   C20710129   1.330   2.778   6.073  0.1528  0.2428  0.3557
   42MOL   C20810130   1.244   2.656   6.097 -0.0198 -0.0449 -0.6121
   42MOL   O20910131   1.272   2.545   6.044  0.5528 -0.4306  0.0435
   42MOL   O21010132   1.142   2.680   6.188  0.1615  0.2865  0.3098
   42MOL   C21110133   1.059   2.566   6.218  1.2152  0.4196 -0.1539
   42MOL   H21210134   1.256   2.779   5.877 -0.7399 -0.2563  0.6826
   42MOL   H21310135   1.426   2.748   5.869 -0.2721 -0.0057  0.5362
   42MOL   H21410136   1.282   2.857   6.131  0.7327 -0.1268  1.3742
   42MOL   H21510137   0.981   2.604   6.285  2.0201  0.1245  0.9687
   42MOL   H21610138   1.108   2.484   6.270 -2.9722 -1.9499  0.2936
   42MOL   H21710139   1.005   2.533   6.130  1.1511 -0.5620  0.2497
   42MOL   C21810140   1.477   2.754   6.123  0.3910  0.6258 -0.6946
   42MOL   C21910141   1.511   2.806   6.267  0.0427 -0.5051  0.6043
   42MOL   C22010142   1.527   2.958   6.265 -0.5302  0.3891 -0.3035
   42MOL   O22110143   1.626   3.001   6.316 -0.2712 -0.0724 -0.5770
   42MOL   O22210144   1.416   3.025   6.236  0.1349  0.1780 -0.4331
   42MOL   C22310145   1.407   3.160   6.234  0.0120 -0.3362  1.0522
   42MOL   H22410146   1.497   2.647   6.121  2.0688  0.9206 -0.5849
   42MOL   H22510147   1.550   2.797   6.056  2.5905 -0.7158  0.7601
   42MOL   H22610148   1.612   2.769   6.286  0.0510 -1.4406 -1.1893
   42MOL   H22710149   1.441   3.200   6.138  0.1202 -0.9147  0.8469
   42MOL   H22810150   1.455   3.209   6.319 -0.0223 -2.1966  2.1710
   42MOL   H22910151   1.301   3.177   6.252  0.6037  2.5065  2.1745
   42MOL   C23010152   1.415   2.760   6.374  0.4465  0.1018 -0.0346
   42MOL   C23110153   1.418   2.607   6.403  0.3172  0.1684  0.1450
   42MOL   C23210154   1.548   2.550   6.456 -0.3926 -0.2164 -0.8355
   42MOL   O23310155   1.566   2.544   6.578  0.2414  0.5035 -0.3944
   42MOL   O23410156   1.634   2.504   6.360 -0.6178  0.0473 -0.1321
   42MOL   C23510157   1.763   2.452   6.403 -0.2187  0.4267  0.0657
   42MOL   H23610158   1.432   2.817   6.465  3.1735 -0.6810  0.0026
   42MOL   H23710159   1.315   2.792   6.344 -0.3367  0.1581  2.5583
   42MOL   H23810160   1.392   2.549   6.314  0.8682  0.8705 -0.4851
   42MOL   H23910161   1.819   2.413   6.318 -0.2458  0.2759  0.1168
   42MOL   H24010162   1.759   2.379   6.484 -0.6625 -2.9203 -2.8416
   42MOL   H24110163   1.818   2.542   6.432  1.3053 -0.0864 -1.1382
   42MOL   H24210164   1.343   2.594   6.481 -1.2735 -1.2194 -1.5424
   43MOL     C110165   0.627   1.777   2.150  1.3836  0.2995  0.1067
   43MOL     C210166   0.762   1.791   2.217  0.0554 -0.5516 -0.3328
   43MOL     C310167   0.760   1.699   2.342  0.2166 -0.3784  0.1660
   43MOL     O410168   0.782   1.740   2.452 -0.8736 -0.2145  0.7596
   43MOL     O510169   0.739   1.569   2.314 -0.0534 -0.2295  0.7591
   43MOL     C610170   0.773   1.466   2.406 -0.2964  0.2510 -0.3513
   43MOL     H710171   0.561   1.800   2.233  0.1996  0.4192 -0.8487
   43MOL     H810172   0.608   1.684   2.096  0.8348  0.2273  0.4233
   43MOL     H910173   0.782   1.889   2.260  0.7208 -1.5101  1.5853
   43MOL    H1010174   0.799   1.477   2.511  1.6134  0.6563 -0.8345
   43MOL    H1110175   0.866   1.422   2.368 -1.0136 -0.0321 -1.8099
   43MOL    H1210176   0.702   1.383   2.406 -0.0921  0.0377 -2.8582
   43MOL    H1310177   0.606   1.853   2.074  2.3842 -0.9986 -1.4988
   43MOL    C1410178   0.883   1.776   2.121 -0.4332  0.6519 -0.1707
   43MOL    C1510179   0.871   1.843   1.985  0.0815 -0.3684  0.5197
   43MOL    C1610180   0.848   1.992   2.002 -0.5222 -0.7243  0.0820
   43MOL    O1710181   0.737   2.045   1.969 -0.6270  0.3899  0.6134
   43MOL    O1810182   0.953   2.059   2.038 -0.8250  0.1439 -0.4465
   43MOL    C1910183   0.950   2.203   2.050  0.4147 -0.8465 -0.6036
   43MOL    H2010184   0.984   1.793   2.157  0.7547 -1.9168 -2.1322
   43MOL    H2110185   0.883   1.668   2.102 -1.5285  0.0575  2.9539
   43MOL    H2210186   0.781   1.802   1.940 -1.5187  1.1823  2.2117
   43MOL    H2310187   0.908   2.258   1.966 -3.1196 -0.1956  1.4860
   43MOL    H2410188   1.045   2.255   2.066  0.8718 -2.4618  2.3496
   43MOL    H2510189   0.885   2.231   2.133  1.6585  0.1740  0.0363
   43MOL    C2610190   0.982   1.800   1.883 -0.2032 -0.0573  0.7327
   43MOL    C2710191   0.951   1.775   1.739  0.6915 -0.4596 -0.1714
   43MOL    C2810192   0.878   1.902   1.687  0.4782 -0.0508 -0.0861
   43MOL    O2910193   0.928   2.014   1.697  0.4057 -0.7956 -0.2438
   43MOL    O3010194   0.764   1.877   1.617 -0.1934 -0.1871 -0.0131
   43MOL    C3110195   0.698   1.974   1.529 -0.3288 -0.3025 -0.0799
   43MOL    H3210196   1.068   1.867   1.890  0.5680 -1.1265  1.6540
   43MOL    H3310197   1.023   1.708   1.926 -0.1118 -0.9998 -1.2866
   43MOL    H3410198   0.865   1.710   1.731 -0.2845  0.9177 -1.2302
   43MOL    H3510199   0.770   2.021   1.463 -0.0330 -0.5636  0.0570
   43MOL    H3610200   0.651   2.045   1.597 -1.8529 -1.3231 -0.0201
   43MOL    H3710201   0.627   1.918   1.467 -1.6196  0.1688  0.9584
   43MOL    C3810202   1.070   1.739   1.648 -0.0196 -0.1942 -0.0126
   43MOL    C3910203   1.041   1.730   1.490 -0.2390 -0.4188 -0.0939
   43MOL    C4010204   1.177   1.711   1.419  0.0863 -0.4332 -0.7395
   43MOL    O4110205   1.246   1.808   1.379 -0.3669 -0.0061 -0.0211
   43MOL    O4210206   1.207   1.584   1.402  0.3388  0.5816 -0.4368
   43MOL    C4310207   1.322   1.555   1.320 -0.6474 -0.4929  0.0718
   43MOL    H4410208   1.150   1.811   1.665  1.0160 -1.0525 -1.2448
   43MOL    H4510209   1.110   1.641   1.673  0.1067  0.1442  1.1381
   43MOL    H4610210   1.002   1.826   1.458  3.5679  0.5987 -2.0047
   43MOL    H4710211   1.411   1.612   1.346 -0.9704  0.7442 -1.4331
   43MOL    H4810212   1.295   1.575   1.216  0.0981  0.7453  0.0987
   43MOL    H4910213   1.351   1.450   1.323  0.4800 -0.1952 -0.1121
   43MOL    C5010214   0.938   1.624   1.457 -0.3855  0.0985  1.0474
   43MOL    C5110215   0.866   1.648   1.320 -0.1193  0.6090  0.1730
   43MOL    C5210216   0.947   1.570   1.206  1.1662 -0.7860 -0.1463
   43MOL    O5310217   1.006   1.631   1.121 -0.1672 -0.1005 -0.2211
   43MOL    O5410218   0.931   1.443   1.211  0.2805  0.1522  0.1026
   43MOL    C5510219   0.991   1.357   1.124 -0.3524  0.1703  0.2463
   43MOL    H5610220   0.977   1.522   1.462  4.3526  1.4504 -3.8487
   43MOL    H5710221   0.861   1.629   1.534 -1.2433  1.2420  0.1377
   43MOL    H5810222   0.862   1.753   1.291  1.3652 -0.1577 -3.0152
   43MOL    H5910223   1.013   1.400   1.027 -0.3288 -0.9493 -0.2478
   43MOL    H6010224   0.920   1.275   1.116 -2.8359  2.2802 -0.1492
   43MOL    H6110225   1.087   1.316   1.156 -0.3784  0.5165  0.7701
   43MOL    C6210226   0.719   1.603   1.326  0.1021  0.2710 -0.1541
   43MOL    C6310227   0.648   1.587   1.196  0.2254  0.3819  1.0681
   43MOL    C6410228   0.605   1.442   1.163 -0.7528 -0.0131 -0.7703
   43MOL    O6510229   0.563   1.369   1.253 -0.2866 -0.1928 -0.6453
   43MOL    O6610230   0.617   1.407   1.032  0.1179 -0.8105  0.0539
   43MOL    C6710231   0.603   1.274   0.985  0.0573  0.1155 -0.1246
   43MOL    H6810232   0.721   1.504   1.370  0.2707  0.2302 -0.2501
   43MOL    H6910233   0.658   1.674   1.382 -0.2672  1.2566 -1.7612
   43MOL    H7010234   0.717   1.614   1.116 -1.5032  1.3261 -0.1374
   43MOL    H7110235   0.615   1.273   0.876 -0.7299  0.3901 -0.2174
   43MOL    H7210236   0.503   1.250   1.020 -0.1487 -0.9050 -1.3561
   43MOL    H7310237   0.676   1.207   1.030 -0.5048 -1.3578 -1.3543
   43MOL    C7410238   0.530   1.692   1.184 -0.0398 -0.5478  0.1219
   43MOL    C7510239   0.481   1.728   1.040  0.1191 -0.6192 -0.4128
   43MOL    C7610240   0.353   1.807   1.056  0.2907  0.4494  0.2521
   43MOL    O7710241   0.348   1.912   1.115 -0.1409 -0.1447 -0.0958
   43MOL    O7810242   0.250   1.747   0.988  0.5383 -0.1161 -0.1061
   43MOL    C7910243   0.113   1.789   1.012 -0.6595 -0.2313 -0.1000
   43MOL    H8010244   0.444   1.658   1.242  1.6986 -0.6197  2.7693
   43MOL    H8110245   0.559   1.791   1.220 -0.8290 -0.3409  0.1868
   43MOL    H8210246   0.476   1.639   0.977  2.2596 -0.8848 -0.2543
   43MOL    H8310247   0.119   1.889   0.970 -2.0160 -0.6414 -1.2891
   43MOL    H8410248   0.105   1.811   1.119  1.9432 -2.8090  0.7113
   43MOL    H8510249   0.030   1.728   0.975 -1.0743 -0.5321  1.2709
   43MOL    C8610250   0.587   1.817   0.956 -0.3041  0.6735  0.0810
   43MOL    C8710251   0.565   1.814   0.807  0.6033  0.4533 -0.4802
   43MOL    C8810252   0.595   1.948   0.739 -0.4810  0.5158  0.6745
   43MOL    O8910253   0.714   1.975   0.708  0.0409  0.5308  0.4159
   43MOL    O9010254   0.494   2.028   0.727 -0.8521 -0.2028 -0.3286
   43MOL    C9110255   0.513   2.154   0.657 -0.0545  0.0810 -0.0613
   43MOL    H9210256   0.587   1.922   0.984  1.6479  0.4248  1.1313
   43MOL    H9310257   0.686   1.785   0.989 -1.0081 -0.6589  0.9491
   43MOL    H9410258   0.459   1.799   0.786  0.5279 -0.3189  0.3892
   43MOL    H9510259   0.570   2.130   0.567  1.1123 -2.0818  1.2053
   43MOL    H9610260   0.563   2.224   0.724 -1.4910  2.7045 -1.6611
   43MOL    H9710261   0.414   2.192   0.632 -0.5132 -0.8892  0.2515
   43MOL    C9810262   0.637   1.692   0.750  0.0686  0.2908  1.1929
   43MOL    C9910263   0.610   1.664   0.604  0.2918  0.0341  0.3434
   43MOL   C10010264   0.697   1.546   0.549  0.1177 -1.0096  0.2970
   43MOL   O10110265   0.693   1.438   0.600 -0.2144 -0.3052 -0.3478
   43MOL   O10210266   0.760   1.578   0.436 -0.6838 -0.0894  0.6500
   43MOL   C10310267   0.813   1.478   0.351 -0.3020  0.3058 -0.4627
   43MOL   H10410268   0.745   1.704   0.755  0.3919  0.5480 -3.5588
   43MOL   H10510269   0.610   1.601   0.803 -1.5700  0.4294  0.6166
   43MOL   H10610270   0.642   1.754   0.553  1.9996 -1.9529 -2.2322
   43MOL   H10710271   0.900   1.432   0.399  0.7485  1.1938 -1.4934
   43MOL   H10810272   0.837   1.532   0.260 -0.6096  0.8464 -0.2205
   43MOL   H10910273   0.749   1.398   0.313 -0.1763 -0.4029  0.7846
   43MOL   C11010274   0.461   1.637   0.572  0.3779 -0.1654  0.0011
   43MOL   C11110275   0.370   1.759   0.533  0.7539  0.3148 -0.3495
   43MOL   C11210276   0.410   1.804   0.391  0.1098 -0.6125 -0.5435
   43MOL   O11310277   0.345   1.784   0.291 -0.5817  0.4259 -0.2812
   43MOL   O11410278   0.521   1.869   0.404 -0.4136 -0.1179 -0.3953
   43MOL   C11510279   0.571   1.948   0.299 -0.2852  0.4401  0.0123
   43MOL   H11610280   0.459   1.570   0.486  1.5188 -0.2931  0.0679
   43MOL   H11710281   0.415   1.581   0.653  1.0129  0.0325  0.5000
   43MOL   H11810282   0.396   1.844   0.595  0.3368  0.7641 -0.7799
   43MOL   H11910283   0.596   1.892   0.209  2.2342  1.7802 -0.1648
   43MOL   H12010284   0.657   2.002   0.338  1.0416  0.2644 -2.5772
   43MOL   H12110285   0.486   2.011   0.274 -0.5320 -0.3432 -1.1645
   43MOL   C12210286   0.222   1.719   0.541  0.2494  0.2424 -0.3872
   43MOL   C12310287   0.135   1.849   0.541 -0.0906 -0.0251 -0.1046
   43MOL   C12410288   7.924   1.816   0.494  0.3634 -0.1499  0.2404
   43MOL   O12510289   7.822   1.835   0.564 -0.0287 -0.3847  0.1043
   43MOL   O12610290   7.917   1.764   0.376 -0.1499 -0.3060  0.6234
   43MOL   C12710291   7.796   1.760   0.300  0.0562  0.2425  0.6548
   43MOL   H12810292   0.197   1.648   0.463 -1.5008  1.7368 -1.2268
   43MOL   H12910293   0.207   1.674   0.639 -1.0135  0.3156 -0.5339
   43MOL   H13010294   0.176   1.909   0.459 -2.5809 -0.3704 -1.6593
   43MOL   H13110295   7.716   1.710   0.355  1.5933 -2.0486  0.8772
   43MOL   H13210296   7.818   1.698   0.214 -2.1187  1.1697 -0.6095
   43MOL   H13310297   7.749   1.853   0.268 -0.8559 -0.4913 -0.1399
   43MOL   C13410298   0.137   1.911   0.677  0.0151  0.2235 -0.1633
   43MOL   C13510299   0.067   2.048   0.677  0.0858 -0.3275  0.8115
   43MOL   C13610300   0.091   2.122   0.818 -0.1711  0.0865 -0.2136
   43MOL   O13710301   0.003   2.175   0.891 -0.3126 -0.5023  0.1468
   43MOL   O13810302   0.224   2.125   0.843  0.1969  0.0449 -0.7915
   43MOL   C13910303   0.275   2.191   0.957 -0.1763 -0.4172  0.2114
   43MOL   H14010304   0.074   1.850   0.741 -0.1340 -1.0708 -1.5286
   43MOL   H14110305   0.234   1.900   0.727  0.3662 -0.3639 -0.9627
   43MOL   H14210306   7.892   2.032   0.671 -0.5201  3.6856 -0.3668
   43MOL   H14310307   0.224   2.286   0.966 -0.1319 -0.2156 -1.4210
   43MOL   H14410308   0.379   2.223   0.949 -0.2680 -0.1960 -0.1368
   43MOL   H14510309   0.267   2.145   1.055 -0.2200  2.0806  1.4046
   43MOL   C14610310   0.112   2.150   0.564  0.1590 -0.2005 -0.0780
   43MOL   C14710311   0.033   2.150   0.431 -0.5581  0.2694 -0.2412
   43MOL   C14810312   7.811   2.150   0.442 -0.4212 -0.1148 -0.6116
   43MOL   O14910313   7.742   2.086   0.359  0.0648  0.3726 -0.0727
   43MOL   O15010314   7.763   2.223   0.547 -0.5582  0.0285  0.3674
   43MOL   C15110315   7.642   2.187   0.607 -0.3321 -0.0541 -0.8955
   43MOL   H15210316   0.095   2.249   0.608 -0.7103 -0.7061  0.7460
   43MOL   H15310317   0.218   2.145   0.540  0.6718 -1.1470  2.2255
   43MOL   H15410318   0.065   2.059   0.381 -0.9343 -0.7874  1.3977
   43MOL   H15510319   7.660   2.092   0.658 -2.2686  0.3299  0.5729
   43MOL   H15610320   7.564   2.148   0.541 -0.5616 -0.2809 -0.4934
   43MOL   H15710321   7.606   2.278   0.656  3.2632  0.6582  0.5996
   43MOL   C15810322   0.072   2.269   0.345  0.2385 -0.2457 -0.1013
   43MOL   C15910323   0.166   2.227   0.229  0.3847 -0.0353 -1.0214
   43MOL   C16010324   0.089   2.126   0.142 -0.2870  0.7931 -0.1793
   43MOL   O16110325   0.113   2.007   0.150  0.4750 -0.3005  0.4427
   43MOL   O16210326   7.920   2.184   0.070 -0.0061  0.1955 -0.1708
   43MOL   C16310327   7.841   2.108   7.914  0.0284  0.7776 -0.3717
   43MOL   H16410328   7.916   2.322   0.309  2.3395  2.1408 -1.9430
   43MOL   H16510329   0.127   2.342   0.404  2.5349 -0.8038 -1.5236
   43MOL   H16610330   0.252   2.177   0.274 -0.4608  0.6283  1.4051
   43MOL   H16710331   7.781   2.174   7.851  0.7545  0.7566 -1.0889
   43MOL   H16810332   7.775   2.043   0.039  0.9815 -2.0295 -2.3114
   43MOL   H16910333   7.908   2.052   7.850  0.9674  1.2064  0.2223
   43MOL   C17010334   0.212   2.349   0.145 -0.8899 -0.9159 -0.6842
   43MOL   C17110335   0.300   2.448   0.213 -0.2381 -0.1117 -0.7417
   43MOL   C17210336   0.433   2.393   0.271  0.5262  0.6560  0.4984
   43MOL   O17310337   0.485   2.286   0.234 -0.5569 -0.6587  0.5611
   43MOL   O17410338   0.466   2.459   0.379  0.2071  0.6846 -0.0567
   43MOL   C17510339   0.601   2.457   0.426  0.2550 -0.5637 -0.3961
   43MOL   H17610340   0.260   2.313   0.054  1.5509 -1.1030  0.6585
   43MOL   H17710341   0.122   2.391   0.099  0.2899  0.7341 -1.5466
   43MOL   H17810342   0.255   2.486   0.304 -1.6305 -0.5999 -1.2052
   43MOL   H17910343   0.624   2.358   0.467  2.2122  0.0486  0.0426
   43MOL   H18010344   0.615   2.535   0.501 -2.6128  0.6819 -1.0987
   43MOL   H18110345   0.668   2.484   0.344 -0.6748  1.7738 -0.4264
   43MOL   C18210346   0.337   2.567   0.120  0.0766 -0.2042  0.2004
   43MOL   C18310347   0.210   2.647   0.068  0.0183  0.1890 -0.6919
   43MOL   C18410348   0.096   2.678   0.173  0.1037 -0.4298 -0.3968
   43MOL   O18510349   7.910   2.664   0.147 -0.5801 -0.3365 -0.4287
   43MOL   O18610350   0.135   2.718   0.291 -0.0721 -0.2100  0.3063
   43MOL   C18710351   0.040   2.726   0.400  0.2925  0.2007 -0.8677
   43MOL   H18810352   0.420   2.623   0.164 -0.3912 -0.0026  0.8310
   43MOL   H18910353   0.384   2.516   0.036 -1.3866  0.0527 -0.7853
   43MOL   H19010354   0.160   2.578   7.933  0.0917 -1.6853  1.1297
   43MOL   H19110355   0.097   2.747   0.490  0.2116 -0.8003 -0.5756
   43MOL   H19210356   7.932   2.626   0.416  1.8425 -0.4823 -1.1016
   43MOL   H19310357   7.893   2.799   0.387  0.6991  1.0467  1.3395
   43MOL   C19410358   0.251   2.780   7.932 -0.5512  0.5129 -0.1983
   43MOL   C19510359   0.178   2.832   7.816 -0.1386  0.1363 -0.2145
   43MOL   C19610360   0.145   2.726   7.706  0.1298  0.2645  0.4311
   43MOL   O19710361   0.029   2.707   7.670  0.3134 -0.2496  0.1102
   43MOL   O19810362   0.251   2.660   7.670  0.0963 -0.4078 -0.3838
   43MOL   C19910363   0.233   2.540   7.594  0.8699 -0.1718 -0.0375
   43MOL   H20010364   0.263   2.859   0.074 -1.5784  0.0835  0.4288
   43MOL   H20110365   0.355   2.768   7.899  0.3148  1.3708  2.0955
   43MOL   H20210366   0.246   2.905   7.772 -0.8521  1.0845  0.2318
   43MOL   H20310367   0.334   2.504   7.572  0.7740  0.3035 -1.3485
   43MOL   H20410368   0.192   2.564   7.495  0.8389 -0.3410 -0.0649
   43MOL   H20510369   0.167   2.466   7.639  1.9844 -0.5644  0.9652
   43MOL   C20610370   0.042   2.905   7.857 -0.2124 -0.3680  0.8491
   43MOL   C20710371   0.016   3.045   7.788  0.3736  0.4684  0.4412
   43MOL   C20810372   0.143   3.136   7.798  0.0445  0.4607 -0.4982
   43MOL   O20910373   0.179   3.215   7.711  0.4261 -0.5842  0.0481
   43MOL   O21010374   0.203   3.125   7.922 -0.0649 -0.0266  0.2045
   43MOL   C21110375   0.331   3.190   0.011  0.3252 -0.1117  0.0602
   43MOL   H21210376   7.878   2.855   7.857 -0.7957  0.7537 -0.0924
   43MOL   H21310377   0.063   2.939   0.026  1.4964  0.1877  0.3389
   43MOL   H21410378   7.876   3.098   7.849 -0.3288 -0.1692  0.1756
   43MOL   H21510379   0.340   3.296   7.924 -2.4728  0.5229  1.9151
   43MOL   H21610380   0.424   3.139   7.917  2.4477  3.2272  0.8265
   43MOL   H21710381   0.340   3.184   0.120  0.8437  0.5155  0.0498
   43MOL   C21810382   7.902   3.027   7.641 -0.1342  0.4731  0.2816
   43MOL   C21910383   7.841   3.149   7.574 -0.7399 -0.2921 -0.4578
   43MOL   C22010384   7.880   3.163   7.427 -0.2908  0.2782 -0.3900
   43MOL   O22110385   0.009   3.082   7.366 -0.1373 -0.4191 -0.2237
   43MOL   O22210386   7.827   3.282   7.378 -0.0256  0.5209 -0.0009
   43MOL   C22310387   7.861   3.337   7.253 -0.1889  0.4987 -0.3235
   43MOL   H22410388   0.055   2.988   7.586 -1.5207 -1.5642 -0.5125
   43MOL   H22510389   7.834   2.942   7.648 -0.1467  0.4756  0.1973
   43MOL   H22610390   7.892   3.233   7.622 -1.0509 -0.9611  1.0814
   43MOL   H22710391   7.817   3.435   7.238 -0.8598  0.1179 -0.8771
   43MOL   H22810392   7.835   3.269   7.172 -1.9120 -0.3630  0.9150
   43MOL   H22910393   0.037   3.338   7.245 -0.0921 -1.2886  0.3662
   43MOL   C23010394   7.692   3.163   7.598  0.2329  0.7236 -0.5038
   43MOL   C23110395   7.589   3.087   7.514 -0.1518  0.7635  0.0616
   43MOL   C23210396   7.593   2.923   7.511 -0.8077  0.5850  0.0377
   43MOL   O23310397   7.654   2.864   7.421  0.2254  0.7922 -0.3200
   43MOL   O23410398   7.516   2.869   7.602 -0.1616  0.0561 -0.4220
   43MOL   C23510399   7.508   2.724   7.602  1.1069  0.3712 -0.0858
   43MOL   H23610400   7.672   3.143   7.703  0.0672 -2.5048 -1.0696
   43MOL   H23710401   7.663   3.266   7.582 -0.5231  0.3264 -1.8173
   43MOL   H23810402   7.592   3.107   7.407 -3.1076 -0.1205 -0.2251
   43MOL   H23910403   7.593   2.683   7.656  0.0338  1.2046  2.3110
   43MOL   H24010404   7.517   2.680   7.503 -3.4238  0.0944 -0.4738
   43MOL   H24110405   7.416   2.684   7.646  0.7962  0.7504 -0.3851
   43MOL   H24210406   7.487   3.112   7.543 -0.0046  0.4155  0.9065
   44MOL     C110407   5.388   0.842   7.920 -0.0782  0.7311 -0.0566
   44MOL     C210408   5.267   0.864   7.834  0.4018  0.0448  0.0559
   44MOL     C310409   5.273   0.768   7.715  0.7052  0.5866  0.7883
   44MOL     O410410   5.236   0.649   7.728 -0.1000 -1.0781  0.3862
   44MOL     O510411   5.317   0.831   7.600 -0.4413 -0.7525 -0.5044
   44MOL     C610412   5.335   0.757   7.478 -0.5248 -0.0405 -0.1176
   44MOL     H710413   5.479   0.860   7.862  0.5861 -1.0365  0.4222
   44MOL     H810414   5.394   0.737   0.012  1.7711  0.3527 -1.9009
   44MOL     H910415   5.275   0.962   7.787 -1.9317 -0.9257 -2.5122
   44MOL    H1010416   5.355   0.652   7.497 -1.4131 -0.4396 -1.3711
   44MOL    H1110417   5.423   0.796   7.426 -0.5135 -2.0912 -1.6976
   44MOL    H1210418   5.249   0.774   7.413  0.5120 -0.6630 -1.6777
   44MOL    H1310419   5.380   0.905   0.075  0.0899 -2.2423  2.1549
   44MOL    C1410420   5.135   0.858   7.916 -0.1869  0.0894 -0.4277
   44MOL    C1510421   5.104   0.968   0.083 -0.0163 -0.3748 -0.2162
   44MOL    C1610422   5.111   1.111   0.024  0.3477 -0.4853  0.0573
   44MOL    O1710423   5.127   1.130   7.835  0.6686 -0.3121  0.7204
   44MOL    O1810424   5.083   1.203   0.110 -0.0119  0.4819  0.4928
   44MOL    C1910425   5.051   1.332   0.061  0.1008 -0.2751 -0.0240
   44MOL    H2010426   5.054   0.845   7.844 -0.7982 -0.2501  0.3256
   44MOL    H2110427   5.132   0.765   0.040  0.7539  0.0519 -0.4314
   44MOL    H2210428   5.185   0.968   0.156 -1.3595 -1.7139  1.3098
   44MOL    H2310429   4.997   1.390   0.137  0.6912  2.6088 -1.7247
   44MOL    H2410430   5.003   1.329   7.897  0.4864 -1.6511 -0.1778
   44MOL    H2510431   5.144   1.385   0.041 -1.5121  1.8033 -2.3521
   44MOL    C2610432   4.968   0.926   0.147 -0.2583 -0.1433  0.2546
   44MOL    C2710433   4.920   1.013   0.274  0.7619 -0.4725  0.0336
   44MOL    C2810434   4.762   1.003   0.306 -0.1074 -0.0558 -0.6460
   44MOL    O2910435   4.698   1.105   0.325  0.2112  0.8141 -0.2179
   44MOL    O3010436   4.720   0.874   0.317 -0.3961 -0.2356  0.2555
   44MOL    C3110437   4.580   0.848   0.359  0.1301  0.1544 -0.0921
   44MOL    H3210438   4.893   0.916   0.068  0.3095 -1.6593 -0.1111
   44MOL    H3310439   4.987   0.827   0.190 -1.4262 -0.5865 -0.2189
   44MOL    H3410440   4.931   1.118   0.248 -1.0506 -0.0023  1.0848
   44MOL    H3510441   4.527   0.833   0.265  0.8995  0.3307 -0.5577
   44MOL    H3610442   4.527   0.920   0.420 -1.0888 -0.7969 -0.0040
   44MOL    H3710443   4.586   0.756   0.417  1.6682  0.5498  0.3850
   44MOL    C3810444   5.006   0.985   0.397  0.2265  0.4403 -0.4005
   44MOL    C3910445   5.032   1.106   0.486 -0.4042 -0.2028 -0.2522
   44MOL    C4010446   4.914   1.175   0.555  0.0397 -0.4907  0.1886
   44MOL    O4110447   4.902   1.301   0.550 -0.1077  0.5919  0.4415
   44MOL    O4210448   4.840   1.091   0.631  0.8613  0.7676 -0.0300
   44MOL    C4310449   4.732   1.144   0.706 -0.1302 -0.3094  0.1022
   44MOL    H4410450   4.953   0.903   0.447  0.7797  0.3911  0.1126
   44MOL    H4510451   5.107   0.953   0.371 -0.2325 -0.0166 -1.6663
   44MOL    H4610452   5.071   1.177   0.414 -0.2704  0.2494  0.2633
   44MOL    H4710453   4.678   1.217   0.645  2.6385  0.0554 -1.9729
   44MOL    H4810454   4.772   1.195   0.794  0.2334 -0.2754 -0.0823
   44MOL    H4910455   4.653   1.073   0.730  0.4548 -1.2019 -0.6174
   44MOL    C5010456   5.153   1.102   0.583 -0.1081  0.9025  0.3853
   44MOL    C5110457   5.149   0.984   0.683 -0.4537  0.5612  0.2888
   44MOL    C5210458   5.198   0.856   0.617  0.5959  0.3574  0.0786
   44MOL    O5310459   5.302   0.861   0.555  0.3351 -0.3623 -0.6779
   44MOL    O5410460   5.125   0.747   0.632  0.3534  0.2732  0.4172
   44MOL    C5510461   5.168   0.623   0.576  0.7141  0.0920 -0.4009
   44MOL    H5610462   5.248   1.100   0.530 -0.1198  2.2010  0.3047
   44MOL    H5710463   5.147   1.196   0.637  0.5424  0.4513  1.2667
   44MOL    H5810464   5.042   0.973   0.700 -0.0941 -0.2158  2.1098
   44MOL    H5910465   5.086   0.552   0.561  0.7260 -0.1834  0.7432
   44MOL    H6010466   5.244   0.572   0.635 -2.0277 -2.1656  1.3326
   44MOL    H6110467   5.221   0.633   0.482  1.9623  0.9895  0.3896
   44MOL    C6210468   5.237   1.028   0.805 -0.2126  0.1718 -0.1843
   44MOL    C6310469   5.224   0.931   0.930  0.2784 -0.4482 -0.1165
   44MOL    C6410470   5.354   0.956   1.012 -0.0806 -0.5456 -0.5526
   44MOL    O6510471   5.356   0.986   1.135  0.3272 -0.4969 -0.1440
   44MOL    O6610472   5.462   0.928   0.940  0.4937 -0.2978  0.1298
   44MOL    C6710473   5.591   0.931   0.996  0.3795 -0.1960 -0.1246
   44MOL    H6810474   5.336   1.046   0.763 -0.3069 -1.3110 -1.0648
   44MOL    H6910475   5.207   1.126   0.843 -0.2881  0.0538  0.0666
   44MOL    H7010476   5.226   0.829   0.891 -1.9572 -0.5852  0.0522
   44MOL    H7110477   5.605   1.011   1.069  1.8791 -0.9818  0.4734
   44MOL    H7210478   5.659   0.931   0.911 -0.1935 -2.8208 -0.6327
   44MOL    H7310479   5.610   0.838   1.049 -0.9128 -0.5252 -0.2274
   44MOL    C7410480   5.093   0.953   1.013  0.8939 -0.1708 -0.0918
   44MOL    C7510481   5.037   0.826   1.072 -0.0748  0.4666 -0.1441
   44MOL    C7610482   4.927   0.860   1.178 -0.0481  0.3660 -0.0160
   44MOL    O7710483   4.933   0.811   1.288  0.5742  0.2667 -0.1948
   44MOL    O7810484   4.834   0.939   1.120 -0.3123  0.3374 -0.0900
   44MOL    C7910485   4.723   0.967   1.197  0.5609 -0.5805 -0.1977
   44MOL    H8010486   5.110   1.021   1.097  1.3253 -0.8066  0.3348
   44MOL    H8110487   5.018   0.993   0.943 -1.6455 -2.3305  1.3062
   44MOL    H8210488   5.108   0.768   1.132 -0.4628  2.6047  2.4473
   44MOL    H8310489   4.725   1.062   1.251  1.1281 -1.1659  0.8353
   44MOL    H8410490   4.696   0.885   1.264  0.4979 -0.5403 -0.1744
   44MOL    H8510491   4.642   0.976   1.125  0.1754  1.2138  0.4297
   44MOL    C8610492   4.986   0.727   0.970  0.3634 -0.0487  0.6072
   44MOL    C8710493   5.015   0.579   0.993 -0.1337 -0.2362  0.7426
   44MOL    C8810494   5.166   0.537   0.982 -0.1168  0.2937 -0.0533
   44MOL    O8910495   5.202   0.446   0.907  0.6381 -0.0878 -0.0302
   44MOL    O9010496   5.257   0.605   1.058  0.2052 -0.4386  0.2451
   44MOL    C9110497   5.395   0.598   1.032  0.1746 -0.5002  1.0235
   44MOL    H9210498   4.878   0.734   0.957  0.2300  1.0260  2.2105
   44MOL    H9310499   5.015   0.751   0.868  1.2066 -3.2724  0.0262
   44MOL    H9410500   4.962   0.534   0.909 -0.8126  2.2026 -0.1692
   44MOL    H9510501   5.445   0.502   1.047  1.7536  0.1419  0.0461
   44MOL    H9610502   5.448   0.670   1.094  0.3320  1.7909 -1.6795
   44MOL    H9710503   5.415   0.639   0.933  1.0261 -1.9087  0.6028
   44MOL    C9810504   4.946   0.519   1.121 -0.3445  0.1713 -0.9965
   44MOL    C9910505   4.955   0.367   1.147 -1.1878 -0.8130  0.2010
   44MOL   C10010506   5.005   0.318   1.281  0.0257 -0.3812 -0.2926
   44MOL   O10110507   5.127   0.301   1.301 -0.0249 -0.0222 -0.4325
   44MOL   O10210508   4.905   0.309   1.367 -0.1746  0.1192 -0.0621
   44MOL   C10310509   4.932   0.254   1.497 -0.4521  0.4748 -0.2788
   44MOL   H10410510   4.986   0.562   1.212  0.4451 -0.7448 -0.9080
   44MOL   H10510511   4.840   0.542   1.104 -1.2700 -3.0869  0.0032
   44MOL   H10610512   5.038   0.324   1.091 -2.0724 -1.3729 -0.7144
   44MOL   H10710513   4.987   0.159   1.496  0.5970  1.0533  0.7627
   44MOL   H10810514   4.839   0.240   1.552 -0.3108 -3.4840 -0.8523
   44MOL   H10910515   4.989   0.334   1.544 -0.0008  0.3432 -0.5867
   44MOL   C11010516   4.829   0.291   1.098 -0.1070 -0.9549  0.3941
   44MOL   C11110517   4.803   0.295   0.940  0.2466  0.5823 -0.4234
   44MOL   C11210518   4.909   0.222   0.863 -0.7463  0.1259  0.5316
   44MOL   O11310519   4.958   0.119   0.908 -0.1182 -0.8366 -0.6734
   44MOL   O11410520   4.946   0.289   0.754  0.4272  1.1572 -0.2452
   44MOL   C11510521   5.064   0.244   0.678  0.2280 -0.3786 -0.9278
   44MOL   H11610522   4.851   0.187   1.125 -0.0262 -0.9388  0.3896
   44MOL   H11710523   4.746   0.329   1.158  1.7373  0.0043  2.4217
   44MOL   H11810524   4.804   0.397   0.903  1.7483  0.4033 -0.9380
   44MOL   H11910525   5.102   0.146   0.707 -1.7405 -1.8731 -3.1767
   44MOL   H12010526   5.141   0.320   0.689 -2.4663  2.1228  1.5483
   44MOL   H12110527   5.060   0.243   0.569  0.8076 -2.2494 -0.9604
   44MOL   C12210528   4.664   0.235   0.904  0.4816 -0.4026  0.2249
   44MOL   C12310529   4.604   0.276   0.768 -0.0529  0.5425  0.1446
   44MOL   C12410530   4.549   0.151   0.701  0.2823  0.3086  0.1897
   44MOL   O12510531   4.433   0.138   0.663 -0.0297 -0.3285 -0.3046
   44MOL   O12610532   4.651   0.053   0.689 -0.3266 -0.5827 -0.3188
   44MOL   C12710533   4.619   7.864   0.623 -0.5778 -0.2949 -0.3485
   44MOL   H12810534   4.680   0.128   0.911 -0.4493 -0.3233  5.1302
   44MOL   H12910535   4.594   0.242   0.988  0.7462 -0.3404  0.4386
   44MOL   H13010536   4.686   0.297   0.699 -1.1928 -1.2088 -1.8105
   44MOL   H13110537   4.695   7.786   0.631 -0.8574 -0.4827  0.4512
   44MOL   H13210538   4.608   7.884   0.516 -3.3858  1.0319  0.1355
   44MOL   H13310539   4.524   7.823   0.659 -0.1706 -1.6996 -0.8204
   44MOL   C13410540   4.488   0.372   0.780  0.3050 -0.0947 -0.7604
   44MOL   C13510541   4.532   0.516   0.803  0.4176  0.0316  1.8492
   44MOL   C13610542   4.604   0.595   0.691 -0.4744  0.0090 -0.4619
   44MOL   O13710543   4.610   0.558   0.570 -0.0377  0.1218  0.0480
   44MOL   O13810544   4.653   0.712   0.734 -0.4999  0.1169  0.0884
   44MOL   C13910545   4.736   0.791   0.664  0.2257 -0.7853 -0.0779
   44MOL   H14010546   4.417   0.378   0.698 -0.5466  2.8476  0.1311
   44MOL   H14110547   4.421   0.340   0.860  0.6009  1.3415  0.0738
   44MOL   H14210548   4.609   0.513   0.880  1.7406  2.0535  0.6353
   44MOL   H14310549   4.813   0.730   0.618  0.8061 -0.9965  1.1451
   44MOL   H14410550   4.787   0.855   0.737 -2.0652 -0.4297  1.2340
   44MOL   H14510551   4.693   0.858   0.589 -0.0408 -1.9362 -0.9642
   44MOL   C14610552   4.420   0.594   0.881  0.1578 -0.0002  0.4878
   44MOL   C14710553   4.405   0.547   1.031 -0.2228  0.1936 -0.2596
   44MOL   C14810554   4.518   0.611   1.120  0.2425 -0.2396  0.0417
   44MOL   O14910555   4.607   0.685   1.079 -0.3661  1.0464 -0.4705
   44MOL   O15010556   4.510   0.563   1.243 -0.0463  0.0528  0.2589
   44MOL   C15110557   4.626   0.579   1.330 -0.6200  0.4236 -0.1608
   44MOL   H15210558   4.444   0.699   0.870  1.1482 -0.4390 -1.8958
   44MOL   H15310559   4.322   0.585   0.833  0.2816 -1.3309  0.4642
   44MOL   H15410560   4.424   0.439   1.039  0.6791  0.4515  1.3236
   44MOL   H15510561   4.714   0.527   1.292 -0.7062 -0.5286  0.9244
   44MOL   H15610562   4.608   0.529   1.426 -1.2771 -0.0683 -0.5369
   44MOL   H15710563   4.645   0.684   1.352  0.1261  0.5497 -1.3795
   44MOL   C15810564   4.264   0.582   1.094 -0.8616  0.5610 -0.5411
   44MOL   C15910565   4.151   0.471   1.084 -0.1001 -0.2685 -0.5696
   44MOL   C16010566   4.200   0.339   1.146 -0.7883  0.0823  0.1382
   44MOL   O16110567   4.224   0.243   1.071  0.3232 -0.0307  0.6713
   44MOL   O16210568   4.236   0.351   1.276  0.4710  0.2637 -0.4350
   44MOL   C16310569   4.285   0.240   1.345  0.3223  0.9576  0.0032
   44MOL   H16410570   4.273   0.608   1.200  2.5015  2.4068 -1.2382
   44MOL   H16510571   4.229   0.672   1.044 -0.8589  0.3087 -1.0019
   44MOL   H16610572   4.135   0.458   0.977  1.9791  0.9441 -1.0631
   44MOL   H16710573   4.259   0.150   1.289 -0.4385  1.0394  0.2268
   44MOL   H16810574   4.248   0.237   1.448  3.4373  0.9376  1.2116
   44MOL   H16910575   4.394   0.244   1.355  0.2817  2.7303 -0.1073
   44MOL   C17010576   4.012   0.507   1.143 -0.0208 -0.0980  0.0627
   44MOL   C17110577   3.945   0.624   1.069 -0.0812 -0.8720 -0.0067
   44MOL   C17210578   3.865   0.572   0.947  0.1450 -0.7484  0.1431
   44MOL   O17310579   3.912   0.513   0.850  0.9195 -0.1942 -0.2970
   44MOL   O17410580   3.732   0.590   0.957  0.3315 -0.0632 -0.1452
   44MOL   C17510581   3.644   0.557   0.851 -0.2258  0.0551 -0.6600
   44MOL   H17610582   3.943   0.424   1.130 -0.4221  0.0207  1.3646
   44MOL   H17710583   4.016   0.518   1.251 -3.2600  0.0984  0.2044
   44MOL   H17810584   4.021   0.684   1.019  0.7777 -1.5154  0.5174
   44MOL   H17910585   3.582   0.642   0.823 -0.4676 -0.4197 -1.6100
   44MOL   H18010586   3.588   0.473   0.893  0.5147 -0.0827  0.0588
   44MOL   H18110587   3.692   0.525   0.758 -1.4942 -0.7093 -1.0688
   44MOL   C18210588   3.858   0.721   1.165  0.3912 -0.0069 -0.4916
   44MOL   C18310589   3.836   0.867   1.108 -0.7172  0.4529 -0.0967
   44MOL   C18410590   3.722   0.941   1.188  0.1205 -0.4874  0.4980
   44MOL   O18510591   3.653   1.030   1.135  0.3964 -0.0678 -1.0959
   44MOL   O18610592   3.716   0.911   1.319 -0.0155  0.3463  0.0886
   44MOL   C18710593   3.633   0.972   1.414  0.3553 -0.1963 -0.2311
   44MOL   H18810594   3.763   0.669   1.180 -0.7272  1.1728 -3.2358
   44MOL   H18910595   3.901   0.736   1.264  2.2036 -1.9578 -0.9441
   44MOL   H19010596   3.795   0.856   1.008 -0.8653 -0.7224  0.0873
   44MOL   H19110597   3.624   0.919   1.508 -1.4648 -0.3009 -0.4476
   44MOL   H19210598   3.532   0.987   1.378 -0.9421 -0.7557  3.0244
   44MOL   H19310599   3.676   1.067   1.445  1.6478 -0.7731 -0.2255
   44MOL   C19410600   3.964   0.961   1.113  0.1607 -0.1752 -0.3150
   44MOL   C19510601   4.036   0.981   1.251  0.4745  0.3572  0.4993
   44MOL   C19610602   4.180   0.948   1.261  0.2715  0.3726 -0.0929
   44MOL   O19710603   4.217   0.857   1.337  0.3751  0.4652  0.4460
   44MOL   O19810604   4.264   1.007   1.186 -1.0537 -0.0224 -0.0710
   44MOL   C19910605   4.402   0.995   1.206 -0.0255 -0.0191 -0.2544
   44MOL   H20010606   4.029   0.928   1.033  1.4501 -0.6432  0.9175
   44MOL   H20110607   3.916   1.057   1.092  1.4809  1.0581  2.1005
   44MOL   H20210608   3.979   0.938   1.333  1.7271 -0.1452  1.1223
   44MOL   H20310609   4.423   1.023   1.309  0.1832 -0.8718 -0.0597
   44MOL   H20410610   4.449   1.073   1.145 -0.2805  1.9606  2.0422
   44MOL   H20510611   4.444   0.903   1.166  1.9331  1.3285 -1.4064
   44MOL   C20610612   4.016   1.135   1.277 -0.4120  0.2865 -0.6570
   44MOL   C20710613   4.055   1.183   1.420  0.2778  0.0283 -0.1626
   44MOL   C20810614   4.169   1.284   1.410  0.4974 -0.0589  0.6859
   44MOL   O20910615   4.147   1.395   1.364  0.0036  0.2959  0.4209
   44MOL   O21010616   4.292   1.224   1.427  0.0637 -0.7103 -0.0422
   44MOL   C21110617   4.403   1.309   1.452  0.8438  0.2981  0.1116
   44MOL   H21210618   4.054   1.204   1.202  0.6077  0.1218 -0.2965
   44MOL   H21310619   3.910   1.156   1.266 -0.5073  0.2290  0.1289
   44MOL   H21410620   4.092   1.094   1.471  1.5814  0.5355 -0.1926
   44MOL   H21510621   4.409   1.367   1.360 -0.8365  0.2330 -0.0655
   44MOL   H21610622   4.494   1.250   1.451  1.0742  0.6653 -1.0593
   44MOL   H21710623   4.389   1.366   1.544  0.7694 -0.1098  0.3500
   44MOL   C21810624   3.934   1.227   1.503  0.0859  0.7327  0.5015
   44MOL   C21910625   3.933   1.214   1.656 -0.4147 -0.2767 -0.5083
   44MOL   C22010626   3.960   1.069   1.689  0.1490 -0.0933 -0.0469
   44MOL   O22110627   4.043   1.034   1.775  0.3260  0.2680 -0.1689
   44MOL   O22210628   3.898   0.976   1.599 -0.3646  0.1969 -0.3940
   44MOL   C22310629   3.917   0.840   1.631  0.3413 -0.7311  0.9918
   44MOL   H22410630   3.907   1.329   1.474 -0.4771  1.4461  3.4083
   44MOL   H22510631   3.852   1.165   1.467  0.9945  0.1238 -0.5494
   44MOL   H22610632   3.831   1.224   1.693 -1.0660 -0.5884 -2.1842
   44MOL   H22710633   3.884   0.779   1.548  0.0356  1.6948 -0.7364
   44MOL   H22810634   3.851   0.808   1.712 -0.0466  0.8892  1.3403
   44MOL   H22910635   4.019   0.813   1.659  1.2099  0.4617 -0.8847
   44MOL   C23010636   4.007   1.321   1.743 -0.3453 -0.9281 -0.4456
   44MOL   C23110637   3.984   1.321   1.893 -0.1817 -0.2753  0.2120
   44MOL   C23210638   3.889   1.432   1.934 -0.5544 -0.4935  0.6523
   44MOL   O23310639   3.918   1.518   2.013 -0.2639  0.2955  0.0567
   44MOL   O23410640   3.766   1.424   1.878  0.2767  0.5875  0.3461
   44MOL   C23510641   3.660   1.515   1.896  0.0776  0.1986 -0.4254
   44MOL   H23610642   4.114   1.300   1.739  0.0562  0.5426  2.0727
   44MOL   H23710643   3.997   1.422   1.705  0.0724 -0.4098  0.8148
   44MOL   H23810644   4.074   1.346   1.948 -0.5617 -1.1651  1.2675
   44MOL   H23910645   3.573   1.495   1.833 -0.4940  2.5520 -0.4150
   44MOL   H24010646   3.699   1.615   1.877  0.2119  0.2398  0.0631
   44MOL   H24110647   3.632   1.523   2.001 -0.2860  3.1332 -0.6946
   44MOL   H24210648   3.946   1.225   1.929 -0.6672 -1.0298 -2.2004
   45MOL     C110649   3.929   2.157   4.320  0.1273  0.4228  0.0788
   45MOL     C210650   3.996   2.015   4.318  0.1050  0.1998 -0.3056
   45MOL     C310651   3.885   1.907   4.299  0.1513 -0.3712 -0.4663
   45MOL     O410652   3.847   1.837   4.394 -0.0895  0.1345  0.3816
   45MOL     O510653   3.837   1.888   4.173 -0.2197  0.1459  0.8136
   45MOL     C610654   3.722   1.806   4.142 -0.0681  0.2972  0.2560
   45MOL     H710655   3.903   2.200   4.223  0.5826  0.7007  0.0810
   45MOL     H810656   3.994   2.229   4.368  0.8440 -0.4766  0.4649
   45MOL     H910657   4.033   1.994   4.419  0.2669  0.3472 -0.3338
   45MOL    H1010658   3.640   1.829   4.210 -0.1807 -0.7565  0.4817
   45MOL    H1110659   3.756   1.703   4.153 -0.4163  0.0405 -0.9148
   45MOL    H1210660   3.686   1.822   4.040 -0.4461  0.2888  0.3869
   45MOL    H1310661   3.838   2.145   4.380  1.0571 -0.5359  1.3187
   45MOL    C1410662   4.115   1.997   4.224 -0.3218 -0.5008  0.0084
   45MOL    C1510663   4.254   1.980   4.286  0.4280 -0.4297 -0.1033
   45MOL    C1610664   4.315   2.117   4.331 -0.6204 -0.1411  0.3138
   45MOL    O1710665   4.392   2.172   4.252  0.0856  0.0592  0.3767
   45MOL    O1810666   4.286   2.171   4.450 -0.2673 -0.2835 -0.1120
   45MOL    C1910667   4.341   2.299   4.486 -0.6469  0.1964 -0.1398
   45MOL    H2010668   4.120   1.924   4.143  0.4804  0.5195 -0.8743
   45MOL    H2110669   4.129   2.084   4.160  2.1096 -1.5710 -0.9898
   45MOL    H2210670   4.309   1.959   4.194 -0.4312 -2.8652 -0.0923
   45MOL    H2310671   4.312   2.378   4.416  0.7440  2.1429  1.4563
   45MOL    H2410672   4.449   2.297   4.499 -0.7233  2.2566  1.0110
   45MOL    H2510673   4.299   2.343   4.576  1.6980 -1.1148  1.6364
   45MOL    C2610674   4.268   1.867   4.398 -0.7411  0.2174  0.2669
   45MOL    C2710675   4.223   1.721   4.356  0.4754 -0.5939  0.8388
   45MOL    C2810676   4.298   1.679   4.233  0.0660 -0.6795  1.0145
   45MOL    O2910677   4.414   1.634   4.238 -0.0397  0.5918 -0.3972
   45MOL    O3010678   4.235   1.695   4.122  0.1280 -0.4824  0.0006
   45MOL    C3110679   4.288   1.641   4.003 -0.1517  0.6542 -0.7109
   45MOL    H3210680   4.376   1.863   4.418 -0.8577  1.9090  1.3149
   45MOL    H3310681   4.216   1.898   4.488  0.5996 -1.7621  1.7684
   45MOL    H3410682   4.118   1.741   4.331  0.2747 -4.5222 -1.7748
   45MOL    H3510683   4.358   1.559   4.019 -0.3517  0.9908  2.2574
   45MOL    H3610684   4.336   1.718   3.942  1.4200  1.3878  1.3960
   45MOL    H3710685   4.220   1.605   3.926 -0.9612 -0.8531  0.6912
   45MOL    C3810686   4.246   1.626   4.473 -0.4044 -0.0634 -0.2077
   45MOL    C3910687   4.179   1.487   4.468  0.3054  0.2884  0.0025
   45MOL    C4010688   4.196   1.398   4.590  0.0891  0.0800 -0.1187
   45MOL    O4110689   4.222   1.451   4.703 -0.2510 -0.0710  0.6302
   45MOL    O4210690   4.189   1.266   4.566 -0.1382 -0.8411  0.3827
   45MOL    C4310691   4.208   1.178   4.670  0.4840  0.7077 -0.1841
   45MOL    H4410692   4.348   1.618   4.511 -0.8066 -0.1113  0.9060
   45MOL    H4510693   4.196   1.680   4.554  1.2298 -0.4728  1.1060
   45MOL    H4610694   4.220   1.428   4.385 -0.2696 -1.2051  0.7634
   45MOL    H4710695   4.156   1.207   4.762 -1.3773 -0.8537 -0.7005
   45MOL    H4810696   4.313   1.164   4.696  0.0393 -0.9126  0.8097
   45MOL    H4910697   4.190   1.076   4.637 -0.0601  0.8008 -0.1822
   45MOL    C5010698   4.023   1.497   4.442  0.5939  0.1100 -0.4669
   45MOL    C5110699   3.966   1.384   4.356 -0.3834 -0.2663 -0.7911
   45MOL    C5210700   3.818   1.394   4.373 -0.5870  0.3357  0.5387
   45MOL    O5310701   3.763   1.290   4.403  0.0160  0.3390  0.1599
   45MOL    O5410702   3.769   1.520   4.360  0.0788 -0.5737 -1.0331
   45MOL    C5510703   3.624   1.520   4.352 -0.0626 -0.5908  0.6237
   45MOL    H5610704   3.977   1.511   4.540  0.5921 -1.1746 -0.2800
   45MOL    H5710705   4.002   1.591   4.391 -0.5825 -0.5088 -1.1598
   45MOL    H5810706   3.997   1.285   4.389  1.5630  1.1085  1.6730
   45MOL    H5910707   3.585   1.469   4.441 -0.7387 -2.0660 -0.5003
   45MOL    H6010708   3.581   1.481   4.260 -0.5261  0.0842  0.5499
   45MOL    H6110709   3.587   1.623   4.353 -2.2391 -1.3301 -0.6750
   45MOL    C6210710   4.012   1.397   4.202 -0.1186 -0.4456  0.3619
   45MOL    C6310711   3.929   1.302   4.115  0.5326  0.4500 -0.6894
   45MOL    C6410712   3.831   1.377   4.026  0.3687 -0.1484  0.2049
   45MOL    O6510713   3.833   1.497   4.017  0.0760 -0.7742  0.3567
   45MOL    O6610714   3.759   1.282   3.963 -0.7129  0.2005 -0.1460
   45MOL    C6710715   3.646   1.329   3.886  0.5943  0.5777 -0.1182
   45MOL    H6810716   4.028   1.500   4.172  1.5563 -0.7282  0.1982
   45MOL    H6910717   4.116   1.363   4.194 -0.6509 -1.8028 -1.2277
   45MOL    H7010718   3.876   1.237   4.184 -0.0912  2.7134  1.0290
   45MOL    H7110719   3.678   1.341   3.783  1.3454  1.5542  0.2253
   45MOL    H7210720   3.603   1.422   3.923  2.3700  0.9622  1.0224
   45MOL    H7310721   3.576   1.246   3.896 -1.2784  1.7829 -2.5180
   45MOL    C7410722   4.013   1.213   4.025  0.1837 -0.3698  0.4399
   45MOL    C7510723   4.117   1.290   3.926  0.8843  0.8495 -0.1535
   45MOL    C7610724   4.263   1.250   3.971 -0.6538  0.3337 -0.2283
   45MOL    O7710725   4.311   1.280   4.082  0.7266 -0.4129 -0.6135
   45MOL    O7810726   4.333   1.183   3.883 -0.1890  0.5307 -0.1903
   45MOL    C7910727   4.471   1.145   3.910 -0.1044 -0.4640  0.5536
   45MOL    H8010728   4.064   1.149   4.097 -0.3047 -1.0858  0.1574
   45MOL    H8110729   3.956   1.134   3.975 -0.2956  0.7867 -0.8827
   45MOL    H8210730   4.120   1.397   3.949 -1.1335  0.7761  0.4779
   45MOL    H8310731   4.531   1.168   3.822 -2.2836  0.3801 -0.7672
   45MOL    H8410732   4.497   1.040   3.923  2.2840  0.2648  1.7995
   45MOL    H8510733   4.511   1.199   3.996  0.2447  0.2082 -0.0260
   45MOL    C8610734   4.066   1.288   3.774 -0.3782  0.3766  0.1753
   45MOL    C8710735   4.109   1.402   3.688 -0.3523  0.5388  0.0116
   45MOL    C8810736   4.254   1.416   3.664 -0.1882 -0.9881  0.9027
   45MOL    O8910737   4.329   1.478   3.734  0.4144  0.0665 -0.1408
   45MOL    O9010738   4.300   1.354   3.559  0.4222  0.3460  0.2487
   45MOL    C9110739   4.433   1.389   3.525  0.0034 -0.0341 -0.0615
   45MOL    H9210740   4.078   1.190   3.728 -1.3989  0.2385  0.1867
   45MOL    H9310741   3.957   1.294   3.778 -0.2901  2.5673  0.2805
   45MOL    H9410742   4.103   1.493   3.748  0.2679  1.6994 -1.6455
   45MOL    H9510743   4.468   1.320   3.448 -0.0075  0.0610 -0.1522
   45MOL    H9610744   4.505   1.359   3.601  1.2560  3.2307  0.1052
   45MOL    H9710745   4.442   1.493   3.494 -2.0029  0.4449  0.8724
   45MOL    C9810746   4.027   1.430   3.557 -0.4920  0.9269  0.3596
   45MOL    C9910747   3.880   1.463   3.565 -0.3876 -0.4501 -0.4915
   45MOL   C10010748   3.852   1.592   3.643 -0.8863 -0.8135 -0.5309
   45MOL   O10110749   3.943   1.681   3.647 -0.2469  0.4194  0.3464
   45MOL   O10210750   3.728   1.598   3.696 -0.2646  0.2812  0.1531
   45MOL   C10310751   3.708   1.706   3.789  0.2823  0.3139 -0.4461
   45MOL   H10410752   4.076   1.509   3.502  1.9536 -1.1770 -0.5927
   45MOL   H10510753   4.047   1.354   3.482 -0.3535  1.0810  0.2412
   45MOL   H10610754   3.842   1.385   3.630 -0.0318  0.7555  1.1859
   45MOL   H10710755   3.793   1.751   3.840  0.9340 -0.7917 -0.5559
   45MOL   H10810756   3.650   1.665   3.872 -0.5423 -0.6532 -1.4845
   45MOL   H10910757   3.654   1.790   3.743  0.7222 -0.5898 -2.6783
   45MOL   C11010758   3.805   1.463   3.433 -0.5025  0.6453  0.7379
   45MOL   C11110759   3.788   1.324   3.375  0.0931  0.0110  0.5476
   45MOL   C11210760   3.699   1.243   3.464  0.2346 -0.7988 -0.3326
   45MOL   O11310761   3.596   1.299   3.518  0.3540  0.1622 -0.9467
   45MOL   O11410762   3.732   1.117   3.472  0.2086 -0.1471  0.3825
   45MOL   C11510763   3.642   1.033   3.540  0.2681 -0.0275 -0.0980
   45MOL   H11610764   3.706   1.509   3.440 -0.4256  0.6393  1.8852
   45MOL   H11710765   3.865   1.523   3.365  1.6502 -1.0667  1.0885
   45MOL   H11810766   3.890   1.286   3.377 -0.1759 -0.6291  3.2934
   45MOL   H11910767   3.692   0.937   3.537  2.8397  1.2627  0.1322
   45MOL   H12010768   3.540   1.030   3.500  1.2818 -0.1906 -2.7696
   45MOL   H12110769   3.647   1.052   3.647 -0.0816  0.7166 -0.2083
   45MOL   C12210770   3.739   1.329   3.225 -0.3647 -0.7301 -0.2871
   45MOL   C12310771   3.842   1.382   3.126 -0.2721 -0.3497  0.2085
   45MOL   C12410772   3.922   1.271   3.060  0.3945  0.3347 -0.4159
   45MOL   O12510773   3.866   1.170   3.023 -0.5260 -0.3101  0.0344
   45MOL   O12610774   4.058   1.311   3.047 -0.1163 -0.4534  0.1657
   45MOL   C12710775   4.129   1.225   2.958 -0.2450 -0.4422  0.4530
   45MOL   H12810776   3.701   1.231   3.198  2.8810 -2.2515  0.4583
   45MOL   H12910777   3.647   1.388   3.229 -0.6291 -0.9098 -3.0206
   45MOL   H13010778   3.924   1.424   3.184  0.3667 -0.5064 -0.5747
   45MOL   H13110779   4.235   1.251   2.960 -0.2197 -0.6341  3.5289
   45MOL   H13210780   4.106   1.236   2.852  1.9091  1.7168  0.1652
   45MOL   H13310781   4.116   1.124   2.995  0.3202  0.3667  2.9473
   45MOL   C13410782   3.794   1.475   3.012  0.3158 -0.4072 -0.1605
   45MOL   C13510783   3.726   1.607   3.055  0.6755  0.6322  0.8227
   45MOL   C13610784   3.821   1.689   3.150  0.2884  0.1254  0.2120
   45MOL   O13710785   3.946   1.687   3.146 -0.2466  0.0227 -0.2257
   45MOL   O13810786   3.740   1.748   3.250  0.4049  0.2177 -1.0606
   45MOL   C13910787   3.798   1.827   3.354  0.1187 -0.2375 -0.8956
   45MOL   H14010788   3.881   1.491   2.948 -0.3899 -3.1017 -1.8777
   45MOL   H14110789   3.712   1.429   2.955  0.6291 -0.1937 -0.7921
   45MOL   H14210790   3.630   1.589   3.104 -0.5300 -1.1347 -2.0812
   45MOL   H14310791   3.743   1.832   3.448 -2.5889  0.4287 -2.4835
   45MOL   H14410792   3.816   1.926   3.314  3.4855 -0.5443 -0.2929
   45MOL   H14510793   3.891   1.778   3.384 -0.1577  0.6885  1.5855
   45MOL   C14610794   3.686   1.698   2.932  0.5262 -0.3331 -0.3766
   45MOL   C14710795   3.575   1.802   2.966  0.8222 -0.0394 -0.3790
   45MOL   C14810796   3.634   1.936   3.007  0.2531 -0.0082  0.2392
   45MOL   O14910797   3.620   1.979   3.123 -0.0509 -0.3128  0.3570
   45MOL   O15010798   3.710   1.997   2.915 -0.4198  0.5059  0.4701
   45MOL   C15110799   3.755   2.130   2.937 -0.1230 -0.0004  0.2496
   45MOL   H15210800   3.772   1.752   2.892 -0.9282  2.4961  0.1659
   45MOL   H15310801   3.658   1.626   2.856 -1.0500 -0.2274  0.0807
   45MOL   H15410802   3.510   1.771   3.048  2.1344 -0.1746  0.6117
   45MOL   H15510803   3.693   2.186   3.006 -0.3728 -0.8162  0.6897
   45MOL   H15610804   3.757   2.173   2.836 -3.1161 -2.7491 -1.0739
   45MOL   H15710805   3.852   2.128   2.987  0.3532 -1.3188 -0.7043
   45MOL   C15810806   3.469   1.801   2.862 -0.2679 -0.0128 -0.2730
   45MOL   C15910807   3.323   1.838   2.904 -0.5959 -1.1706  0.0782
   45MOL   C16010808   3.274   1.980   2.898  0.0892 -0.1056 -0.1970
   45MOL   O16110809   3.269   2.051   2.992  0.1738  0.1710  0.1311
   45MOL   O16210810   3.236   2.012   2.772 -0.4849 -0.4780  0.0003
   45MOL   C16310811   3.161   2.131   2.744  0.3159 -0.2005  0.1685
   45MOL   H16410812   3.497   1.877   2.789  1.7969 -0.8806 -0.4244
   45MOL   H16510813   3.469   1.708   2.806 -1.0762 -0.5099  0.5468
   45MOL   H16610814   3.300   1.815   3.008 -1.9245 -1.3304 -0.2410
   45MOL   H16710815   3.128   2.117   2.641 -1.7409 -0.7618  0.8760
   45MOL   H16810816   3.223   2.221   2.740 -0.5285  0.4033  0.5637
   45MOL   H16910817   3.078   2.155   2.810 -0.7815  2.0570 -1.9678
   45MOL   C17010818   3.220   1.745   2.840 -0.5400  0.1853  0.6276
   45MOL   C17110819   3.080   1.726   2.914 -0.0929 -0.6211  0.7019
   45MOL   C17210820   2.960   1.706   2.819  0.5037 -0.1539  0.3242
   45MOL   O17310821   2.906   1.597   2.798  0.5301 -0.0480  0.3389
   45MOL   O17410822   2.926   1.829   2.762 -0.2923 -0.3999  0.3922
   45MOL   C17510823   2.832   1.832   2.660 -0.6117  0.3727 -0.5272
   45MOL   H17610824   3.212   1.781   2.737  0.7652 -1.4939 -0.0953
   45MOL   H17710825   3.263   1.646   2.826 -0.7566  0.1336  0.3003
   45MOL   H17810826   3.058   1.812   2.977 -2.1047 -0.3450 -0.3469
   45MOL   H17910827   2.729   1.834   2.696 -0.9650 -0.0888 -1.5139
   45MOL   H18010828   2.843   1.746   2.595 -0.2254  2.2615 -3.0013
   45MOL   H18110829   2.856   1.919   2.600  1.0778  0.5082  0.3066
   45MOL   C18210830   3.096   1.598   2.999  0.3736 -0.1462 -0.2997
   45MOL   C18310831   3.001   1.586   3.120 -0.3938 -1.1914  0.4074
   45MOL   C18410832   2.998   1.447   3.178  0.0519 -0.3362 -0.0838
   45MOL   O18510833   3.076   1.404   3.265 -0.1622 -0.3041 -0.2808
   45MOL   O18610834   2.891   1.378   3.126 -0.3444 -0.3276  0.0504
   45MOL   C18710835   2.873   1.246   3.168 -0.1476  0.7135  0.4812
   45MOL   H18810836   3.097   1.507   2.938  0.8425  0.7990 -1.7488
   45MOL   H18910837   3.198   1.590   3.037  1.5704  1.9207 -2.8592
   45MOL   H19010838   2.906   1.602   3.070 -1.7207 -0.9834  2.9060
   45MOL   H19110839   2.874   1.253   3.277  2.3231  1.4302  0.4471
   45MOL   H19210840   2.952   1.182   3.127 -0.3436 -0.3296  1.6756
   45MOL   H19310841   2.772   1.208   3.151 -0.2745  0.9843  0.6378
   45MOL   C19410842   3.031   1.696   3.236 -0.0039  0.1988 -0.4636
   45MOL   C19510843   2.911   1.780   3.270  0.5324 -0.1350  0.3419
   45MOL   C19610844   2.887   1.882   3.166 -0.5293  0.4952  0.4070
   45MOL   O19710845   2.798   1.872   3.080 -0.0888 -0.0110  0.6793
   45MOL   O19810846   2.977   1.974   3.161 -0.5642  0.3317 -0.5494
   45MOL   C19910847   2.974   2.088   3.074 -0.6313 -0.4524  0.0942
   45MOL   H20010848   3.048   1.645   3.331  1.0579 -0.2879 -0.9142
   45MOL   H20110849   3.122   1.753   3.226  0.4343 -0.5360 -0.7328
   45MOL   H20210850   2.932   1.845   3.356  1.4270 -0.8779  0.6927
   45MOL   H20310851   3.072   2.133   3.089 -1.4851  0.9185  1.8027
   45MOL   H20410852   2.891   2.157   3.090 -0.7018 -0.5056 -0.0389
   45MOL   H20510853   2.959   2.051   2.973  0.0534  1.6013 -0.7785
   45MOL   C20610854   2.784   1.688   3.305  0.2713 -0.2994 -0.1399
   45MOL   C20710855   2.654   1.766   3.344 -0.0943  0.3546 -0.1189
   45MOL   C20810856   2.534   1.693   3.278  0.1951  0.5540  0.3527
   45MOL   O20910857   2.462   1.757   3.199 -0.1236  0.5003 -0.9087
   45MOL   O21010858   2.516   1.565   3.318 -1.3195 -1.1576 -0.4821
   45MOL   C21110859   2.399   1.497   3.286  0.0413  0.2296  0.6813
   45MOL   H21210860   2.765   1.616   3.225  0.7058 -0.3963 -0.1567
   45MOL   H21310861   2.810   1.616   3.383  0.1120 -1.0814 -0.8017
   45MOL   H21410862   2.651   1.867   3.304 -1.3999 -0.4045 -2.0281
   45MOL   H21510863   2.380   1.402   3.334 -1.2229  0.1203 -0.0140
   45MOL   H21610864   2.400   1.479   3.178  0.6933 -0.7950  0.8488
   45MOL   H21710865   2.308   1.555   3.301 -0.0168  0.3480 -0.0987
   45MOL   C21810866   2.633   1.784   3.500 -0.7035  0.3540 -0.1550
   45MOL   C21910867   2.751   1.840   3.587 -0.0685  0.2665  0.1098
   45MOL   C22010868   2.786   1.977   3.542 -0.1097  0.3373 -0.3899
   45MOL   O22110869   2.730   2.042   3.452 -0.7393  0.3502 -0.0040
   45MOL   O22210870   2.882   2.032   3.614 -0.0354 -0.3147  0.1236
   45MOL   C22310871   2.911   2.174   3.592 -0.0039 -0.2128 -0.2975
   45MOL   H22410872   2.541   1.840   3.518 -0.7888  0.5176 -1.0552
   45MOL   H22510873   2.624   1.681   3.536  0.3240  0.5925  0.7964
   45MOL   H22610874   2.838   1.778   3.564 -0.5569 -0.4014  0.0481
   45MOL   H22710875   2.966   2.201   3.683 -0.3044  0.0132 -0.1810
   45MOL   H22810876   2.819   2.232   3.584  1.3188  2.3321  1.9255
   45MOL   H22910877   2.974   2.191   3.505  3.3664 -0.5912  1.9775
   45MOL   C23010878   2.720   1.849   3.739  0.1841  0.2897  0.3484
   45MOL   C23110879   2.714   1.711   3.808  0.4559 -0.3601  0.4591
   45MOL   C23210880   2.694   1.722   3.963 -1.2120  0.0916  0.2141
   45MOL   O23310881   2.786   1.683   4.037 -0.8555 -0.4882  0.1770
   45MOL   O23410882   2.568   1.758   3.999  0.0682 -0.3986 -0.0238
   45MOL   C23510883   2.536   1.767   4.140 -0.0471 -0.4775 -0.5448
   45MOL   H23610884   2.788   1.908   3.800 -0.1364  2.1092 -0.9999
   45MOL   H23710885   2.621   1.894   3.734  0.2307  0.1891 -2.0537
   45MOL   H23810886   2.816   1.675   3.796  0.0806 -1.2632 -0.0801
   45MOL   H23910887   2.476   1.683   4.175 -0.7249  0.5394  0.8018
   45MOL   H24010888   2.483   1.862   4.146  0.9405 -0.0757  3.6109
   45MOL   H24110889   2.623   1.783   4.204  0.6276 -0.7707 -1.3712
   45MOL   H24210890   2.647   1.648   3.749  2.3783 -1.3151 -0.7679
   46MOL     C110891   2.747   7.810   3.966  0.1266 -0.1197 -0.2304
   46MOL     C210892   2.884   7.818   3.902 -0.5267 -0.3630 -0.1167
   46MOL     C310893   2.960   7.694   3.952  0.7025 -0.4409 -0.3864
   46MOL     O410894   2.947   7.575   3.913  0.7638  0.1122 -0.1152
   46MOL     O510895   3.043   7.723   4.053  0.4208 -0.4471 -0.0539
   46MOL     C610896   3.083   7.612   4.137  0.6496  0.5905 -0.3578
   46MOL     H710897   2.762   7.775   4.068  0.2872 -1.7915 -0.8112
   46MOL     H810898   2.681   7.737   3.919 -0.8252 -0.4746  1.6189
   46MOL     H910899   2.943   7.901   3.942 -1.5689  0.8193 -0.9919
   46MOL    H1010900   3.125   7.651   4.230 -0.0011  2.0901 -0.6774
   46MOL    H1110901   3.153   7.545   4.088  1.7371  1.1323  0.4401
   46MOL    H1210902   2.995   7.555   4.167  1.5283 -1.5127 -1.6575
   46MOL    H1310903   2.700   7.908   3.977 -1.0106 -0.5000 -1.5488
   46MOL    C1410904   2.881   7.810   3.751  0.4131  0.5869  0.4611
   46MOL    C1510905   2.871   0.010   3.671 -0.0646  0.3277 -0.1148
   46MOL    C1610906   2.979   0.104   3.713 -0.4012  0.0180 -0.6664
   46MOL    O1710907   2.944   0.215   3.762  0.0109 -0.2482  0.3921
   46MOL    O1810908   3.098   0.053   3.685 -0.2100  0.3037 -0.1100
   46MOL    C1910909   3.215   0.140   3.673  0.2921  0.1427 -0.2386
   46MOL    H2010910   2.963   7.743   3.724 -0.6606 -0.9217  0.8848
   46MOL    H2110911   2.802   7.741   3.723 -0.4817  0.9544  2.0204
   46MOL    H2210912   2.780   0.063   3.699 -0.5951 -0.3751 -0.4903
   46MOL    H2310913   3.194   0.239   3.632  0.7517  0.5606  0.5246
   46MOL    H2410914   3.288   0.094   3.607  1.4543 -1.5902  2.1688
   46MOL    H2510915   3.267   0.166   3.765 -0.4600 -0.1765  0.2814
   46MOL    C2610916   2.878   7.927   3.515  0.3318 -0.1541  0.3758
   46MOL    C2710917   2.804   7.808   3.459  0.4769 -0.6489  0.3476
   46MOL    C2810918   2.655   7.790   3.506  0.5012 -0.5560 -0.1544
   46MOL    O2910919   2.623   7.674   3.530  0.1745  0.0624  0.0071
   46MOL    O3010920   2.584   7.895   3.514 -0.2888  0.0091 -0.1581
   46MOL    C3110921   2.444   7.894   3.533  0.2901 -1.1868 -0.1681
   46MOL    H3210922   2.848   0.081   3.457 -0.0674 -0.1339  0.6090
   46MOL    H3310923   2.981   7.926   3.478  0.3628  1.6671  0.3991
   46MOL    H3410924   2.860   7.720   3.492  1.1668 -0.0245  0.8501
   46MOL    H3510925   2.421   0.064   3.563  0.9724 -1.0772 -0.0230
   46MOL    H3610926   2.418   7.822   3.611  1.8520  0.6463  2.1329
   46MOL    H3710927   2.394   7.868   3.440 -2.4596  1.6893  0.3981
   46MOL    C3810928   2.820   7.813   3.300 -0.7154 -0.3568  0.2117
   46MOL    C3910929   2.803   7.684   3.217 -0.0898  0.2352 -1.2022
   46MOL    C4010930   2.799   7.692   3.063 -0.6183 -0.5954  0.1938
   46MOL    O4110931   2.692   7.685   2.995  0.3254 -0.7396 -0.1987
   46MOL    O4210932   2.925   7.699   3.008  0.6503 -0.0090  0.4738
   46MOL    C4310933   2.930   7.707   2.869 -0.2397 -0.0556 -0.5140
   46MOL    H4410934   2.756   7.892   3.261 -0.7528  0.7275  2.4198
   46MOL    H4510935   2.924   7.842   3.282 -1.3557  2.4469  0.7655
   46MOL    H4610936   2.708   7.641   3.248 -0.2405  2.3753  1.5655
   46MOL    H4710937   3.033   7.730   2.843 -0.3164 -0.1493 -0.9072
   46MOL    H4810938   2.862   7.780   2.823 -0.2449  0.0702 -0.3072
   46MOL    H4910939   2.908   7.609   2.828  0.2040 -0.7399  0.8844
   46MOL    C5010940   2.905   7.579   3.260  0.5696 -0.2613  0.2302
   46MOL    C5110941   2.875   7.431   3.209 -0.3985  0.1026  0.1192
   46MOL    C5210942   3.002   7.346   3.227 -1.1227  0.4683  0.5222
   46MOL    O5310943   3.053   7.296   3.126  0.2434 -0.2132 -0.1935
   46MOL    O5410944   3.043   7.326   3.365  0.2183 -0.3418  0.1172
   46MOL    C5510945   3.177   7.273   3.371 -0.0001 -0.3187  0.5311
   46MOL    H5610946   3.002   7.611   3.223  0.1776  1.0648  0.3260
   46MOL    H5710947   2.928   7.577   3.366  1.2052  0.6527  0.1140
   46MOL    H5810948   2.853   7.420   3.103 -0.5297 -0.9373  0.2529
   46MOL    H5910949   3.206   7.248   3.474 -1.9549  1.5728  1.5861
   46MOL    H6010950   3.249   7.339   3.322 -0.5014  1.0687  1.6327
   46MOL    H6110951   3.179   7.183   3.310 -1.2438 -0.4766  0.7168
   46MOL    C6210952   2.760   7.366   3.297 -0.0865 -0.3440  0.8172
   46MOL    C6310953   2.614   7.368   3.239  0.2914 -0.5028 -0.3548
   46MOL    C6410954   2.585   7.256   3.132  0.2689  0.6584 -0.4856
   46MOL    O6510955   2.672   7.179   3.096 -0.1152 -0.0420  0.1628
   46MOL    O6610956   2.458   7.267   3.079  0.4268 -0.4522 -0.2845
   46MOL    C6710957   2.428   7.179   2.979  0.2067 -0.2695 -0.2570
   46MOL    H6810958   2.774   7.259   3.311 -0.9051 -0.9162 -2.2833
   46MOL    H6910959   2.760   7.418   3.393 -0.4456  0.7906  0.2143
   46MOL    H7010960   2.591   7.460   3.185  1.9932 -0.0733 -0.3744
   46MOL    H7110961   2.321   7.156   2.985  0.3213 -1.0658 -1.1519
   46MOL    H7210962   2.491   7.091   2.979  2.4112  1.2763  0.0702
   46MOL    H7310963   2.439   7.235   2.886 -1.7288 -1.0892 -0.9991
   46MOL    C7410964   2.505   7.367   3.355 -0.1256  0.8968 -0.1950
   46MOL    C7510965   2.503   7.236   3.437 -0.3001 -0.1902 -0.8803
   46MOL    C7610966   2.608   7.235   3.552 -0.3121 -0.2704  0.1947
   46MOL    O7710967   2.669   7.130   3.584  0.3456 -0.5956 -0.3507
   46MOL    O7810968   2.619   7.362   3.607  0.2527 -0.4987 -0.2078
   46MOL    C7910969   2.708   7.377   3.716 -0.1046 -0.4466 -0.3296
   46MOL    H8010970   2.502   7.455   3.420 -2.5019  1.4788 -1.0447
   46MOL    H8110971   2.404   7.375   3.315  0.0832  2.1354 -0.5127
   46MOL    H8210972   2.527   7.159   3.364  1.5793 -0.7922  0.3388
   46MOL    H8310973   2.667   7.438   3.796 -0.8470  0.8088 -1.6487
   46MOL    H8410974   2.801   7.431   3.698  1.4748 -2.3297  1.8253
   46MOL    H8510975   2.738   7.280   3.756  0.2460  0.0939  0.7353
   46MOL    C8610976   2.365   7.196   3.477  0.2164  0.1475 -0.0813
   46MOL    C8710977   2.287   7.276   3.592 -0.3953  0.9413  0.2106
   46MOL    C8810978   2.222   7.403   3.551  0.6241  0.4999  0.1527
   46MOL    O8910979   2.288   7.510   3.538 -0.0146  0.7265 -0.0187
   46MOL    O9010980   2.093   7.389   3.515  0.0078 -0.1334  0.2690
   46MOL    C9110981   2.010   7.511   3.508  0.0875  0.3702  0.4874
   46MOL    H9210982   2.306   7.181   3.386 -1.7289 -1.4765  1.3838
   46MOL    H9310983   2.358   7.090   3.501 -0.8900  0.3686  0.6122
   46MOL    H9410984   2.362   7.314   3.661  0.7768  1.5047 -1.3283
   46MOL    H9510985   1.930   7.513   3.582  0.5808 -1.8889  1.1187
   46MOL    H9610986   1.969   7.510   3.407 -0.6286 -3.3118  0.7591
   46MOL    H9710987   2.059   7.604   3.538 -0.4415 -0.1922  3.2821
   46MOL    C9810988   2.182   7.189   3.664  0.0446 -0.3010  0.3799
   46MOL    C9910989   2.116   7.251   3.789  0.5987 -0.1986 -0.3792
   46MOL   C10010990   1.964   7.269   3.779 -0.1449  0.1666  0.0370
   46MOL   O10110991   1.911   7.379   3.761 -0.4502 -0.1515 -0.5214
   46MOL   O10210992   1.892   7.156   3.781 -0.1290  0.5326 -0.0305
   46MOL   C10310993   1.752   7.174   3.756 -0.4365  0.5585  0.3865
   46MOL   H10410994   2.107   7.154   3.594  1.6384 -1.9427 -0.5301
   46MOL   H10510995   2.221   7.091   3.691 -0.0682 -0.5945 -0.5004
   46MOL   H10610996   2.158   7.352   3.793  0.4212 -0.1160 -0.5774
   46MOL   H10710997   1.700   7.085   3.792 -0.1432  0.0767 -0.3723
   46MOL   H10810998   1.720   7.189   3.653  0.4082  0.8559  0.1652
   46MOL   H10910999   1.707   7.260   3.805  0.5730  0.0413  2.2842
   46MOL   C11011000   2.155   7.178   3.914 -0.3518 -0.3071  0.0625
   46MOL   C11111001   2.309   7.173   3.942  0.0154 -0.1518 -0.0197
   46MOL   C11211002   2.351   7.312   3.991 -0.2711 -0.5481  0.5115
   46MOL   O11311003   2.330   7.342   4.109 -0.6034 -0.3277  0.2346
   46MOL   O11411004   2.409   7.388   3.900  0.0743  0.5181  0.1284
   46MOL   C11511005   2.458   7.515   3.942 -0.2531  0.1748  0.3067
   46MOL   H11611006   2.100   7.219   3.999  1.4037 -1.2930  1.7150
   46MOL   H11711007   2.115   7.076   3.907 -1.1558 -0.0171  0.3276
   46MOL   H11811008   2.356   7.158   3.845 -1.2634  2.7709 -1.1641
   46MOL   H11911009   2.367   7.562   3.980 -0.4236  0.2416 -0.1907
   46MOL   H12011010   2.486   7.585   3.864  1.0790 -1.4434 -0.7159
   46MOL   H12111011   2.523   7.512   4.030 -0.8151  0.3414  0.7361
   46MOL   C12211012   2.359   7.068   4.050  0.1760 -0.3543  0.3656
   46MOL   C12311013   2.316   6.926   4.035  0.0083  0.6741 -0.5088
   46MOL   C12411014   2.329   6.875   3.891  0.4108  0.5503  0.6228
   46MOL   O12511015   2.223   6.842   3.838  0.2788 -0.4154 -0.0777
   46MOL   O12611016   2.444   6.878   3.830  0.1754 -0.4224  0.2143
   46MOL   C12711017   2.459   6.849   3.696 -0.1002 -0.3109  0.1311
   46MOL   H12811018   2.467   7.078   4.063  0.4490 -2.5141 -0.0760
   46MOL   H12911019   2.319   7.100   4.147 -2.0508 -0.1758 -0.5877
   46MOL   H13011020   2.212   6.933   4.069  0.3662 -0.4566  0.8479
   46MOL   H13111021   2.445   6.744   3.668 -0.3807 -0.5303  1.0832
   46MOL   H13211022   2.556   6.888   3.665 -1.3737  1.1530 -2.1457
   46MOL   H13311023   2.390   6.901   3.629 -0.0326  2.9442  2.5143
   46MOL   C13411024   2.388   6.828   4.135 -0.4314  0.3671 -0.1982
   46MOL   C13511025   2.371   6.674   4.128  0.2602 -0.4469  0.0641
   46MOL   C13611026   2.462   6.610   4.227 -0.1410 -0.2785 -0.0194
   46MOL   O13711027   2.533   6.517   4.196  0.0709 -0.1322  0.0803
   46MOL   O13811028   2.454   6.651   4.358  0.1992 -0.2990  0.2958
   46MOL   C13911029   2.519   6.582   4.458 -0.1984 -0.2532 -0.0190
   46MOL   H14011030   2.495   6.850   4.126 -0.3955  1.0213  1.5233
   46MOL   H14111031   2.358   6.860   4.235 -0.9512 -1.8142  0.3811
   46MOL   H14211032   2.398   6.639   4.029 -0.4368 -0.8001 -0.0043
   46MOL   H14311033   2.470   6.595   4.554  0.5058 -1.8410  0.5801
   46MOL   H14411034   2.623   6.613   4.471 -0.8945  1.7900  0.8971
   46MOL   H14511035   2.521   6.477   4.431  0.9501  0.3708 -2.4882
   46MOL   C14611036   2.227   6.635   4.153 -0.5134 -0.0764  0.1511
   46MOL   C14711037   2.198   6.497   4.088 -0.2802  0.4037 -1.0239
   46MOL   C14811038   2.069   6.442   4.155  0.7987  0.3057  1.2568
   46MOL   O14911039   2.078   6.352   4.235  0.0770  0.9087  0.4114
   46MOL   O15011040   1.952   6.504   4.120 -0.1671  0.1233  0.0520
   46MOL   C15111041   1.831   6.465   4.175  0.5141  0.5323 -0.5817
   46MOL   H15211042   2.221   6.618   4.260 -3.2826  1.8165  0.3458
   46MOL   H15311043   2.151   6.706   4.119 -2.2567 -1.0028  1.9964
   46MOL   H15411044   2.276   6.422   4.102 -0.9784 -0.9668 -4.0834
   46MOL   H15511045   1.802   6.503   4.273 -0.2038 -0.6548 -0.3206
   46MOL   H15611046   1.821   6.358   4.159 -3.9442  0.7715  0.0171
   46MOL   H15711047   1.747   6.502   4.115 -0.3256  1.4252  1.1118
   46MOL   C15811048   2.173   6.519   3.941  0.1922 -0.5783  0.1281
   46MOL   C15911049   2.146   6.384   3.862 -0.1179 -0.4947 -0.4849
   46MOL   C16011050   1.999   6.362   3.839 -0.4806  0.2939 -0.0736
   46MOL   O16111051   1.933   6.278   3.904  0.0398  0.3873  0.0719
   46MOL   O16211052   1.943   6.450   3.750 -0.4433  0.3546 -0.7092
   46MOL   C16311053   1.807   6.434   3.717 -0.4176 -0.2395  0.3095
   46MOL   H16411054   2.102   6.598   3.916  1.1616 -0.1625 -1.3782
   46MOL   H16511055   2.267   6.562   3.908 -0.3204  1.7658  1.6120
   46MOL   H16611056   2.180   6.291   3.909  0.4340 -0.1276 -0.1415
   46MOL   H16711057   1.798   6.473   3.615 -1.8832 -1.4012 -0.0387
   46MOL   H16811058   1.744   6.485   3.790 -0.9589  2.1283 -1.7300
   46MOL   H16911059   1.780   6.330   3.735  1.4687 -0.5041  1.7481
   46MOL   C17011060   2.230   6.385   3.729  0.9762  0.1376 -0.8696
   46MOL   C17111061   2.206   6.267   3.629  0.5284  0.5645  0.7187
   46MOL   C17211062   2.260   6.296   3.490  0.5360 -0.5307 -0.6209
   46MOL   O17311063   2.205   6.354   3.402  0.0394  0.1095  0.6855
   46MOL   O17411064   2.389   6.260   3.483  0.8908 -0.0551  0.4764
   46MOL   C17511065   2.461   6.263   3.358  0.1145  0.4101 -0.2797
   46MOL   H17611066   2.205   6.478   3.677 -0.5918  0.4647  0.4396
   46MOL   H17711067   2.337   6.386   3.750  0.7689  0.5848  0.2119
   46MOL   H17811068   2.099   6.266   3.610  0.4771 -0.0443  1.0454
   46MOL   H17911069   2.446   6.363   3.319  1.5108  0.5495 -0.4858
   46MOL   H18011070   2.414   6.190   3.292 -0.4756  0.8729 -0.3657
   46MOL   H18111071   2.566   6.234   3.369  0.0380 -0.5064 -1.8091
   46MOL   C18211072   2.241   6.123   3.683 -0.4342  0.3409 -0.6106
   46MOL   C18311073   2.136   6.017   3.622 -0.3747  0.3962  0.2635
   46MOL   C18411074   2.163   5.976   3.479 -0.1980  0.3776 -0.3283
   46MOL   O18511075   2.073   5.988   3.397  0.1428  0.6031 -0.2648
   46MOL   O18611076   2.282   5.929   3.453 -0.3370 -0.0307  0.2842
   46MOL   C18711077   2.307   5.899   3.314 -0.1669  0.1148 -0.3174
   46MOL   H18811078   2.340   6.084   3.662 -0.0473  0.2485  1.3140
   46MOL   H18911079   2.237   6.123   3.792  2.4136 -0.5256 -0.4803
   46MOL   H19011080   2.037   6.064   3.623 -1.6450 -2.1811  1.1546
   46MOL   H19111081   2.250   5.815   3.273  0.2268  0.5355 -1.7351
   46MOL   H19211082   2.410   5.867   3.297 -1.1872 -2.9271 -1.2072
   46MOL   H19311083   2.292   5.990   3.257  1.6695  1.3616  1.1483
   46MOL   C19411084   2.114   5.889   3.709  0.2299  0.5890  0.6162
   46MOL   C19511085   1.972   5.825   3.687 -0.0179 -0.0295 -0.0708
   46MOL   C19611086   1.979   5.673   3.714  0.9226 -0.4377  0.6122
   46MOL   O19711087   1.950   5.584   3.641 -0.2149  0.1688 -0.0959
   46MOL   O19811088   2.040   5.652   3.832 -0.3626  0.2625 -0.6538
   46MOL   C19911089   2.069   5.525   3.891 -0.0852 -0.3236  0.0076
   46MOL   H20011090   2.201   5.830   3.681  0.4541  0.9711  0.5067
   46MOL   H20111091   2.132   5.914   3.814 -0.2656 -0.3039  0.9156
   46MOL   H20211092   1.925   5.842   3.590  0.5602  0.8724 -0.1978
   46MOL   H20311093   2.017   5.439   3.848 -0.4629  0.0106 -0.2037
   46MOL   H20411094   2.033   5.526   3.994 -0.5402  0.3262 -0.1536
   46MOL   H20511095   2.177   5.519   3.883 -0.0241  1.9146 -1.2515
   46MOL   C20611096   1.863   5.894   3.778  1.0654  0.3245  0.1693
   46MOL   C20711097   1.715   5.903   3.728 -0.1614  0.6082 -0.8331
   46MOL   C20811098   1.699   6.013   3.617 -0.1997 -0.2817 -0.2545
   46MOL   O20911099   1.599   6.087   3.623 -0.1729 -0.3070  0.1052
   46MOL   O21011100   1.795   6.021   3.520  0.1218  0.6040 -0.1546
   46MOL   C21111101   1.781   6.112   3.420  0.1557 -0.5333 -0.3670
   46MOL   H21211102   1.858   5.846   3.876 -2.7961 -0.5599 -0.3789
   46MOL   H21311103   1.895   5.994   3.809 -2.3828  0.8474  2.4155
   46MOL   H21411104   1.657   5.943   3.812 -0.7652 -1.4677 -0.2127
   46MOL   H21511105   1.748   6.207   3.462 -0.9533 -0.0276 -2.3120
   46MOL   H21611106   1.694   6.097   3.356  0.0825 -3.0791  0.2830
   46MOL   H21711107   1.872   6.139   3.366 -0.6243  1.5866 -0.6507
   46MOL   C21811108   1.651   5.772   3.675  0.6364  0.5773  0.0171
   46MOL   C21911109   1.636   5.671   3.786  0.4328 -0.0665  0.1611
   46MOL   C22011110   1.516   5.712   3.871  0.8445  1.2158 -0.2703
   46MOL   O22111111   1.525   5.717   3.993 -0.3296 -0.1293  0.0845
   46MOL   O22211112   1.398   5.719   3.810  0.3665 -0.2584 -0.3315
   46MOL   C22311113   1.284   5.768   3.882 -0.4268  0.2819 -0.2213
   46MOL   H22411114   1.559   5.780   3.617 -0.1818 -0.7472  1.1174
   46MOL   H22511115   1.726   5.741   3.602 -1.8110 -1.0724 -1.8894
   46MOL   H22611116   1.727   5.679   3.845  0.8788  1.5517 -0.7246
   46MOL   H22711117   1.278   5.872   3.913 -2.2570  0.5283 -1.3076
   46MOL   H22811118   1.269   5.699   3.965 -0.7899 -0.3464 -0.8073
   46MOL   H22911119   1.209   5.745   3.806  1.6890  2.1923 -3.0331
   46MOL   C23011120   1.627   5.521   3.743  0.4365 -0.1832 -0.5025
   46MOL   C23111121   1.708   5.435   3.841 -0.0693  0.3563  0.0367
   46MOL   C23211122   1.702   5.289   3.815  0.0441 -0.8941  0.1997
   46MOL   O23311123   1.805   5.233   3.793  0.1544 -0.0609 -0.4488
   46MOL   O23411124   1.576   5.237   3.826 -0.1034 -0.3807 -0.0309
   46MOL   C23511125   1.564   5.095   3.833  0.7718  0.9500  0.2042
   46MOL   H23611126   1.523   5.492   3.732  0.7215 -0.8085 -1.6587
   46MOL   H23711127   1.681   5.518   3.648 -0.6677 -2.4286 -1.0849
   46MOL   H23811128   1.660   5.444   3.939 -2.7183  2.6854 -1.3858
   46MOL   H23911129   1.578   5.075   3.939 -1.1878 -0.8731  0.1481
   46MOL   H24011130   1.641   5.044   3.774  0.1819  1.5894 -1.1361
   46MOL   H24111131   1.464   5.068   3.799  0.2918  0.2274  2.1239
   46MOL   H24211132   1.812   5.467   3.840 -0.1025  0.5270  1.3261
   47MOL     C111133   0.281   1.054   7.045  0.5600 -0.8834 -0.2410
   47MOL     C211134   0.238   1.077   6.900  0.6761  0.3792 -0.5954
   47MOL     C311135   0.365   1.055   6.806  1.2043 -0.0386 -0.6244
   47MOL     O411136   0.437   1.150   6.773  0.5342  0.1446 -0.0918
   47MOL     O511137   0.378   0.931   6.768  0.4401  0.0194  1.2306
   47MOL     C611138   0.496   0.892   6.698 -0.5418  0.7001 -0.6132
   47MOL     H711139   0.193   1.041   7.108  0.0444  0.0845 -0.7608
   47MOL     H811140   0.334   1.141   7.084  1.2220 -0.7727 -1.3672
   47MOL     H911141   0.204   1.180   6.889  0.4236  0.2644 -0.9143
   47MOL    H1011142   0.586   0.905   6.759  0.3305  0.0962 -1.7577
   47MOL    H1111143   0.514   0.964   6.619  4.5478 -0.2109 -0.4328
   47MOL    H1211144   0.482   0.789   6.667 -0.2200  1.4649 -3.4044
   47MOL    H1311145   0.342   0.967   7.071 -0.5439 -0.6324  3.5488
   47MOL    C1411146   0.110   1.000   6.860 -0.2880  0.2663  0.7172
   47MOL    C1511147   0.073   1.018   6.707  0.5603  0.0560 -0.5676
   47MOL    C1611148   0.013   0.879   6.666  0.3533  0.4866  0.0125
   47MOL    O1711149   0.053   0.820   6.562  0.2454  0.8421  0.0685
   47MOL    O1811150   7.846   0.844   6.749 -0.4466 -0.6347 -0.4777
   47MOL    C1911151   7.755   0.748   6.710 -1.1631 -0.4116  0.0555
   47MOL    H2011152   0.138   0.896   6.882  0.9822  0.3953 -0.2454
   47MOL    H2111153   0.040   1.040   6.934  1.3007  0.1638  2.3233
   47MOL    H2211154   0.163   1.038   6.648  1.9002  0.9847  1.7033
   47MOL    H2311155   7.801   0.650   6.720 -1.2790 -0.7867 -2.6994
   47MOL    H2411156   7.719   0.749   6.607 -0.6968  1.0519 -0.0979
   47MOL    H2511157   7.665   0.746   6.771 -0.6638  1.2243  0.8756
   47MOL    C2611158   7.909   1.138   6.693  0.3038  0.4143 -0.3498
   47MOL    C2711159   7.894   1.185   6.549  0.8446  0.0817  0.0946
   47MOL    C2811160   7.751   1.201   6.501 -0.3195  0.1509 -0.3420
   47MOL    O2911161   7.707   1.133   6.406 -0.0141 -0.0700  0.9526
   47MOL    O3011162   7.683   1.292   6.570 -0.1315 -0.1954 -0.3065
   47MOL    C3111163   7.558   1.341   6.527  0.3482  0.2243  0.4448
   47MOL    H3211164   7.811   1.121   6.738 -0.0345  2.1833 -0.3616
   47MOL    H3311165   0.027   1.212   6.754  1.1021 -1.7202  1.6372
   47MOL    H3411166   0.006   1.109   6.485  0.1471  0.2604 -0.6175
   47MOL    H3511167   7.577   1.395   6.434  1.2482  0.7577  0.9391
   47MOL    H3611168   7.511   1.417   6.590  2.8572  1.9882  0.2354
   47MOL    H3711169   7.497   1.252   6.510  1.5617 -0.2588 -1.6011
   47MOL    C3811170   0.034   1.323   6.513  0.1254 -0.6134  0.3516
   47MOL    C3911171   0.185   1.341   6.541  0.5535 -0.2938  0.2601
   47MOL    C4011172   0.277   1.268   6.450  0.3798 -0.0182 -0.0634
   47MOL    O4111173   0.225   1.217   6.351  0.2140  0.1566 -0.3077
   47MOL    O4211174   0.409   1.251   6.485  0.2643  0.7529 -0.2881
   47MOL    C4311175   0.499   1.169   6.411 -0.4522 -0.2698  0.1486
   47MOL    H4411176   0.009   1.355   6.412 -2.0457 -0.4526  0.9085
   47MOL    H4511177   7.921   1.397   6.579 -1.5646 -1.8346  0.5915
   47MOL    H4611178   0.212   1.299   6.638 -1.8871 -1.6975  0.3794
   47MOL    H4711179   0.587   1.137   6.467  0.5964 -0.6699 -1.7001
   47MOL    H4811180   0.535   1.233   6.330  1.5963  0.7623  1.8033
   47MOL    H4911181   0.444   1.080   6.383 -1.6021  0.1735  0.9777
   47MOL    C5011182   0.235   1.486   6.549  0.7037 -0.4658 -0.3785
   47MOL    C5111183   0.264   1.536   6.691 -0.4666 -0.6259 -0.1732
   47MOL    C5211184   0.144   1.527   6.795 -0.2632 -0.6833  0.9256
   47MOL    O5311185   0.156   1.461   6.894 -0.4118 -0.8098  0.9653
   47MOL    O5411186   0.042   1.605   6.765  0.1110 -0.1132  0.4350
   47MOL    C5511187   7.854   1.597   6.839  0.6836  0.1795  0.1811
   47MOL    H5611188   0.326   1.503   6.491 -0.1202 -0.8199 -1.8159
   47MOL    H5711189   0.159   1.547   6.499  1.1710  0.7069  0.3210
   47MOL    H5811190   0.278   1.644   6.686  1.0877 -0.7086  1.8598
   47MOL    H5911191   7.774   1.662   6.804 -0.6317 -0.9522  1.0582
   47MOL    H6011192   7.874   1.630   6.941 -1.6463 -0.1563  0.7746
   47MOL    H6111193   7.815   1.496   6.845  0.9881  0.0573  0.1189
   47MOL    C6211194   0.398   1.484   6.751  0.5118  0.3832 -0.1953
   47MOL    C6311195   0.531   1.502   6.675  0.2908 -0.0768 -0.2203
   47MOL    C6411196   0.542   1.644   6.629  0.2857 -0.4837 -0.0266
   47MOL    O6511197   0.537   1.669   6.506  0.6912 -0.0351  0.0206
   47MOL    O6611198   0.555   1.732   6.730 -0.1292  0.3307 -0.0292
   47MOL    C6711199   0.550   1.871   6.707 -0.1010  0.7482 -0.0954
   47MOL    H6811200   0.401   1.524   6.852  0.9313  0.2422 -0.1487
   47MOL    H6911201   0.385   1.377   6.769 -2.2237  0.2170 -2.7967
   47MOL    H7011202   0.536   1.461   6.574  0.3801  1.1932 -0.7428
   47MOL    H7111203   0.589   1.897   6.609  1.6159 -1.6889 -0.1179
   47MOL    H7211204   0.607   1.923   6.784  1.5846  0.7994 -1.3480
   47MOL    H7311205   0.450   1.911   6.719 -1.1697 -1.8929  0.1599
   47MOL    C7411206   0.658   1.462   6.748 -0.0599  0.8570 -0.1491
   47MOL    C7511207   0.786   1.446   6.658 -0.2627  0.5432 -0.6386
   47MOL    C7611208   0.910   1.469   6.740 -0.3093 -0.1202 -0.0180
   47MOL    O7711209   0.969   1.570   6.709 -0.1306  0.5049  0.3148
   47MOL    O7811210   0.941   1.376   6.832  0.0724 -0.4073  0.0151
   47MOL    C7911211   1.053   1.407   6.914  0.1722  0.4523  0.1362
   47MOL    H8011212   0.684   1.534   6.826  0.1793  1.2553 -0.5914
   47MOL    H8111213   0.634   1.371   6.802 -0.5726 -0.3664 -2.3678
   47MOL    H8211214   0.780   1.538   6.600 -1.3954  0.2109 -1.0755
   47MOL    H8311215   1.029   1.475   6.995  1.9597 -0.1229  1.1798
   47MOL    H8411216   1.139   1.440   6.855 -0.9919 -0.6441 -2.2331
   47MOL    H8511217   1.095   1.316   6.958 -0.2644  0.8957  1.4926
   47MOL    C8611218   0.791   1.335   6.563  0.3697  0.5948 -0.0798
   47MOL    C8711219   0.894   1.338   6.444 -0.0820 -0.6354  0.1077
   47MOL    C8811220   0.879   1.461   6.358  0.0239 -0.2121  0.1155
   47MOL    O8911221   0.971   1.545   6.346  0.2280  0.1992  0.2969
   47MOL    O9011222   0.760   1.464   6.292 -0.2394 -0.0074 -0.4619
   47MOL    C9111223   0.727   1.580   6.217  0.5219 -0.7369  0.7024
   47MOL    H9211224   0.808   1.241   6.615 -0.4925  0.8270  0.6353
   47MOL    H9311225   0.695   1.317   6.516 -0.1082 -2.3657  1.8432
   47MOL    H9411226   0.860   1.267   6.369  2.7414 -0.0732 -1.7898
   47MOL    H9511227   0.721   1.663   6.288 -1.8697 -1.3727  1.2761
   47MOL    H9611228   0.623   1.576   6.186  1.0541 -0.1129 -1.2139
   47MOL    H9711229   0.794   1.601   6.134 -0.5634  1.3205  0.3406
   47MOL    C9811230   1.049   1.319   6.477  0.3744 -0.4525 -0.1775
   47MOL    C9911231   1.095   1.201   6.558  0.5547 -0.2219 -1.0651
   47MOL   C10011232   1.059   1.073   6.487  0.0582  0.5340 -0.6945
   47MOL   O10111233   1.129   1.013   6.404  0.6093  0.2950 -0.2601
   47MOL   O10211234   0.938   1.027   6.521  0.1839 -0.0385 -0.0976
   47MOL   C10311235   0.888   0.904   6.457 -0.4844 -0.2368  0.6493
   47MOL   H10411236   1.113   1.322   6.389  0.9927 -0.1994  0.2806
   47MOL   H10511237   1.084   1.402   6.538  2.1979 -2.0801  1.0497
   47MOL   H10611238   1.035   1.203   6.650  1.3603 -0.0485 -0.5384
   47MOL   H10711239   0.863   0.924   6.353  0.0527  2.5946  1.0175
   47MOL   H10811240   0.802   0.870   6.514 -2.4015 -0.9401 -2.5692
   47MOL   H10911241   0.958   0.820   6.462 -0.1998  0.0494  1.8261
   47MOL   C11011242   1.247   1.213   6.596  0.1257  0.1099  0.2421
   47MOL   C11111243   1.286   1.165   6.740 -0.2063  0.4764 -0.4877
   47MOL   C11211244   1.233   1.025   6.760  0.5688 -0.5115 -0.1138
   47MOL   O11311245   1.142   0.998   6.841 -0.1087  0.1441  0.7139
   47MOL   O11411246   1.311   0.937   6.695  0.4875  0.1969  0.1864
   47MOL   C11511247   1.287   0.802   6.719  0.1607  0.7610 -0.3056
   47MOL   H11611248   1.307   1.157   6.524 -0.1958  0.0136  0.0481
   47MOL   H11711249   1.280   1.316   6.589 -1.1129  0.4049 -1.5842
   47MOL   H11811250   1.239   1.235   6.809  1.0669  0.5910  0.2668
   47MOL   H11911251   1.192   0.772   6.676 -0.2926  3.6631 -1.4483
   47MOL   H12011252   1.293   0.777   6.824 -1.0155 -1.1287 -0.6794
   47MOL   H12111253   1.360   0.744   6.663 -1.1166  1.1606 -2.4447
   47MOL   C12211254   1.441   1.169   6.762 -0.2501 -0.0143  0.2680
   47MOL   C12311255   1.502   1.308   6.768  0.3477 -0.0139 -0.3194
   47MOL   C12411256   1.438   1.384   6.886  0.2241 -0.0989 -0.1155
   47MOL   O12511257   1.388   1.495   6.877 -0.1659  0.2287  0.3442
   47MOL   O12611258   1.436   1.313   6.997 -0.1752  0.2858  0.7903
   47MOL   C12711259   1.384   1.361   7.123 -0.2858  0.1668 -0.3247
   47MOL   H12811260   1.469   1.119   6.855  1.3879 -2.3535 -1.4486
   47MOL   H12911261   1.486   1.116   6.679  0.2406 -0.3172  0.7256
   47MOL   H13011262   1.473   1.369   6.682  1.2445 -0.3088 -0.8350
   47MOL   H13111263   1.279   1.389   7.111 -0.4164 -0.3779 -0.4333
   47MOL   H13211264   1.431   1.457   7.144 -2.5611  1.5534 -1.3736
   47MOL   H13311265   1.395   1.289   7.204 -1.8809 -0.9005 -1.0401
   47MOL   C13411266   1.660   1.304   6.774  0.0750  0.4321  0.3730
   47MOL   C13511267   1.723   1.436   6.801 -0.3315 -0.3551 -0.1824
   47MOL   C13611268   1.860   1.426   6.879 -0.1087 -0.4476  0.0586
   47MOL   O13711269   1.922   1.320   6.902 -0.4414  0.0800 -0.0709
   47MOL   O13811270   1.923   1.541   6.922  0.3804 -0.3353  0.0465
   47MOL   C13911271   2.051   1.533   6.982 -0.2562  0.0513  0.5301
   47MOL   H14011272   1.694   1.241   6.857 -1.7725  0.1148  0.9256
   47MOL   H14111273   1.701   1.257   6.685  2.1565  2.5387  0.1777
   47MOL   H14211274   1.671   1.496   6.876  1.7155 -0.9526  1.8011
   47MOL   H14311275   2.085   1.631   7.016 -0.4907  0.8046 -1.3760
   47MOL   H14411276   2.126   1.490   6.917  1.2352  1.2913  1.3986
   47MOL   H14511277   2.054   1.462   7.065 -0.2606 -1.1653 -0.4984
   47MOL   C14611278   1.734   1.514   6.668 -0.1918 -0.7035  1.4387
   47MOL   C14711279   1.631   1.632   6.661 -0.6273  0.0606  0.9090
   47MOL   C14811280   1.662   1.731   6.771 -0.4460  0.8160 -0.0958
   47MOL   O14911281   1.583   1.758   6.858 -0.3385  0.3658  0.4171
   47MOL   O15011282   1.788   1.781   6.766 -0.1359 -0.2728  0.1039
   47MOL   C15111283   1.819   1.895   6.851  0.2777 -0.3538 -0.3410
   47MOL   H15211284   1.831   1.563   6.662  0.5023 -2.2411 -0.2252
   47MOL   H15311285   1.715   1.453   6.580 -1.7469  0.6896  0.7858
   47MOL   H15411286   1.532   1.588   6.670 -0.6638  0.1779  1.0651
   47MOL   H15511287   1.899   1.960   6.815 -0.4462  1.0762  0.6114
   47MOL   H15611288   1.826   1.870   6.957 -2.7638  2.2969  0.5547
   47MOL   H15711289   1.729   1.955   6.845 -0.2769 -1.1101  0.2522
   47MOL   C15811290   1.640   1.699   6.526 -0.0063  1.1680 -0.0446
   47MOL   C15911291   1.589   1.623   6.403 -0.4246  0.7538  0.0729
   47MOL   C16011292   1.439   1.587   6.424 -0.1173  0.0699 -0.6166
   47MOL   O16111293   1.394   1.475   6.403 -0.7313  0.2603  0.1641
   47MOL   O16211294   1.368   1.692   6.464 -0.0336  0.2548 -0.4314
   47MOL   C16311295   1.229   1.673   6.506 -0.6704  0.2052  0.3483
   47MOL   H16411296   1.583   1.792   6.530 -3.7191 -1.0465  1.5002
   47MOL   H16511297   1.737   1.743   6.505 -0.8904  2.9844 -0.3964
   47MOL   H16611298   1.644   1.529   6.393 -0.3889  0.8134 -0.3240
   47MOL   H16711299   1.176   1.768   6.505  0.0839  0.6238 -1.5153
   47MOL   H16811300   1.209   1.638   6.607  0.3333 -1.0121  0.1453
   47MOL   H16911301   1.176   1.610   6.434 -1.9502  3.0062 -1.2159
   47MOL   C17011302   1.610   1.700   6.271 -0.2139 -0.1512  0.0411
   47MOL   C17111303   1.744   1.680   6.195 -0.2876  0.1447 -0.0905
   47MOL   C17211304   1.853   1.757   6.261  0.4857 -0.7335 -0.5364
   47MOL   O17311305   1.884   1.868   6.224 -0.4392  0.2555 -0.0492
   47MOL   O17411306   1.907   1.684   6.370 -0.3098  0.6597 -0.8955
   47MOL   C17511307   2.003   1.752   6.448 -0.1919 -0.0866 -1.0504
   47MOL   H17611308   1.527   1.678   6.203  1.5620 -2.3019 -1.4982
   47MOL   H17711309   1.593   1.804   6.300 -0.0988  0.4061 -1.8126
   47MOL   H17811310   1.733   1.737   6.103 -0.4784  0.6020  0.2171
   47MOL   H17911311   2.074   1.801   6.382  1.0945 -1.5320 -0.7452
   47MOL   H18011312   2.043   1.672   6.510  0.1585  0.8327 -0.0819
   47MOL   H18111313   1.961   1.825   6.518 -0.4876 -0.4336 -0.8627
   47MOL   C18211314   1.799   1.535   6.172 -0.5773 -0.8515  0.3007
   47MOL   C18311315   1.708   1.439   6.093  0.1231 -0.7202 -0.0513
   47MOL   C18411316   1.668   1.496   5.960 -0.3779 -0.2542  0.3758
   47MOL   O18511317   1.549   1.521   5.931 -0.1457 -0.0151 -0.4105
   47MOL   O18611318   1.772   1.526   5.886 -0.3096  0.2597 -0.3750
   47MOL   C18711319   1.762   1.595   5.760 -0.0084 -0.2560 -0.5628
   47MOL   H18811320   1.897   1.542   6.126 -0.8258  0.4609 -0.0576
   47MOL   H18911321   1.825   1.482   6.263 -2.2549 -0.5186  1.0025
   47MOL   H19011322   1.614   1.448   6.148  1.3697  1.4945  1.8076
   47MOL   H19111323   1.858   1.613   5.712  0.2153 -0.1195 -0.0732
   47MOL   H19211324   1.706   1.689   5.765  1.9593  1.0026 -1.5576
   47MOL   H19311325   1.711   1.538   5.683  0.8161 -1.4358 -0.2526
   47MOL   C19411326   1.755   1.293   6.079  0.0989 -0.9204 -0.0996
   47MOL   C19511327   1.766   1.210   6.215 -0.1279 -0.6504 -0.2477
   47MOL   C19611328   1.633   1.186   6.282  0.2347 -0.1745 -0.3967
   47MOL   O19711329   1.623   1.171   6.406 -0.1460  0.5490 -0.1278
   47MOL   O19811330   1.532   1.180   6.199  0.4198 -0.7362 -0.4062
   47MOL   C19911331   1.405   1.156   6.253 -0.0633  0.0145  0.2414
   47MOL   H20011332   1.697   1.237   6.006 -1.4047  0.5707 -0.0816
   47MOL   H20111333   1.852   1.302   6.031 -1.3098  0.1780 -2.8670
   47MOL   H20211334   1.828   1.273   6.280 -1.1192  0.4419 -0.3441
   47MOL   H20311335   1.407   1.054   6.293  2.1409 -0.5079 -1.1352
   47MOL   H20411336   1.322   1.174   6.185 -1.7505 -1.9559  1.7070
   47MOL   H20511337   1.384   1.226   6.334 -0.5151  0.6028 -0.3774
   47MOL   C20611338   1.841   1.073   6.186 -0.0927  0.2611 -0.2774
   47MOL   C20711339   1.887   0.982   6.304 -0.1420 -0.0858 -0.2414
   47MOL   C20811340   1.953   0.860   6.247 -0.0006 -0.2478 -0.0434
   47MOL   O20911341   2.069   0.822   6.279  0.2785 -0.5292 -0.2641
   47MOL   O21011342   1.880   0.786   6.161  0.3748 -0.3172  0.1970
   47MOL   C21111343   1.946   0.669   6.094  0.3134 -0.4452  0.0516
   47MOL   H21211344   1.797   1.004   6.113  0.9207 -2.0203  1.2090
   47MOL   H21311345   1.929   1.103   6.128 -0.7701 -0.7744 -1.8976
   47MOL   H21411346   1.798   0.958   6.362 -0.6427 -0.8301 -1.2952
   47MOL   H21511347   1.883   0.636   6.011  0.5656  1.5406 -0.9562
   47MOL   H21611348   1.952   0.592   6.171  0.4652 -1.2873 -0.7980
   47MOL   H21711349   2.043   0.691   6.050 -1.7713  1.0995 -4.0203
   47MOL   C21811350   1.967   1.057   6.410  0.7075 -0.4865 -0.2679
   47MOL   C21911351   1.970   0.984   6.550 -0.0979 -0.3158  0.0962
   47MOL   C22011352   2.100   1.021   6.625 -0.5752 -0.4956 -0.3442
   47MOL   O22111353   2.181   0.933   6.658  0.3662  0.1441 -0.2559
   47MOL   O22211354   2.104   1.153   6.649 -0.1412 -0.0085  0.4804
   47MOL   C22311355   2.216   1.194   6.722  0.3098 -0.2378  0.5780
   47MOL   H22411356   2.063   1.063   6.359  0.0235  1.6553 -1.3361
   47MOL   H22511357   1.941   1.163   6.413  0.2823 -0.5795 -0.5618
   47MOL   H22611358   1.972   0.878   6.528 -3.0616 -0.5477  0.7491
   47MOL   H22711359   2.308   1.164   6.671 -1.2853 -2.0124 -1.3507
   47MOL   H22811360   2.211   1.154   6.823 -1.0119  2.3212  1.5832
   47MOL   H22911361   2.213   1.303   6.730  0.5415 -0.1396 -0.5592
   47MOL   C23011362   1.839   1.000   6.631  0.4346 -0.6142 -0.3726
   47MOL   C23111363   1.823   0.949   6.775 -0.0535  0.1511 -0.3128
   47MOL   C23211364   1.753   0.820   6.794 -0.3789 -0.2527  0.5001
   47MOL   O23311365   1.634   0.819   6.813 -0.2616 -0.6564 -0.0087
   47MOL   O23411366   1.838   0.716   6.779 -0.6316 -0.5330  0.4254
   47MOL   C23511367   1.777   0.587   6.782  0.7867  0.5220  0.1664
   47MOL   H23611368   1.834   1.108   6.645 -1.1779 -0.6096 -0.8410
   47MOL   H23711369   1.749   0.984   6.571 -0.1394  0.8625  0.0714
   47MOL   H23811370   1.761   1.016   6.835 -0.1144  1.8031 -2.1852
   47MOL   H23911371   1.855   0.522   6.742  1.6677  1.0824  0.9643
   47MOL   H24011372   1.682   0.565   6.732  1.8867 -0.3444 -1.6242
   47MOL   H24111373   1.758   0.550   6.883  0.7395  2.4749  0.8813
   47MOL   H24211374   1.924   0.949   6.817  0.2886 -0.8876 -1.1051
   48MOL     C111375   6.683   4.817   7.383 -0.0510  0.3809 -0.0243
   48MOL     C211376   6.742   4.708   7.284  0.3924  0.1262  0.1127
   48MOL     C311377   6.745   4.573   7.344  0.8257  0.1484 -0.7614
   48MOL     O411378   6.846   4.524   7.386 -0.3413 -0.4195 -0.2880
   48MOL     O511379   6.620   4.512   7.346 -0.0490 -0.5047 -0.1518
   48MOL     C611380   6.623   4.376   7.385  0.3556 -0.2084 -0.2704
   48MOL     H711381   6.698   4.917   7.343  2.1145  0.5900  1.2094
   48MOL     H811382   6.738   4.798   7.475  0.2257  1.3475  0.0074
   48MOL     H911383   6.847   4.736   7.273  1.1785 -1.0922  3.8407
   48MOL    H1011384   6.676   4.349   7.477  0.9087  2.1016  0.1038
   48MOL    H1111385   6.662   4.314   7.304 -1.7207  2.2068 -3.2239
   48MOL    H1211386   6.517   4.352   7.390  0.3096  0.1701  0.8505
   48MOL    H1311387   6.576   4.806   7.398  0.0638  0.4999  0.9027
   48MOL    C1411388   6.687   4.703   7.137 -0.2024 -1.0059 -0.1006
   48MOL    C1511389   6.778   4.750   7.021 -0.3364 -0.0324 -0.4432
   48MOL    C1611390   6.808   4.896   7.038 -0.6379  0.6569  0.4060
   48MOL    O1711391   6.922   4.932   7.065  0.2137 -0.0276  0.2480
   48MOL    O1811392   6.691   4.975   7.046 -0.8144 -0.1088 -0.6230
   48MOL    C1911393   6.705   5.109   7.088 -0.3919 -0.5536  0.2815
   48MOL    H2011394   6.650   4.603   7.115 -3.2395 -0.1274  0.7796
   48MOL    H2111395   6.597   4.763   7.153  2.1180  2.4302  0.4370
   48MOL    H2211396   6.724   4.747   6.926  2.2395  1.2110 -2.0119
   48MOL    H2311397   6.615   5.161   7.056 -0.6022 -0.3609  1.1623
   48MOL    H2411398   6.775   5.169   7.031  0.1756 -0.6819  0.8360
   48MOL    H2511399   6.721   5.120   7.195 -1.8219 -1.8563  0.6580
   48MOL    C2611400   6.907   4.664   7.000  0.2241 -0.2540 -0.7267
   48MOL    C2711401   6.975   4.681   6.861 -0.0198  0.2656  0.4895
   48MOL    C2811402   7.125   4.647   6.870  0.0487 -0.3790  0.4859
   48MOL    O2911403   7.187   4.610   6.968  0.6262 -0.2495 -0.5386
   48MOL    O3011404   7.186   4.669   6.749  0.1382 -0.2959 -0.5191
   48MOL    C3111405   7.326   4.637   6.731  0.7967  0.1661 -0.1743
   48MOL    H3211406   6.985   4.686   7.072  0.8187 -3.4534 -0.3145
   48MOL    H3311407   6.883   4.560   7.021  1.7859 -0.3283  0.7838
   48MOL    H3411408   6.982   4.790   6.854  0.8288  0.3279  2.2657
   48MOL    H3511409   7.362   4.535   6.749 -0.8768 -0.1319  1.6148
   48MOL    H3611410   7.380   4.707   6.795  0.5684  1.9182 -1.8356
   48MOL    H3711411   7.374   4.664   6.637  1.0625  0.5493  0.0726
   48MOL    C3811412   6.904   4.619   6.732 -0.3595 -0.4044 -1.0599
   48MOL    C3911413   6.911   4.461   6.719  0.8143 -0.5447  0.4248
   48MOL    C4011414   6.820   4.385   6.817  0.2656  0.1734  0.3062
   48MOL    O4111415   6.703   4.414   6.823  0.4538  0.2552 -0.1430
   48MOL    O4211416   6.884   4.303   6.910 -0.4123  0.8368  0.3485
   48MOL    C4311417   6.804   4.232   7.008 -0.5804 -0.4684 -0.4108
   48MOL    H4411418   6.803   4.659   6.732 -1.2574 -2.6309  0.4638
   48MOL    H4511419   6.961   4.666   6.651  0.6658 -0.2349 -0.2546
   48MOL    H4611420   7.012   4.429   6.743 -0.3108 -3.0081  2.0526
   48MOL    H4711421   6.763   4.300   7.083 -2.0920 -2.4244  0.5901
   48MOL    H4811422   6.862   4.155   7.059  0.2393  1.8271  2.2582
   48MOL    H4911423   6.708   4.205   6.964 -1.2302  2.6389 -0.9540
   48MOL    C5011424   6.883   4.423   6.572  0.2836  0.6634  0.1405
   48MOL    C5111425   6.936   4.284   6.537  0.1675 -0.0523 -0.2237
   48MOL    C5211426   6.842   4.209   6.447  0.0730 -0.1074  0.5251
   48MOL    O5311427   6.786   4.104   6.475  0.3121 -0.2417  0.1234
   48MOL    O5411428   6.834   4.279   6.332  0.0067 -0.1147  0.5530
   48MOL    C5511429   6.766   4.221   6.224 -1.1557  0.2915 -0.0186
   48MOL    H5611430   6.776   4.435   6.554  0.4412  0.8306 -0.7367
   48MOL    H5711431   6.930   4.493   6.502 -0.3314  0.4354 -0.5071
   48MOL    H5811432   6.922   4.232   6.632 -1.4551 -1.0103 -0.9632
   48MOL    H5911433   6.822   4.133   6.191 -1.4885  0.4635 -1.0340
   48MOL    H6011434   6.754   4.288   6.140  0.4119  0.6119 -0.0035
   48MOL    H6111435   6.667   4.193   6.260 -0.9955  0.2318  0.3836
   48MOL    C6211436   7.089   4.282   6.498 -0.7553  0.2512  0.9718
   48MOL    C6311437   7.159   4.143   6.478 -0.3960  0.4064 -0.2481
   48MOL    C6411438   7.149   4.061   6.607  0.0341 -0.3041 -0.2534
   48MOL    O6511439   7.242   4.045   6.676  0.2844  0.5983  0.1413
   48MOL    O6611440   7.030   4.006   6.614  0.0230 -0.5235 -0.2940
   48MOL    C6711441   6.990   3.949   6.744 -0.1339 -0.3674  0.2600
   48MOL    H6811442   7.102   4.343   6.409  1.1575 -2.3129 -0.6010
   48MOL    H6911443   7.145   4.331   6.578  1.9941 -3.1753  1.2825
   48MOL    H7011444   7.261   4.181   6.476 -0.7521  1.4716  0.8322
   48MOL    H7111445   6.944   3.852   6.724 -0.8224 -0.0285  0.2122
   48MOL    H7211446   6.920   4.021   6.786 -1.8413 -0.6154 -2.1061
   48MOL    H7311447   7.083   3.920   6.795  0.0925 -0.6052 -0.2826
   48MOL    C7411448   7.138   4.058   6.356  0.4309  0.0430  0.4853
   48MOL    C7511449   7.182   4.121   6.224  0.4838  0.4056  0.3495
   48MOL    C7611450   7.323   4.187   6.226 -0.3854 -0.7515 -0.2729
   48MOL    O7711451   7.343   4.306   6.243 -0.2598 -0.1546 -0.1031
   48MOL    O7811452   7.418   4.098   6.212  0.0586 -0.6540  0.0564
   48MOL    C7911453   7.555   4.123   6.217  0.7125 -0.4580 -0.1371
   48MOL    H8011454   7.199   3.969   6.366  1.0928  0.2435 -1.4690
   48MOL    H8111455   7.034   4.024   6.354  1.0462 -1.8751 -0.6798
   48MOL    H8211456   7.110   4.191   6.183 -0.3631  0.2531  1.5388
   48MOL    H8311457   7.581   4.134   6.322  0.2811  3.5082 -0.3616
   48MOL    H8411458   7.583   4.216   6.167 -1.7419 -0.6065 -1.8828
   48MOL    H8511459   7.612   4.036   6.184  2.5848  0.9231 -0.6567
   48MOL    C8611460   7.166   4.010   6.116  0.0720  0.0767 -0.0983
   48MOL    C8711461   7.141   4.031   5.960 -1.1719  0.5216 -1.0798
   48MOL    C8811462   7.218   4.157   5.911 -0.1269  0.0723  0.1300
   48MOL    O8911463   7.320   4.137   5.842 -0.5139  0.6296 -0.1367
   48MOL    O9011464   7.156   4.269   5.940 -0.3145  0.0336 -0.2144
   48MOL    C9111465   7.198   4.393   5.878 -0.2913 -0.0433 -0.1793
   48MOL    H9211466   7.246   3.937   6.132  0.3896  0.7423  1.4374
   48MOL    H9311467   7.070   3.964   6.139 -0.3236  1.0387  0.1929
   48MOL    H9411468   7.035   4.049   5.947 -1.5894 -0.7325  0.4448
   48MOL    H9511469   7.307   4.388   5.871 -0.0890  3.2565 -0.2303
   48MOL    H9611470   7.159   4.480   5.931 -1.8473 -1.3396  0.8417
   48MOL    H9711471   7.150   4.404   5.781 -0.6832  0.0032  0.0166
   48MOL    C9811472   7.184   3.895   5.891 -0.4110 -1.9602  0.6932
   48MOL    C9911473   7.148   3.899   5.745  0.6099  0.0794 -0.7399
   48MOL   C10011474   7.213   3.775   5.680 -0.0168  0.0751  0.9914
   48MOL   O10111475   7.290   3.790   5.586 -0.4060  0.6146 -0.1678
   48MOL   O10211476   7.183   3.656   5.739 -0.2658 -0.2176  0.5909
   48MOL   C10311477   7.249   3.534   5.686 -0.3568 -0.1455  0.1949
   48MOL   H10411478   7.292   3.880   5.898 -0.3365 -1.6488  0.2707
   48MOL   H10511479   7.130   3.820   5.948 -1.5226 -1.6897  0.0010
   48MOL   H10611480   7.192   3.985   5.695 -1.0381  1.7176  0.5782
   48MOL   H10711481   7.223   3.523   5.581 -2.0017  0.3780  0.5263
   48MOL   H10811482   7.233   3.440   5.739  0.3635 -0.5594 -0.3189
   48MOL   H10911483   7.357   3.550   5.686 -0.3542 -0.1213  1.0663
   48MOL   C11011484   6.989   3.901   5.722 -0.3423 -0.4603  0.5476
   48MOL   C11111485   6.924   4.037   5.707 -0.1219 -0.4997 -0.2758
   48MOL   C11211486   7.004   4.120   5.610 -0.2669  0.8517 -0.1314
   48MOL   O11311487   7.028   4.236   5.635 -0.2560 -0.4316  0.4986
   48MOL   O11411488   7.015   4.056   5.492  0.7609  0.3432  0.5172
   48MOL   C11511489   7.086   4.106   5.379  0.1517 -0.0066 -0.0936
   48MOL   H11611490   6.963   3.837   5.638  1.4508  0.7298 -0.9571
   48MOL   H11711491   6.941   3.857   5.810  0.0611 -0.6637  0.6654
   48MOL   H11811492   6.929   4.086   5.804  2.5832 -0.7077 -0.2629
   48MOL   H11911493   7.181   4.150   5.408 -0.1719 -0.6320  2.0160
   48MOL   H12011494   7.018   4.180   5.336  0.2713 -0.3665 -0.9143
   48MOL   H12111495   7.111   4.021   5.316 -1.9570 -1.1046  0.4980
   48MOL   C12211496   6.774   4.024   5.657 -0.1209 -0.0483 -0.5323
   48MOL   C12311497   6.674   4.082   5.763  0.2898 -0.1793 -0.3836
   48MOL   C12411498   6.674   4.242   5.773  0.5903 -0.0142  1.0341
   48MOL   O12511499   6.605   4.310   5.694 -0.3158 -0.0201 -0.2204
   48MOL   O12611500   6.744   4.298   5.869  0.6489  0.1005 -0.0424
   48MOL   C12711501   6.751   4.438   5.873  0.2732 -0.3675  0.2423
   48MOL   H12811502   6.751   4.058   5.556  0.5871 -0.3249 -0.7877
   48MOL   H12911503   6.744   3.919   5.651  1.4606 -0.3724 -3.7626
   48MOL   H13011504   6.712   4.062   5.863  1.1778 -1.8666 -1.0456
   48MOL   H13111505   6.809   4.470   5.960  2.0947 -2.4743 -0.1608
   48MOL   H13211506   6.653   4.485   5.877  1.2496  1.6560  1.0252
   48MOL   H13311507   6.793   4.478   5.781 -1.0573 -0.2804 -0.3403
   48MOL   C13411508   6.524   4.038   5.740 -0.2005 -0.0294  1.1275
   48MOL   C13511509   6.498   3.890   5.772 -0.1879 -0.6451 -0.4086
   48MOL   C13611510   6.529   3.856   5.915 -0.5767  0.0075  0.2036
   48MOL   O13711511   6.508   3.937   6.006  0.3639 -0.7936  0.1605
   48MOL   O13811512   6.559   3.731   5.927 -0.1362  0.0604 -0.2531
   48MOL   C13911513   6.604   3.678   6.049 -0.4007 -1.1178  0.0778
   48MOL   H14011514   6.441   4.100   5.775 -0.9159 -0.8278  0.8932
   48MOL   H14111515   6.503   4.052   5.634 -0.5417  0.3720  1.2466
   48MOL   H14211516   6.563   3.833   5.705  0.2056  1.4948 -1.9078
   48MOL   H14311517   6.548   3.711   6.136 -2.4725  1.0169 -1.9716
   48MOL   H14411518   6.706   3.709   6.072  0.2484 -1.9560 -1.6137
   48MOL   H14511519   6.618   3.570   6.049 -1.4522 -1.2634  0.0059
   48MOL   C14611520   6.351   3.853   5.741 -0.3942 -0.1984  0.1634
   48MOL   C14711521   6.330   3.699   5.721  0.6559  0.3928  0.5114
   48MOL   C14811522   6.179   3.665   5.718  0.1627  0.1296 -0.1010
   48MOL   O14911523   6.121   3.597   5.805 -0.3063  0.3501 -0.0655
   48MOL   O15011524   6.125   3.715   5.612  0.3797 -0.3031  0.0526
   48MOL   C15111525   5.982   3.709   5.587 -0.4257  0.5810 -0.1077
   48MOL   H15211526   6.276   3.892   5.811 -1.4313 -0.8439 -0.5936
   48MOL   H15311527   6.321   3.908   5.653  0.7023 -0.6338 -0.4969
   48MOL   H15411528   6.373   3.639   5.802  1.4724 -0.0265 -0.2230
   48MOL   H15511529   5.937   3.787   5.649 -0.8556 -1.9007  2.7937
   48MOL   H15611530   5.944   3.608   5.605  0.4976 -0.0639 -1.6920
   48MOL   H15711531   5.961   3.732   5.482 -0.5854  0.1793 -0.1646
   48MOL   C15811532   6.409   3.657   5.591 -0.2879  0.6061  0.3557
   48MOL   C15911533   6.515   3.556   5.622  0.8362 -0.1918 -0.1377
   48MOL   C16011534   6.452   3.417   5.626  0.1427  0.3032 -0.2779
   48MOL   O16111535   6.424   3.361   5.523  0.4654 -0.1967  0.0419
   48MOL   O16211536   6.439   3.363   5.751 -0.4601 -0.4678 -0.2358
   48MOL   C16311537   6.385   3.237   5.765 -0.0788  0.0517 -0.1232
   48MOL   H16411538   6.342   3.636   5.508  0.4423  1.6878 -0.5051
   48MOL   H16511539   6.446   3.747   5.543 -1.2937 -0.0435 -1.6808
   48MOL   H16611540   6.576   3.588   5.706 -0.4152 -0.6417  0.9442
   48MOL   H16711541   6.447   3.168   5.708  2.5509  1.2351  1.2217
   48MOL   H16811542   6.279   3.241   5.740  0.2578  1.2241 -1.4815
   48MOL   H16911543   6.387   3.215   5.871  1.5900  0.9786  0.0574
   48MOL   C17011544   6.627   3.568   5.514 -0.2307 -0.3476  0.2792
   48MOL   C17111545   6.745   3.472   5.527  0.1599 -0.4065 -0.4661
   48MOL   C17211546   6.791   3.445   5.666 -0.1948  0.2280  0.1528
   48MOL   O17311547   6.788   3.336   5.723 -0.1341  0.0252 -0.0054
   48MOL   O17411548   6.836   3.558   5.723 -0.1603 -0.0936  0.6350
   48MOL   C17511549   6.892   3.549   5.854 -0.3578  0.4093  0.4518
   48MOL   H17611550   6.587   3.565   5.413  0.8309 -0.5301 -0.1478
   48MOL   H17711551   6.670   3.668   5.515  0.3067 -0.5486 -1.3922
   48MOL   H17811552   6.827   3.531   5.485  1.3141 -1.7146 -0.1119
   48MOL   H17911553   6.815   3.531   5.929  1.0158 -1.1542  1.5417
   48MOL   H18011554   6.940   3.644   5.877  0.2413  0.0064  0.8983
   48MOL   H18111555   6.961   3.466   5.869 -1.5568 -0.4903  1.0182
   48MOL   C18211556   6.721   3.338   5.442 -0.8957 -0.8394 -0.2179
   48MOL   C18311557   6.845   3.262   5.389 -0.1660 -0.7872 -1.3691
   48MOL   C18411558   6.969   3.350   5.363  0.2037  0.2126  0.1013
   48MOL   O18511559   7.069   3.356   5.440  0.1492  0.2468  0.5965
   48MOL   O18611560   6.960   3.406   5.244  0.4654 -0.2907  0.0737
   48MOL   C18711561   7.084   3.446   5.184 -0.1965  0.6299 -0.2784
   48MOL   H18811562   6.660   3.272   5.503 -4.4885  2.5721  0.1201
   48MOL   H18911563   6.661   3.371   5.358 -1.0086 -0.9237 -0.1706
   48MOL   H19011564   6.816   3.224   5.291 -0.2367  1.1718 -2.1212
   48MOL   H19111565   7.055   3.485   5.087  0.3078  0.5308 -0.4659
   48MOL   H19211566   7.151   3.360   5.178 -2.4360 -1.1754 -0.2672
   48MOL   H19311567   7.136   3.524   5.239  1.1726 -0.2798 -0.2713
   48MOL   C19411568   6.887   3.126   5.469  0.2512 -0.8086 -0.4215
   48MOL   C19511569   6.776   3.027   5.504 -0.2308  0.2033 -0.8169
   48MOL   C19611570   6.706   2.976   5.375  0.0119 -0.0750 -0.2943
   48MOL   O19711571   6.599   3.026   5.341  0.2298 -0.5249  0.0232
   48MOL   O19811572   6.780   2.888   5.307 -0.4890  0.6609 -0.2181
   48MOL   C19911573   6.730   2.831   5.187  0.7222 -0.5255  0.0291
   48MOL   H20011574   6.961   3.089   5.398 -1.2859 -0.5267 -2.1854
   48MOL   H20111575   6.934   3.158   5.562 -0.7856  0.0281 -0.1851
   48MOL   H20211576   6.697   3.078   5.559 -0.5373 -1.6089  0.4983
   48MOL   H20311577   6.743   2.902   5.104 -1.2796 -1.8873 -1.5200
   48MOL   H20411578   6.627   2.797   5.202  0.4656  0.0171 -0.4696
   48MOL   H20511579   6.802   2.753   5.164  0.9671  0.2257 -1.9404
   48MOL   C20611580   6.820   2.909   5.599 -0.4880 -0.0280  0.2178
   48MOL   C20711581   6.857   2.951   5.747  0.8224 -1.2425  0.2904
   48MOL   C20811582   6.742   3.035   5.816  0.5884  0.1404 -0.7444
   48MOL   O20911583   6.624   3.026   5.789  0.1441 -0.3751  0.0066
   48MOL   O21011584   6.796   3.105   5.922  0.2202  0.0493  0.0279
   48MOL   C21111585   6.718   3.195   5.991  0.1338  0.4443 -0.4400
   48MOL   H21211586   6.738   2.839   5.613  1.9184 -2.6551  1.6797
   48MOL   H21311587   6.897   2.843   5.557  0.4537  1.4812 -0.4962
   48MOL   H21411588   6.933   3.029   5.752 -1.6625  1.3140 -0.3197
   48MOL   H21511589   6.663   3.128   6.057 -0.1339  0.5182 -0.5860
   48MOL   H21611590   6.644   3.255   5.937  0.2255  0.9216 -0.0293
   48MOL   H21711591   6.774   3.252   6.064  1.4544 -1.6669  0.2333
   48MOL   C21811592   6.909   2.845   5.839  0.0387  0.7102 -0.2878
   48MOL   C21911593   6.820   2.716   5.865 -0.2086  0.0735 -0.0306
   48MOL   C22011594   6.825   2.615   5.748 -0.0680  0.1678  0.0957
   48MOL   O22111595   6.937   2.584   5.693  0.2555  0.0614  0.8765
   48MOL   O22211596   6.708   2.583   5.690 -0.1856 -0.7117 -0.1068
   48MOL   C22311597   6.718   2.507   5.565  0.4720  0.2256 -0.4029
   48MOL   H22411598   7.002   2.809   5.796  0.5118  0.2875  1.0638
   48MOL   H22511599   6.928   2.895   5.933  2.8623  2.6543 -1.8155
   48MOL   H22611600   6.717   2.750   5.858  0.0434  0.6861 -0.6802
   48MOL   H22711601   6.805   2.442   5.575  1.6828  1.9231  0.3567
   48MOL   H22811602   6.736   2.576   5.483  1.9302 -1.3570 -1.4623
   48MOL   H22911603   6.632   2.444   5.544 -0.1466 -0.4131  3.5667
   48MOL   C23011604   6.845   2.634   6.004  0.4982 -0.3380  0.1612
   48MOL   C23111605   6.726   2.546   6.055  0.6726  0.0255  0.7004
   48MOL   C23211606   6.670   2.438   5.969 -0.2717  0.4167  0.6109
   48MOL   O23311607   6.744   2.346   5.935  0.0224  0.3053  0.1947
   48MOL   O23411608   6.540   2.436   5.948  0.1168 -0.2943  0.3244
   48MOL   C23511609   6.482   2.335   5.868  0.0065  0.5460 -0.1821
   48MOL   H23611610   6.931   2.568   5.996  2.5406  2.1276  1.2259
   48MOL   H23711611   6.870   2.705   6.083 -1.3020  0.3377  0.1465
   48MOL   H23811612   6.643   2.618   6.056 -0.3852 -1.1617 -0.4577
   48MOL   H23911613   6.539   2.245   5.843 -1.7406 -0.1414 -1.7755
   48MOL   H24011614   6.446   2.390   5.781  1.1434  1.0891 -0.3193
   48MOL   H24111615   6.403   2.296   5.933 -1.9358  0.3677 -2.5834
   48MOL   H24211616   6.733   2.514   6.159  1.0278  1.7535  1.2306
   49MOL     C111617   1.330   4.901   0.438 -0.2637  0.6405 -0.3668
   49MOL     C211618   1.334   4.959   0.302 -0.3450  0.5717  0.2153
   49MOL     C311619   1.193   4.971   0.249  0.2539  0.4171  0.5913
   49MOL     O411620   1.143   4.878   0.183 -0.1108  0.0272 -0.7446
   49MOL     O511621   1.135   5.086   0.290 -0.2085 -0.1428  0.3524
   49MOL     C611622   0.999   5.106   0.256 -0.5368  0.6825  0.5033
   49MOL     H711623   1.432   4.869   0.461 -0.6529  0.3318  1.0258
   49MOL     H811624   1.269   4.810   0.438  0.6289  0.0177 -2.3105
   49MOL     H911625   1.386   4.889   0.237 -1.6823 -0.7865  0.5670
   49MOL    H1011626   0.988   5.212   0.280 -0.3333  0.5117  1.3668
   49MOL    H1111627   0.929   5.045   0.313 -1.0718 -0.5464 -1.4386
   49MOL    H1211628   0.980   5.092   0.150 -1.4872  1.2523  0.5902
   49MOL    H1311629   1.282   4.964   0.513 -1.0315 -2.0433  1.5158
   49MOL    C1411630   1.428   5.081   0.294  0.0358 -0.8592  0.2504
   49MOL    C1511631   1.478   5.150   0.163  0.5126  0.8652  0.5906
   49MOL    C1611632   1.373   5.180   0.053  0.9329 -0.3107 -0.1319
   49MOL    O1711633   1.391   5.127   7.874  0.5252 -0.5855  0.2631
   49MOL    O1811634   1.271   5.267   0.088 -0.0304 -0.3941 -0.3962
   49MOL    C1911635   1.169   5.278   7.923 -0.5298  0.6824  0.2681
   49MOL    H2011636   1.380   5.153   0.361 -0.1533 -0.6749 -0.0790
   49MOL    H2111637   1.517   5.046   0.346 -1.2401 -3.9434  0.4237
   49MOL    H2211638   1.547   5.083   0.113 -2.0908  0.1104 -2.1391
   49MOL    H2311639   1.116   5.183   7.911  0.2096  0.5145 -1.9071
   49MOL    H2411640   1.206   5.295   7.822  0.1298  0.3273  0.4478
   49MOL    H2511641   1.100   5.358   0.016 -0.1008  0.8682  0.8380
   49MOL    C2611642   1.565   5.274   0.200 -0.3787 -0.3530  0.2221
   49MOL    C2711643   1.705   5.257   0.266  0.1165  0.2251 -0.1030
   49MOL    C2811644   1.812   5.197   0.172 -0.5539  0.1515  0.0976
   49MOL    O2911645   1.897   5.114   0.213 -0.1550 -0.2440 -0.0180
   49MOL    O3011646   1.819   5.261   0.058 -0.2392  0.0161 -0.3975
   49MOL    C3111647   1.929   5.239   7.913 -0.1382  0.4206  0.0478
   49MOL    H3211648   1.584   5.318   0.102 -1.4044 -0.0742  0.1430
   49MOL    H3311649   1.502   5.340   0.259  0.3568 -0.5890  1.2797
   49MOL    H3411650   1.690   5.181   0.343  0.5077  0.4519  0.1973
   49MOL    H3511651   1.931   5.135   7.880 -1.9289  0.8233 -1.4290
   49MOL    H3611652   2.019   5.265   0.036  0.5008  2.4808 -1.8126
   49MOL    H3711653   1.931   5.308   7.828  0.0269 -0.9864 -1.1047
   49MOL    C3811654   1.748   5.387   0.335 -0.8087 -0.6374 -0.1689
   49MOL    C3911655   1.799   5.506   0.247 -0.2478 -0.4612  0.0438
   49MOL    C4011656   1.689   5.576   0.166  0.1543 -0.2608  0.2842
   49MOL    O4111657   1.681   5.562   0.038 -0.0888 -0.1214  0.3231
   49MOL    O4211658   1.604   5.652   0.244  0.5402 -0.3740  0.0100
   49MOL    C4311659   1.514   5.743   0.188 -0.9361 -0.0390 -0.5666
   49MOL    H4411660   1.663   5.427   0.390  0.6875  1.6925  0.5485
   49MOL    H4511661   1.824   5.368   0.412 -1.1235  0.8843  0.5395
   49MOL    H4611662   1.857   5.466   0.164  0.1422  0.7040 -0.2508
   49MOL    H4711663   1.542   5.755   0.083 -0.1938  1.9873 -0.1500
   49MOL    H4811664   1.523   5.835   0.245  2.1627 -1.1496  0.8708
   49MOL    H4911665   1.412   5.705   0.197 -0.5201 -1.1605 -0.5181
   49MOL    C5011666   1.895   5.601   0.318  0.4750 -0.1256  0.1397
   49MOL    C5111667   2.036   5.534   0.326  0.0048 -1.2895 -0.2732
   49MOL    C5211668   2.118   5.527   0.191 -0.1922 -0.4352  0.3178
   49MOL    O5311669   2.119   5.626   0.115  0.5245 -0.1783 -0.2703
   49MOL    O5411670   2.180   5.410   0.178  0.6791 -0.3326  0.4269
   49MOL    C5511671   2.254   5.398   0.057  0.0168 -0.1773 -0.8355
   49MOL    H5611672   1.893   5.698   0.267 -1.6888 -0.6451 -0.8438
   49MOL    H5711673   1.846   5.613   0.414 -1.4390 -0.4843 -0.7651
   49MOL    H5811674   2.029   5.430   0.356  0.1723 -0.8220  1.4371
   49MOL    H5911675   2.357   5.425   0.077 -0.3581 -0.6052  1.8754
   49MOL    H6011676   2.218   5.442   7.896 -0.3525 -0.5152 -0.8537
   49MOL    H6111677   2.269   5.293   0.031  2.0395  0.4699 -2.4792
   49MOL    C6211678   2.119   5.615   0.425  0.0469  0.5970 -0.3421
   49MOL    C6311679   2.263   5.558   0.452  0.1810  0.0317  0.7522
   49MOL    C6411680   2.361   5.679   0.472  0.3695 -0.0718 -0.0614
   49MOL    O6511681   2.377   5.729   0.582  0.4386  0.1232 -0.1802
   49MOL    O6611682   2.411   5.725   0.356  0.8897 -0.3674 -0.5247
   49MOL    C6711683   2.486   5.841   0.356 -0.2354  0.2483  0.6445
   49MOL    H6811684   2.121   5.714   0.380  1.6049  0.9387  0.4791
   49MOL    H6911685   2.065   5.616   0.519  3.4627 -1.2202  1.7379
   49MOL    H7011686   2.295   5.516   0.357 -0.7903 -0.3872  0.6035
   49MOL    H7111687   2.536   5.837   0.259  0.7264  1.4634  1.0695
   49MOL    H7211688   2.560   5.850   0.435  0.3646  2.9685 -0.1594
   49MOL    H7311689   2.412   5.922   0.362  0.1733  0.6378  0.4071
   49MOL    C7411690   2.265   5.458   0.569 -0.7180 -0.1689  0.7937
   49MOL    C7511691   2.404   5.391   0.591 -0.3620  0.5912 -0.2026
   49MOL    C7611692   2.430   5.347   0.731 -0.4356 -0.1440  0.0666
   49MOL    O7711693   2.341   5.295   0.797 -0.4621 -0.4661 -0.3599
   49MOL    O7811694   2.550   5.380   0.777 -0.1022  0.3368 -0.4756
   49MOL    C7911695   2.572   5.366   0.913 -0.5123  0.0137  0.0763
   49MOL    H8011696   2.238   5.507   0.663  2.9784 -0.3188  2.0194
   49MOL    H8111697   2.185   5.386   0.552 -0.3532 -0.2076 -0.8834
   49MOL    H8211698   2.477   5.470   0.569 -0.3342  1.3548  2.3735
   49MOL    H8311699   2.676   5.395   0.931 -0.2702 -0.5968 -0.3284
   49MOL    H8411700   2.552   5.263   0.943  0.1616  0.2441  1.3474
   49MOL    H8511701   2.505   5.438   0.960  0.8422 -0.0615  2.2166
   49MOL    C8611702   2.439   5.274   0.490 -0.6439  0.1220  0.8966
   49MOL    C8711703   2.590   5.240   0.459 -0.5019  0.3156 -1.1292
   49MOL    C8811704   2.662   5.358   0.391 -0.7772  0.3880 -0.1163
   49MOL    O8911705   2.784   5.375   0.395 -0.0431 -0.2413 -0.0549
   49MOL    O9011706   2.584   5.430   0.313 -0.2479 -0.1606  0.1172
   49MOL    C9111707   2.646   5.519   0.216 -0.1090  0.2173 -0.0125
   49MOL    H9211708   2.408   5.180   0.535 -1.3398 -0.3664 -0.5771
   49MOL    H9311709   2.394   5.289   0.392  1.9493 -0.2489 -0.3889
   49MOL    H9411710   2.568   5.170   0.378 -1.6217  1.3504 -1.7490
   49MOL    H9511711   2.698   5.456   0.143 -0.8871 -1.2857  0.7029
   49MOL    H9611712   2.707   5.599   0.258 -0.4803  0.8715 -0.6925
   49MOL    H9711713   2.571   5.571   0.156 -0.6123 -0.8858 -0.3606
   49MOL    C9811714   2.680   5.166   0.572  0.1750 -0.3765  0.5341
   49MOL    C9911715   2.768   5.043   0.539  0.9332 -0.2016  0.2471
   49MOL   C10011716   2.682   4.918   0.550 -0.3960 -0.1149  0.1643
   49MOL   O10111717   2.684   4.851   0.653 -0.1829 -0.1658 -0.0659
   49MOL   O10211718   2.603   4.897   0.439  0.3998 -0.0710  0.3468
   49MOL   C10311719   2.538   4.771   0.424  0.2530 -0.4501  0.5599
   49MOL   H10411720   2.734   5.244   0.625 -0.6970  2.0268 -1.9478
   49MOL   H10511721   2.604   5.141   0.646 -1.1100  2.0530  0.1113
   49MOL   H10611722   2.827   5.036   0.630 -0.2787  0.3169  1.0875
   49MOL   H10711723   2.609   4.689   0.437 -0.5390 -1.1350  0.6615
   49MOL   H10811724   2.478   4.752   0.335 -1.2352  0.0723  1.4383
   49MOL   H10911725   2.471   4.748   0.507  1.4975  0.7995  1.9429
   49MOL   C11011726   2.861   5.060   0.420 -0.0893  0.4169 -0.6521
   49MOL   C11111727   2.951   4.947   0.381 -0.6260  0.1336  0.4867
   49MOL   C11211728   2.978   4.936   0.227 -0.1430 -0.0020  0.3145
   49MOL   O11311729   2.937   4.841   0.158  0.2066 -0.5482  0.0622
   49MOL   O11411730   3.038   5.049   0.182  0.4047  0.3423  0.3784
   49MOL   C11511731   3.048   5.065   0.041  0.3234  0.0462  0.4631
   49MOL   H11611732   2.798   5.080   0.333 -2.0404 -0.6834  0.4639
   49MOL   H11711733   2.918   5.150   0.442 -0.1651  0.8852 -2.3035
   49MOL   H11811734   2.898   4.855   0.406  1.6940 -1.1759  0.7566
   49MOL   H11911735   3.126   4.993   0.017  0.3554 -0.3320  1.6586
   49MOL   H12011736   3.083   5.162   0.007 -0.6324  0.0934 -0.4216
   49MOL   H12111737   2.958   5.024   7.929  1.9905 -1.6649 -1.4547
   49MOL   C12211738   3.085   4.951   0.459  0.7149  0.1894  0.4778
   49MOL   C12311739   3.072   4.896   0.609 -0.3843  0.1441  0.3139
   49MOL   C12411740   3.023   4.753   0.634  1.0372 -0.6796  0.4183
   49MOL   O12511741   3.024   4.665   0.545  0.3673  0.1064 -0.3662
   49MOL   O12611742   2.981   4.736   0.760 -0.0890 -0.3570  0.1936
   49MOL   C12711743   2.897   4.624   0.791 -0.2367 -0.1667  0.2097
   49MOL   H12811744   3.166   4.894   0.412  1.3592  0.1797  1.5869
   49MOL   H12911745   3.127   5.051   0.462 -1.3661  1.0456  1.7975
   49MOL   H13011746   3.002   4.967   0.654 -0.9135  0.5491 -1.1148
   49MOL   H13111747   2.945   4.529   0.767  0.3815 -0.0108  0.8141
   49MOL   H13211748   2.803   4.643   0.739  1.0351  1.8167 -1.4167
   49MOL   H13311749   2.870   4.620   0.896  0.1144  1.0270  0.3578
   49MOL   C13411750   3.204   4.942   0.692 -0.0723 -0.4832  0.3547
   49MOL   C13511751   3.219   5.098   0.724  0.3972  0.3276  0.1893
   49MOL   C13611752   3.105   5.145   0.816 -0.1372 -0.0546  0.4065
   49MOL   O13711753   3.084   5.091   0.924  0.2660 -0.3332  0.2866
   49MOL   O13811754   3.026   5.244   0.766  0.0255  0.2211 -0.5432
   49MOL   C13911755   2.930   5.312   0.848 -0.1160  0.1061  0.9623
   49MOL   H14011756   3.214   4.893   0.789  0.4093 -0.7358  0.1784
   49MOL   H14111757   3.288   4.914   0.629 -0.0353 -0.6035  0.4580
   49MOL   H14211758   3.227   5.162   0.637 -0.1243 -2.2906 -1.8435
   49MOL   H14311759   2.836   5.257   0.843  0.9099 -1.9204  2.9562
   49MOL   H14411760   2.924   5.415   0.813  1.8284 -0.3192 -0.6960
   49MOL   H14511761   2.961   5.321   0.952  0.1208 -0.8696  0.9823
   49MOL   C14611762   3.359   5.125   0.793 -0.4110  0.0036  0.2199
   49MOL   C14711763   3.393   5.268   0.833  0.0536 -0.1387 -0.5192
   49MOL   C14811764   3.330   5.305   0.972 -0.3858 -1.1089  0.6824
   49MOL   O14911765   3.244   5.393   0.990  0.0862  0.2312  0.2335
   49MOL   O15011766   3.378   5.228   1.070  0.3538 -0.0997 -0.0844
   49MOL   C15111767   3.325   5.239   1.199  0.1346 -0.0096 -0.8813
   49MOL   H15211768   3.366   5.050   0.872  0.1117  0.8349  0.9694
   49MOL   H15311769   3.434   5.080   0.728  0.4838  1.2675  0.3840
   49MOL   H15411770   3.336   5.328   0.761 -2.1602 -1.7523 -0.1800
   49MOL   H15511771   3.365   5.330   1.244  1.0454 -0.2882 -1.1229
   49MOL   H15611772   3.353   5.151   1.257 -0.6185  0.7869  0.7313
   49MOL   H15711773   3.216   5.240   1.213  0.3616 -1.4552  1.3896
   49MOL   C15811774   3.538   5.313   0.832  0.2908  0.0822  0.8378
   49MOL   C15911775   3.622   5.297   0.699 -0.3310  0.1427 -1.0940
   49MOL   C16011776   3.610   5.422   0.613  0.3186  0.6731  0.3797
   49MOL   O16111777   3.547   5.422   0.511 -0.1055  0.0312  0.0501
   49MOL   O16211778   3.658   5.534   0.670 -0.1841  0.1292  0.4288
   49MOL   C16311779   3.645   5.665   0.615 -0.3744 -0.5801  0.1254
   49MOL   H16411780   3.550   5.413   0.875 -0.1199  0.6238 -0.2899
   49MOL   H16511781   3.578   5.243   0.905  1.0648 -0.3111  0.0474
   49MOL   H16611782   3.579   5.215   0.642  2.7983 -2.2316 -0.1704
   49MOL   H16711783   3.551   5.666   0.560 -0.9435  0.2597  1.1146
   49MOL   H16811784   3.722   5.669   0.537  0.4347 -2.3665  0.8045
   49MOL   H16911785   3.652   5.748   0.685 -2.6757  0.4903 -0.8870
   49MOL   C17011786   3.777   5.268   0.737  0.0502 -0.2586  0.1961
   49MOL   C17111787   3.873   5.295   0.616 -0.2379 -0.0466  0.1509
   49MOL   C17211788   4.021   5.315   0.657  0.1059  0.6446 -0.0481
   49MOL   O17311789   4.070   5.428   0.647  0.1583  0.3063  0.1394
   49MOL   O17411790   4.075   5.205   0.699  0.2989 -0.1304  0.2517
   49MOL   C17511791   4.211   5.203   0.726 -0.1213 -0.2321  0.1145
   49MOL   H17611792   3.813   5.337   0.813 -1.1271 -0.6460  1.1208
   49MOL   H17711793   3.786   5.170   0.785  2.1703  0.3226  1.0653
   49MOL   H17811794   3.860   5.399   0.585  0.5981  0.7276  2.2683
   49MOL   H17911795   4.253   5.180   0.628 -0.9349 -0.5583 -0.1610
   49MOL   H18011796   4.239   5.112   0.780 -1.2579 -1.6214 -1.6117
   49MOL   H18111797   4.251   5.297   0.763  0.5263  0.4338 -2.2212
   49MOL   C18211798   3.857   5.210   0.488  0.7868  0.3171  0.8248
   49MOL   C18311799   3.869   5.059   0.503 -0.3760  0.5563 -0.0752
   49MOL   C18411800   3.736   4.987   0.523 -0.4434  0.0347  0.4479
   49MOL   O18511801   3.653   4.984   0.427 -0.3377  0.2619 -0.6071
   49MOL   O18611802   3.715   4.939   0.642 -0.6381  0.3544 -0.1508
   49MOL   C18711803   3.600   4.861   0.665 -0.5925  0.4357 -0.0874
   49MOL   H18811804   3.768   5.239   0.432  1.0412 -0.0032  0.2493
   49MOL   H18911805   3.930   5.235   0.412 -3.0313  1.7148 -2.5392
   49MOL   H19011806   3.927   5.048   0.595 -1.9203 -1.8637  0.6610
   49MOL   H19111807   3.572   4.868   0.770  1.8857  1.2261  0.5505
   49MOL   H19211808   3.630   4.757   0.650 -0.0517  0.6753 -0.7035
   49MOL   H19311809   3.518   4.884   0.598 -0.3065 -1.3172 -1.0715
   49MOL   C19411810   3.954   5.000   0.388  0.1486 -0.0927  0.1057
   49MOL   C19511811   3.995   4.848   0.404  0.0368  0.3143  0.5291
   49MOL   C19611812   4.064   4.792   0.273 -0.0073  0.0602  0.7648
   49MOL   O19711813   4.105   4.875   0.188 -0.3600 -0.1187 -0.6008
   49MOL   O19811814   4.065   4.658   0.264 -0.2780 -0.1805  0.0479
   49MOL   C19911815   4.098   4.600   0.144 -1.3399 -0.2516 -0.3346
   49MOL   H20011816   3.892   5.019   0.300 -0.3283  1.4229  0.7591
   49MOL   H20111817   4.044   5.062   0.378  0.2631 -0.1862  0.5479
   49MOL   H20211818   3.906   4.786   0.413  0.7116 -0.4973  1.6496
   49MOL   H20311819   4.024   4.635   0.073  0.0060  1.4878 -0.9118
   49MOL   H20411820   4.093   4.494   0.168 -2.0474 -0.1883 -0.1947
   49MOL   H20511821   4.201   4.626   0.119 -1.4192  0.2763 -0.1171
   49MOL   C20611822   4.090   4.825   0.524  0.6492  0.3204 -0.1750
   49MOL   C20711823   4.020   4.755   0.649  0.0928 -0.1259  1.2509
   49MOL   C20811824   3.974   4.609   0.608 -0.1335 -0.3144  0.0897
   49MOL   O20911825   3.857   4.576   0.617  0.7866  0.1214  0.0817
   49MOL   O21011826   4.076   4.528   0.577 -0.0723 -0.4625 -0.3151
   49MOL   C21111827   4.039   4.399   0.532 -0.4249 -1.2126 -0.0045
   49MOL   H21211828   4.160   4.745   0.497  1.2618  1.2592 -1.3928
   49MOL   H21311829   4.143   4.918   0.545 -2.1506  2.2219 -1.2580
   49MOL   H21411830   3.930   4.813   0.666 -0.1368 -0.2893  0.5991
   49MOL   H21511831   3.956   4.363   0.592 -1.5691 -0.6381 -1.2193
   49MOL   H21611832   4.118   4.324   0.540  0.3016 -0.6648 -1.7139
   49MOL   H21711833   4.020   4.396   0.425  0.1630  1.2834 -0.2159
   49MOL   C21811834   4.102   4.770   0.775 -0.5562  0.0525 -0.2979
   49MOL   C21911835   4.030   4.721   0.900  0.7329  0.1118  0.1819
   49MOL   C22011836   4.131   4.696   1.016 -0.8994  0.0478 -0.5913
   49MOL   O22111837   4.139   4.585   1.074 -0.2458 -0.0975  0.2072
   49MOL   O22211838   4.204   4.801   1.047  0.0130  0.0305  0.4880
   49MOL   C22311839   4.291   4.803   1.156 -0.7628 -0.1276 -0.0784
   49MOL   H22411840   4.202   4.727   0.773  0.2291  1.8861 -2.5006
   49MOL   H22511841   4.121   4.876   0.791 -1.4090  0.1970 -0.2322
   49MOL   H22611842   3.991   4.622   0.876  2.0298 -0.3718  0.0384
   49MOL   H22711843   4.366   4.724   1.161 -1.3386 -0.6557  0.3286
   49MOL   H22811844   4.234   4.800   1.249 -1.2056 -0.6592 -0.3709
   49MOL   H22911845   4.331   4.904   1.165 -0.2367 -0.4569  1.6556
   49MOL   C23011846   3.913   4.818   0.938  0.2882  0.2070  0.3009
   49MOL   C23111847   3.792   4.742   0.990  0.2281 -0.1227 -0.8044
   49MOL   C23211848   3.813   4.669   1.123  0.3475  0.0904 -0.5079
   49MOL   O23311849   3.771   4.554   1.142 -0.5101  0.2245  0.3511
   49MOL   O23411850   3.861   4.740   1.225 -0.0537 -0.4350 -0.0857
   49MOL   C23511851   3.880   4.690   1.361  0.0539  0.0265  0.2882
   49MOL   H23611852   3.943   4.884   1.019  0.2230  1.1229 -0.4066
   49MOL   H23711853   3.891   4.890   0.859 -0.7787  1.0870  1.3870
   49MOL   H23811854   3.760   4.670   0.915 -0.8274  0.4844 -0.9418
   49MOL   H23911855   3.969   4.734   1.406 -1.0452  2.2462  0.3409
   49MOL   H24011856   3.890   4.582   1.354 -1.1125 -0.0956  0.3642
   49MOL   H24111857   3.791   4.731   1.408  1.0768 -1.0917  3.3343
   49MOL   H24211858   3.706   4.808   0.997  0.5649  0.1970  0.5351
   50MOL     C111859   0.075   0.724   5.489 -0.5373  0.1371 -0.4911
   50MOL     C211860   0.092   0.587   5.422 -0.3352 -0.2070  0.7653
   50MOL     C311861   0.066   0.576   5.268 -0.4354 -0.6987 -0.1989
   50MOL     O411862   0.096   0.670   5.197 -0.7038  0.5962 -0.2798
   50MOL     O511863   0.002   0.451   5.232 -0.4674 -0.0080  0.0897
   50MOL     C611864   7.890   0.439   5.104 -0.5228 -0.5540 -0.7278
   50MOL     H711865   0.093   0.720   5.597  2.6751  0.4394 -0.9552
   50MOL     H811866   7.903   0.745   5.471 -0.2560  1.8289 -0.2253
   50MOL     H911867   0.016   0.532   5.477 -0.8562  0.6854  0.9592
   50MOL    H1011868   7.824   0.518   5.068 -2.2067 -0.9342  1.3862
   50MOL    H1111869   7.843   0.341   5.096 -1.2489 -0.2490 -0.2845
   50MOL    H1211870   0.047   0.448   5.044  0.6460  0.4718  1.1343
   50MOL    H1311871   0.139   0.806   5.457  0.1326  0.3798  1.3844
   50MOL    C1411872   0.228   0.522   5.467 -0.3134 -0.2338 -0.3895
   50MOL    C1511873   0.232   0.367   5.442  0.4731  0.5613  0.0004
   50MOL    C1611874   0.365   0.331   5.375 -0.5218  0.3957 -0.2447
   50MOL    O1711875   0.455   0.276   5.438 -0.2628  0.0845  0.1768
   50MOL    O1811876   0.373   0.370   5.249 -0.1802  0.2235 -0.0143
   50MOL    C1911877   0.498   0.354   5.181  0.0449 -0.4503  0.1821
   50MOL    H2011878   0.303   0.574   5.407 -2.1649  0.8564 -1.8468
   50MOL    H2111879   0.259   0.540   5.570 -2.3131  0.3334  0.1401
   50MOL    H2211880   0.146   0.341   5.380  0.9313  0.1968 -0.4910
   50MOL    H2311881   0.505   0.408   5.086  0.4403 -0.7373  0.0435
   50MOL    H2411882   0.512   0.247   5.164  1.0487 -0.2369 -0.3893
   50MOL    H2511883   0.582   0.398   5.235  2.3275 -2.8069 -1.2721
   50MOL    C2611884   0.219   0.297   5.581 -0.1960  0.9216  0.2331
   50MOL    C2711885   0.177   0.148   5.561  0.4850 -0.2821 -0.4549
   50MOL    C2811886   0.225   0.072   5.681 -0.5220  0.0803 -0.1183
   50MOL    O2911887   0.141   0.032   5.766  0.1024  0.0577  0.0321
   50MOL    O3011888   0.354   0.043   5.676  0.3279 -0.4814  0.4294
   50MOL    C3111889   0.414   7.892   5.773  0.2322  0.3029  0.3930
   50MOL    H3211890   0.299   0.319   5.651  1.3366 -2.2499 -0.4066
   50MOL    H3311891   0.135   0.338   5.635 -0.8431  2.1256 -1.6523
   50MOL    H3411892   0.232   0.101   5.479  0.2195 -1.3427 -0.0386
   50MOL    H3511893   0.491   7.838   5.718 -0.4397 -0.4303  0.1632
   50MOL    H3611894   0.354   7.812   5.817  0.9788  0.6465  2.0751
   50MOL    H3711895   0.462   0.015   5.853  0.2782 -0.8987  1.2057
   50MOL    C3811896   0.024   0.126   5.529  1.2345 -0.0448 -0.4346
   50MOL    C3911897   7.933   7.932   5.443 -0.1237 -0.0686 -0.7617
   50MOL    C4011898   7.795   7.878   5.470 -0.3397  0.1688 -0.2217
   50MOL    O4111899   7.714   7.865   5.380 -0.2729  0.6512 -0.4790
   50MOL    O4211900   7.775   7.826   5.589  0.0951 -0.4861 -1.1308
   50MOL    C4311901   7.647   7.819   5.649 -0.0115 -0.1787 -0.3235
   50MOL    H4411902   7.897   0.119   5.619  1.8044 -3.1604 -0.2615
   50MOL    H4511903   7.918   0.211   5.472  0.0451 -0.2328  0.0980
   50MOL    H4611904   0.064   7.863   5.497  0.2527  1.6098  0.9599
   50MOL    H4711905   7.601   7.914   5.678 -0.7583 -0.0828 -1.7790
   50MOL    H4811906   7.645   7.770   5.746 -2.9748  1.8709  0.7461
   50MOL    H4911907   7.577   7.766   5.584 -3.2828  1.4195  1.7480
   50MOL    C5011908   0.036   0.014   5.291 -0.3628  0.2935 -0.3191
   50MOL    C5111909   0.104   7.828   5.221  0.1042  0.1614  0.0443
   50MOL    C5211910   0.247   7.802   5.276  0.2599 -0.1231  0.2304
   50MOL    O5311911   0.275   7.693   5.319 -0.5610  0.6951 -0.0863
   50MOL    O5411912   0.326   7.905   5.253 -0.1036 -0.5153 -0.1097
   50MOL    C5511913   0.459   7.903   5.316 -0.2799  0.3020 -0.0271
   50MOL    H5611914   7.880   0.048   5.239 -1.0688  0.8204  1.1874
   50MOL    H5711915   0.094   0.100   5.257 -0.4019 -0.5521 -2.5839
   50MOL    H5811916   0.123   7.848   5.115 -2.5741 -1.1672 -0.7374
   50MOL    H5911917   0.448   7.893   5.424  0.2093 -1.2402 -0.0989
   50MOL    H6011918   0.504   0.066   5.290  0.4408 -0.2804 -0.9946
   50MOL    H6111919   0.532   7.825   5.294  1.7174  1.7179  1.4529
   50MOL    C6211920   0.012   7.697   5.201  0.5650  0.3734 -0.0754
   50MOL    C6311921   7.823   7.709   5.111 -0.0814 -0.1416 -0.4030
   50MOL    C6411922   7.861   7.735   4.964  0.1828  0.2068 -0.3754
   50MOL    O6511923   7.849   7.849   4.925  0.0616 -0.4014 -0.3557
   50MOL    O6611924   7.902   7.633   4.896 -0.7160  0.0321  0.4768
   50MOL    C6711925   7.910   7.649   4.757 -0.9054  0.3519 -0.2283
   50MOL    H6811926   0.073   7.614   5.165  1.9041  1.1619  0.2994
   50MOL    H6911927   7.915   7.673   5.303  0.3159  0.1332 -0.2039
   50MOL    H7011928   7.763   7.789   5.153 -0.3296  0.0190 -1.0741
   50MOL    H7111929   7.812   7.652   4.710 -0.9827  0.5783 -0.0530
   50MOL    H7211930   0.027   7.563   4.712  0.4767  0.3809  1.1913
   50MOL    H7311931   0.036   7.736   4.728  0.1406  0.1139  1.1077
   50MOL    C7411932   7.736   7.578   5.124 -0.0567 -0.0788  0.2833
   50MOL    C7511933   7.609   7.583   5.028  0.5644  0.4535  0.3361
   50MOL    C7611934   7.567   7.441   4.987 -0.0605 -0.0642 -0.0849
   50MOL    O7711935   7.480   7.383   5.048 -0.3745 -0.3141  0.0956
   50MOL    O7811936   7.639   7.397   4.887  0.1635 -0.2583  0.4058
   50MOL    C7911937   7.623   7.261   4.838  0.7123 -0.3536 -0.0015
   50MOL    H8011938   7.796   7.488   5.115 -0.2030 -0.0078 -1.6146
   50MOL    H8111939   7.708   7.576   5.229  0.2486 -3.7681  0.3544
   50MOL    H8211940   7.631   7.620   4.928  3.8487 -3.5902 -0.5899
   50MOL    H8311941   7.692   7.258   4.753  0.3296 -1.8518 -0.2649
   50MOL    H8411942   7.522   7.253   4.797  0.7400 -1.8099  0.1797
   50MOL    H8511943   7.654   7.174   4.895  2.8593  0.2160 -0.2552
   50MOL    C8611944   7.486   7.658   5.089 -0.0864  0.2460 -0.4490
   50MOL    C8711945   7.368   7.696   4.986 -0.2697 -0.3625  0.4104
   50MOL    C8811946   7.233   7.670   5.057 -0.6809 -0.3823  0.4190
   50MOL    O8911947   7.176   7.753   5.123  0.5253  0.1697 -0.2558
   50MOL    O9011948   7.193   7.536   5.041 -0.6088  0.0226  0.4361
   50MOL    C9111949   7.077   7.490   5.110  0.2282  0.2997 -0.5236
   50MOL    H9211950   7.443   7.595   5.167 -0.7806  2.2165  0.7990
   50MOL    H9311951   7.537   7.744   5.132  1.2178 -0.2360 -1.0207
   50MOL    H9411952   7.375   7.619   4.909 -0.6623  0.2898 -0.2944
   50MOL    H9511953   6.988   7.547   5.085 -0.4041 -0.5401 -0.1842
   50MOL    H9611954   7.098   7.508   5.215  2.5023 -0.0695 -0.8799
   50MOL    H9711955   7.068   7.384   5.085 -3.2236  1.0720 -2.9549
   50MOL    C9811956   7.388   7.839   4.927 -0.4795  0.7213  0.6363
   50MOL    C9911957   7.491   7.842   4.813  0.4168 -0.2773 -0.7885
   50MOL   C10011958   7.451   7.765   4.690 -0.0125 -0.0553 -0.0575
   50MOL   O10111959   7.345   7.774   4.633 -0.2287  0.3910  0.2271
   50MOL   O10211960   7.543   7.673   4.652  0.2651  0.4164  0.0026
   50MOL   C10311961   7.519   7.597   4.530 -0.2590  0.5388  0.1555
   50MOL   H10411962   7.292   7.869   4.887  0.3310  3.0062  0.3304
   50MOL   H10511963   7.414   7.911   5.005  0.2710  0.3639  0.7282
   50MOL   H10611964   7.580   7.786   4.842 -0.4606 -1.8964 -1.2020
   50MOL   H10711965   7.447   7.517   4.547 -0.6079  0.8410  0.1171
   50MOL   H10811966   7.613   7.551   4.502 -0.8908 -1.3932  1.1080
   50MOL   H10911967   7.477   7.661   4.452  0.0991  1.0690  0.3977
   50MOL   C11011968   7.559   0.044   4.782 -0.0002 -0.0398  0.2607
   50MOL   C11111969   7.469   0.156   4.725 -0.6753  0.1510 -0.0416
   50MOL   C11211970   7.415   0.245   4.835 -0.1105 -0.1233  0.8419
   50MOL   O11311971   7.294   0.245   4.868  0.5959  0.1490 -0.4262
   50MOL   O11411972   7.512   0.312   4.899  0.6307  0.1065  0.1125
   50MOL   C11511973   7.487   0.387   5.014  0.5118 -0.2232  0.0510
   50MOL   H11611974   7.616   0.067   4.872 -1.1611 -0.0180  1.0009
   50MOL   H11711975   7.639   0.016   4.714 -0.9283 -3.0546  0.3366
   50MOL   H11811976   7.378   0.106   4.690 -0.5271  0.2787 -0.6219
   50MOL   H11911977   7.565   0.376   5.089 -1.0632 -1.7604  1.5183
   50MOL   H12011978   7.392   0.361   5.061 -0.2312  0.3888 -1.0949
   50MOL   H12111979   7.469   0.492   4.992 -0.6003 -0.0982  1.4315
   50MOL   C12211980   7.531   0.234   4.607 -0.0524  0.7669 -0.4593
   50MOL   C12311981   7.632   0.348   4.629  0.0040  0.1468 -0.0500
   50MOL   C12411982   7.763   0.301   4.698  0.3770 -0.4651  0.0316
   50MOL   O12511983   7.806   0.342   4.811  0.2659 -0.1626  0.5515
   50MOL   O12611984   7.822   0.200   4.629  0.2531  0.1681 -0.4890
   50MOL   C12711985   0.013   0.139   4.674  0.3931  0.0768 -0.0137
   50MOL   H12811986   7.573   0.154   4.546  0.8490 -2.5783  4.2835
   50MOL   H12911987   7.445   0.274   4.554 -0.3202 -1.9001 -2.1776
   50MOL   H13011988   7.585   0.428   4.686 -1.1261  1.3075 -2.5680
   50MOL   H13111989   0.041   0.060   4.604  1.4134  0.9385 -0.5931
   50MOL   H13211990   7.933   0.093   4.772 -0.3787 -1.2370 -0.7158
   50MOL   H13311991   0.093   0.214   4.676  0.1035  0.3959 -0.3989
   50MOL   C13411992   7.662   0.410   4.494  0.5199 -0.4098  0.3683
   50MOL   C13511993   7.706   0.554   4.512 -0.6639 -0.6850 -0.6460
   50MOL   C13611994   7.818   0.594   4.418  0.5046 -0.7509  0.1606
   50MOL   O13711995   7.796   0.665   4.319 -0.1890  0.3354  0.2928
   50MOL   O13811996   7.931   0.526   4.452 -0.1922  0.4378  0.6565
   50MOL   C13911997   0.119   0.555   4.384  0.0253 -0.4921 -0.4556
   50MOL   H14011998   7.742   0.350   4.451  1.7394  1.7844 -0.4912
   50MOL   H14111999   7.577   0.383   4.431 -0.0203 -3.3688  2.2529
   50MOL   H14212000   7.765   0.544   4.603 -1.1415 -0.6456 -0.3279
   50MOL   H14312001   0.168   0.633   4.443  2.0389 -0.7339 -1.7540
   50MOL   H14412002   0.104   0.587   4.281  2.4007 -1.8030 -1.2527
   50MOL   H14512003   0.187   0.470   4.381 -1.0003 -1.2678 -2.2091
   50MOL   C14612004   7.586   0.661   4.514  0.0048  0.0261  0.0377
   50MOL   C14712005   7.613   0.794   4.604  0.4665 -0.9263 -0.4464
   50MOL   C14812006   7.502   0.898   4.571 -0.2886  0.1259 -0.5096
   50MOL   O14912007   7.520   0.982   4.486 -0.2364  0.4008  0.3142
   50MOL   O15012008   7.397   0.882   4.647  0.1821  0.0404 -0.0747
   50MOL   C15112009   7.282   0.962   4.627  0.8487 -0.4409  0.2387
   50MOL   H15212010   7.563   0.688   4.411  0.7191 -1.4131 -0.5100
   50MOL   H15312011   7.491   0.610   4.527  0.0949  0.0207  0.7249
   50MOL   H15412012   7.696   0.851   4.562 -0.4933  2.1024  1.5795
   50MOL   H15512013   7.264   0.993   4.524  0.2376  1.4001  0.8672
   50MOL   H15612014   7.303   1.051   4.688  0.5845 -0.0667 -0.2108
   50MOL   H15712015   7.197   0.914   4.676  1.5848 -1.9968  0.0177
   50MOL   C15812016   7.629   0.748   4.748 -0.5947  0.6381  0.0917
   50MOL   C15912017   7.682   0.863   4.831  0.4808  0.0555  0.1919
   50MOL   C16012018   7.628   0.850   4.977  0.1038  0.3973  0.6891
   50MOL   O16112019   7.585   0.949   5.040 -0.1155 -0.6781 -0.2789
   50MOL   O16212020   7.634   0.727   5.022 -0.2788 -0.0973 -0.0339
   50MOL   C16312021   7.567   0.698   5.142 -0.0990  0.1919  0.3901
   50MOL   H16412022   7.530   0.718   4.785 -0.8878  0.3042 -0.9443
   50MOL   H16512023   7.699   0.664   4.749 -0.7250  0.4932 -1.7011
   50MOL   H16612024   7.633   0.951   4.787 -1.4447 -0.6661  0.8257
   50MOL   H16712025   7.626   0.615   5.180 -1.1131 -1.5274 -1.6725
   50MOL   H16812026   7.462   0.672   5.133 -0.0018  0.4576 -1.7252
   50MOL   H16912027   7.571   0.781   5.213  0.4722  0.8024 -0.3402
   50MOL   C17012028   7.832   0.881   4.815  0.4657  0.1492 -0.3626
   50MOL   C17112029   7.879   1.009   4.883  0.8071  0.1803 -0.1350
   50MOL   C17212030   0.098   0.996   4.885 -0.1750 -0.1506  0.1793
   50MOL   O17312031   0.164   0.994   4.781  0.0592 -0.4212 -0.0184
   50MOL   O17412032   0.147   0.997   5.010  0.0031 -0.1996 -0.7762
   50MOL   C17512033   0.282   0.995   5.034  0.1873 -0.5180  0.1026
   50MOL   H17612034   7.877   0.793   4.860 -1.6287  0.7790  3.1545
   50MOL   H17712035   7.858   0.864   4.711 -0.4152 -4.4254  0.0708
   50MOL   H17812036   7.840   1.010   4.985  1.2289 -0.1143  0.0286
   50MOL   H17912037   0.294   1.023   5.139 -2.1073 -0.0771  0.2759
   50MOL   H18012038   0.336   1.074   4.983 -0.7255 -0.2160 -0.4028
   50MOL   H18112039   0.318   0.899   4.998  1.9262  1.9288 -5.1489
   50MOL   C18212040   7.832   1.139   4.818  0.4494  0.1746 -0.0020
   50MOL   C18312041   7.838   1.259   4.910 -0.0279  0.4269 -0.2497
   50MOL   C18412042   7.889   1.387   4.848  0.3721  0.1140 -0.6015
   50MOL   O18512043   0.078   1.406   4.855 -0.1026 -0.2847 -0.2792
   50MOL   O18612044   7.804   1.456   4.773  0.5005 -0.4470  0.2796
   50MOL   C18712045   7.845   1.573   4.700 -0.5750 -0.4946 -0.4465
   50MOL   H18812046   7.872   1.149   4.717  1.6887  0.1172  0.4767
   50MOL   H18912047   7.730   1.134   4.778  0.6158 -0.4049 -0.3630
   50MOL   H19012048   7.926   1.240   4.971  1.9106  0.7794 -2.8694
   50MOL   H19112049   7.761   1.626   4.656 -1.4694  0.5235  2.3614
   50MOL   H19212050   7.917   1.549   4.622  0.7606  2.8115 -0.3009
   50MOL   H19312051   7.889   1.640   4.774  1.2219 -1.7179 -0.3564
   50MOL   C19412052   7.725   1.291   5.016 -0.9099  0.2485 -0.1115
   50MOL   C19512053   7.587   1.361   4.982 -0.3793  0.2681  0.5870
   50MOL   C19612054   7.514   1.295   4.866 -0.5634  0.0299  0.1941
   50MOL   O19712055   7.483   1.177   4.864  0.5456 -0.0361 -0.2523
   50MOL   O19812056   7.504   1.377   4.757  0.3606 -0.4568 -0.0039
   50MOL   C19912057   7.450   1.324   4.635  0.7044  0.3045  1.6570
   50MOL   H20012058   7.714   1.192   5.062  0.8957  0.8517  1.6943
   50MOL   H20112059   7.781   1.350   5.088  0.7282 -0.3686 -0.8720
   50MOL   H20212060   7.627   1.461   4.961  2.2610 -0.8550  0.0531
   50MOL   H20312061   7.424   1.409   4.573  2.1151 -0.0520  0.5589
   50MOL   H20412062   7.358   1.268   4.655  0.3260  0.1960 -0.3350
   50MOL   H20512063   7.525   1.267   4.581 -2.0474 -1.4736 -0.4326
   50MOL   C20612064   7.501   1.366   5.114 -0.7771 -0.5610 -0.0812
   50MOL   C20712065   7.401   1.481   5.133 -1.1232 -0.1610 -0.0400
   50MOL   C20812066   7.488   1.614   5.152  0.4073 -0.2317  0.1436
   50MOL   O20912067   7.491   1.704   5.069  0.1431 -0.5999  0.2912
   50MOL   O21012068   7.558   1.615   5.275  0.0233  0.0959  0.1680
   50MOL   C21112069   7.617   1.735   5.321 -0.0819  0.3808 -0.2705
   50MOL   H21212070   7.456   1.267   5.123 -0.0301 -0.7775  1.5306
   50MOL   H21312071   7.575   1.360   5.195  1.1491  0.7959 -1.6800
   50MOL   H21412072   7.363   1.448   5.229 -0.8769  2.0533  0.8439
   50MOL   H21512073   7.690   1.722   5.401 -0.2393 -1.4381 -0.4044
   50MOL   H21612074   7.533   1.794   5.358  0.0709 -1.4601  3.3088
   50MOL   H21712075   7.665   1.780   5.235 -0.1484 -0.8195 -0.9423
   50MOL   C21812076   7.287   1.488   5.031  0.1690 -0.4869 -0.5242
   50MOL   C21912077   7.155   1.570   5.058 -0.1152 -0.8437  0.5644
   50MOL   C22012078   7.119   1.551   5.201  0.0614  0.1581 -0.3384
   50MOL   O22112079   7.113   1.641   5.288  0.0596 -0.2493 -0.0450
   50MOL   O22212080   7.105   1.424   5.230 -0.1701  0.1072  0.6356
   50MOL   C22312081   7.034   1.387   5.351 -0.1632 -0.4560  0.0393
   50MOL   H22412082   7.326   1.533   4.940 -0.8885  0.7162 -0.3953
   50MOL   H22512083   7.263   1.386   5.003 -0.7625 -0.3256 -0.3104
   50MOL   H22612084   7.081   1.525   4.993 -0.4695  0.1806  0.2517
   50MOL   H22712085   7.050   1.453   5.437 -1.2258 -2.2582  1.6550
   50MOL   H22812086   7.045   1.284   5.385  0.3619 -1.0647 -1.8997
   50MOL   H22912087   6.929   1.405   5.328  0.0341  1.5086  0.5096
   50MOL   C23012088   7.161   1.722   5.019  0.8610 -0.1598  0.0958
   50MOL   C23112089   7.019   1.792   5.016 -0.7417  0.6255 -0.5888
   50MOL   C23212090   7.038   1.938   4.952 -0.0799 -0.0603 -0.4808
   50MOL   O23312091   6.991   2.037   5.002  0.5411 -0.0226 -0.1749
   50MOL   O23412092   7.093   1.928   4.829 -0.2260  0.1941  0.7129
   50MOL   C23512093   7.107   2.040   4.749  1.3903  0.9197 -0.0871
   50MOL   H23612094   7.226   1.777   5.088  2.8839  0.5428 -2.2883
   50MOL   H23712095   7.202   1.729   4.918  0.7315 -2.7933 -0.1853
   50MOL   H23812096   6.992   1.803   5.121  0.0721 -1.0398 -0.1932
   50MOL   H23912097   7.009   2.063   4.708  2.3928  1.1907 -2.4161
   50MOL   H24012098   7.185   2.030   4.673  0.5615 -1.0637 -0.7098
   50MOL   H24112099   7.132   2.123   4.816  2.0847  0.8257 -0.2226
   50MOL   H24212100   6.950   1.729   4.959  0.7489  0.1197 -1.8749
   51MOL     C112101   6.847   5.715   1.645 -0.0802 -0.5608 -0.1339
   51MOL     C212102   6.727   5.656   1.574  0.0569 -0.2383  0.3128
   51MOL     C312103   6.598   5.647   1.651 -0.4693  0.0959 -0.1026
   51MOL     O412104   6.519   5.740   1.648  0.1722  0.2559  0.5515
   51MOL     O512105   6.589   5.537   1.725 -0.1929 -0.2862 -0.4204
   51MOL     C612106   6.484   5.512   1.809  0.3424  0.0212 -0.1937
   51MOL     H712107   6.821   5.818   1.669 -3.1749 -0.7773 -2.4236
   51MOL     H812108   6.936   5.705   1.583 -0.5350 -1.8649 -0.5879
   51MOL     H912109   6.749   5.550   1.565 -2.5655 -0.6677 -1.6528
   51MOL    H1012110   6.494   5.410   1.846 -0.9988 -0.0411  0.0356
   51MOL    H1112111   6.387   5.522   1.759 -0.1471  0.0612  0.7405
   51MOL    H1212112   6.480   5.578   1.897  1.5488 -1.3114  0.8844
   51MOL    H1312113   6.874   5.673   1.742 -2.8792 -2.6968 -0.2175
   51MOL    C1412114   6.721   5.707   1.434  0.1031  0.3608  0.2136
   51MOL    C1512115   6.824   5.650   1.334 -0.6069  0.2405  0.1879
   51MOL    C1612116   6.819   5.503   1.319 -0.1889 -0.2185 -0.1312
   51MOL    O1712117   6.906   5.428   1.360 -0.4165  0.5999 -0.4008
   51MOL    O1812118   6.699   5.464   1.256  0.0701  0.1241  0.0513
   51MOL    C1912119   6.674   5.328   1.225 -0.4770 -0.0712  0.7178
   51MOL    H2012120   6.619   5.695   1.398 -0.0851  1.8406  0.2399
   51MOL    H2112121   6.754   5.811   1.438  0.0509  0.3132  2.8460
   51MOL    H2212122   6.924   5.674   1.370 -0.9041 -0.4798  1.5528
   51MOL    H2312123   6.694   5.258   1.307 -1.0013 -0.4205  0.5517
   51MOL    H2412124   6.732   5.295   1.139  0.5754  0.0501  1.3687
   51MOL    H2512125   6.570   5.309   1.196 -0.8940  0.8252  1.5915
   51MOL    C2612126   6.819   5.719   1.198  0.1488 -0.1964 -0.5075
   51MOL    C2712127   6.693   5.731   1.101  0.6943  0.3802 -0.2346
   51MOL    C2812128   6.587   5.839   1.159 -0.0126  0.0541 -0.5363
   51MOL    O2912129   6.472   5.809   1.184 -0.0506  0.2060 -0.5681
   51MOL    O3012130   6.639   5.955   1.189  0.0385  0.3280 -0.0662
   51MOL    C3112131   6.559   6.056   1.255  0.1383 -0.1877 -0.0855
   51MOL    H3212132   6.861   5.818   1.219  0.1732 -0.2934 -0.0925
   51MOL    H3312133   6.908   5.684   1.145 -0.1005 -1.0153 -0.3838
   51MOL    H3412134   6.645   5.633   1.098  0.7391  0.2212  2.6863
   51MOL    H3512135   6.460   6.055   1.209  0.9796 -0.7051 -1.9654
   51MOL    H3612136   6.588   6.156   1.223  1.9640 -2.1561 -5.2808
   51MOL    H3712137   6.544   6.044   1.362  0.8357  1.6497  0.2448
   51MOL    C3812138   6.733   5.765   0.954 -0.0231  0.5772 -1.0832
   51MOL    C3912139   6.818   5.654   0.883 -0.2201  0.0058  0.0256
   51MOL    C4012140   6.750   5.517   0.883  0.2154  0.8278  0.3347
   51MOL    O4112141   6.793   5.425   0.954 -0.1089 -0.2751  0.2070
   51MOL    O4212142   6.638   5.512   0.816 -0.2172  0.3672  0.4477
   51MOL    C4312143   6.558   5.394   0.826  0.0738  0.3723 -0.2512
   51MOL    H4412144   6.637   5.783   0.904 -0.5335 -0.0693 -0.3425
   51MOL    H4512145   6.791   5.857   0.953  1.5337 -0.3762  0.6672
   51MOL    H4612146   6.907   5.637   0.943 -0.6177 -0.4662  0.4868
   51MOL    H4712147   6.604   5.301   0.796 -1.2929 -0.7425  1.0088
   51MOL    H4812148   6.467   5.417   0.770  0.1511  1.1519 -0.0703
   51MOL    H4912149   6.528   5.371   0.929  1.5279 -0.0467  0.0853
   51MOL    C5012150   6.871   5.695   0.743  0.1685 -0.4922  0.0446
   51MOL    C5112151   7.005   5.633   0.713 -0.8533 -0.1266  0.3399
   51MOL    C5212152   7.009   5.596   0.558  0.3675  0.2528 -0.3986
   51MOL    O5312153   7.046   5.480   0.520  0.3430 -0.0592  0.2660
   51MOL    O5412154   6.992   5.708   0.469  0.2632 -0.1386 -0.5348
   51MOL    C5512155   7.008   5.689   0.332 -0.4702 -0.6492 -0.0031
   51MOL    H5612156   6.797   5.663   0.669 -1.0592  1.0672  0.5716
   51MOL    H5712157   6.881   5.804   0.734  1.4110 -0.6071 -0.1057
   51MOL    H5812158   7.011   5.540   0.770  0.4018  0.8278  1.8317
   51MOL    H5912159   7.022   5.789   0.290 -1.1290  0.7831  3.0228
   51MOL    H6012160   6.916   5.644   0.295 -0.2081 -2.6678  1.7262
   51MOL    H6112161   7.096   5.628   0.313  0.1287  0.2696 -0.2337
   51MOL    C6212162   7.129   5.729   0.728 -0.3087 -0.2138  0.7560
   51MOL    C6312163   7.161   5.765   0.869  0.4020  0.1441 -0.6520
   51MOL    C6412164   7.198   5.646   0.964  0.0741 -0.0106  0.5752
   51MOL    O6512165   7.205   5.528   0.927 -0.1919  0.3645 -0.0539
   51MOL    O6612166   7.221   5.690   1.089 -0.0555  0.0299  0.5513
   51MOL    C6712167   7.242   5.585   1.185  0.7406 -0.4929 -0.2231
   51MOL    H6812168   7.212   5.682   0.675 -0.2944 -0.1515  0.7231
   51MOL    H6912169   7.118   5.827   0.683 -0.0961 -0.0352  1.0868
   51MOL    H7012170   7.066   5.795   0.914  0.9307  0.8074  0.0522
   51MOL    H7112171   7.162   5.510   1.179  0.2721 -0.0341  0.1998
   51MOL    H7212172   7.246   5.635   1.282  0.7301 -0.0786 -0.4380
   51MOL    H7312173   7.341   5.541   1.175  0.6992 -0.5877 -0.2227
   51MOL    C7412174   7.249   5.893   0.887 -0.4782 -0.0949 -0.2922
   51MOL    C7512175   7.396   5.896   0.842  0.2676 -0.3866  0.1472
   51MOL    C7612176   7.390   5.951   0.699 -0.9617  0.1421  0.4691
   51MOL    O7712177   7.405   5.880   0.597 -0.0168 -0.1525 -0.1174
   51MOL    O7812178   7.358   6.078   0.693 -0.6275  0.0244 -0.2850
   51MOL    C7912179   7.352   6.145   0.566  0.3677  0.3997  0.3524
   51MOL    H8012180   7.187   5.983   0.877 -1.8508 -1.0626 -0.6503
   51MOL    H8112181   7.256   5.915   0.994  1.4131  0.2017 -0.4618
   51MOL    H8212182   7.432   5.794   0.829 -0.3075 -0.4395 -1.1548
   51MOL    H8312183   7.435   6.133   0.497 -2.6757  0.9970 -3.5623
   51MOL    H8412184   7.335   6.248   0.596 -1.7477 -0.1283  1.0831
   51MOL    H8512185   7.269   6.104   0.509  1.1991 -0.6359 -0.1448
   51MOL    C8612186   7.491   5.971   0.935  0.1300  0.1799 -0.4775
   51MOL    C8712187   7.530   5.899   1.072  0.1163  1.2238 -0.1257
   51MOL    C8812188   7.620   5.780   1.051  0.5144 -0.0548 -1.0889
   51MOL    O8912189   7.734   5.781   1.098  0.1431 -0.2689  0.4343
   51MOL    O9012190   7.553   5.676   0.999  0.9113 -0.4413  0.0164
   51MOL    C9112191   7.627   5.560   0.978 -0.6550 -0.2370 -0.6531
   51MOL    H9212192   7.581   6.002   0.881  0.6819 -0.0747  0.2859
   51MOL    H9312193   7.435   6.060   0.961 -1.8127 -0.5857 -1.9033
   51MOL    H9412194   7.442   5.853   1.118  1.0671 -1.0152 -0.4723
   51MOL    H9512195   7.552   5.481   0.969 -0.6880 -0.0327 -2.2945
   51MOL    H9612196   7.683   5.528   1.066 -1.8323 -1.6150 -0.3734
   51MOL    H9712197   7.688   5.543   0.889  0.4069  1.9696 -0.3701
   51MOL    C9812198   7.589   5.992   1.180 -0.0222 -0.0190 -0.3621
   51MOL    C9912199   7.595   5.930   1.322  0.5422 -0.0600  0.0617
   51MOL   C10012200   7.711   5.973   1.407 -0.2879  0.0053 -0.2953
   51MOL   O10112201   7.784   6.071   1.377  0.2342 -0.2405  0.7700
   51MOL   O10212202   7.709   5.907   1.524 -0.5383  0.2872 -0.0510
   51MOL   C10312203   7.817   5.927   1.625  0.2573 -0.0846  0.1135
   51MOL   H10412204   7.692   6.020   1.157 -0.4094  1.7401 -0.0303
   51MOL   H10512205   7.535   6.086   1.184 -0.5793 -0.3597  0.5681
   51MOL   H10612206   7.615   5.825   1.299  1.6827  0.4660 -1.4551
   51MOL   H10712207   7.887   5.844   1.616  0.4004  0.2214 -1.6126
   51MOL   H10812208   7.784   5.931   1.729  0.1584  1.2845  0.0429
   51MOL   H10912209   7.868   6.019   1.596  0.7590 -0.9313 -1.7515
   51MOL   C11012210   7.459   5.929   1.409  0.7032 -0.3374  0.2471
   51MOL   C11112211   7.386   6.062   1.448  0.2073  0.2699 -0.1965
   51MOL   C11212212   7.331   6.156   1.335 -0.0520  0.0500 -0.7308
   51MOL   O11312213   7.368   6.276   1.327  0.3738 -0.2237  0.1447
   51MOL   O11412214   7.252   6.095   1.242 -0.5458 -0.5535 -0.3929
   51MOL   C11512215   7.202   6.165   1.133 -0.2322  0.2291  0.5100
   51MOL   H11612216   7.389   5.864   1.356 -1.3922  1.4714  0.7573
   51MOL   H11712217   7.474   5.878   1.504  0.6670  0.9794  0.9706
   51MOL   H11812218   7.459   6.130   1.493 -0.2777  0.7856 -0.1800
   51MOL   H11912219   7.164   6.263   1.162  0.7240  0.6535  0.3411
   51MOL   H12012220   7.122   6.104   1.093  0.8942 -0.4027 -0.8124
   51MOL   H12112221   7.285   6.184   1.065  1.2026 -0.1455  2.1279
   51MOL   C12212222   7.258   6.028   1.537  0.9279 -0.2372 -0.0401
   51MOL   C12312223   7.216   6.143   1.629 -0.0388  0.2864  0.0212
   51MOL   C12412224   7.070   6.117   1.666 -0.5431 -0.3843 -0.1221
   51MOL   O12512225   7.036   6.038   1.748  0.3181 -0.1027  0.5684
   51MOL   O12612226   6.998   6.192   1.588  0.3137 -0.3220  0.1639
   51MOL   C12712227   6.857   6.178   1.595  0.2801 -0.1383 -0.9886
   51MOL   H12812228   7.175   6.010   1.469  0.7853 -0.1949  0.1237
   51MOL   H12912229   7.272   5.938   1.596 -0.2377 -0.1528  0.3674
   51MOL   H13012230   7.220   6.242   1.584  0.3182  0.1769 -0.1925
   51MOL   H13112231   6.811   6.233   1.678 -1.6179 -1.2989 -1.2406
   51MOL   H13212232   6.828   6.074   1.608  0.4405  0.1049  1.5078
   51MOL   H13312233   6.815   6.214   1.501 -2.9995  2.6621  1.3889
   51MOL   C13412234   7.305   6.142   1.754 -0.5953 -0.0138 -0.3020
   51MOL   C13512235   7.336   6.279   1.817 -0.1810 -0.4092  0.1612
   51MOL   C13612236   7.423   6.366   1.723 -0.6417  0.3634  1.0341
   51MOL   O13712237   7.379   6.464   1.663 -0.0712  0.0179  0.0737
   51MOL   O13812238   7.547   6.311   1.690  0.3967 -0.7226  0.2646
   51MOL   C13912239   7.615   6.376   1.581  0.0068 -0.8021 -0.2056
   51MOL   H14012240   7.253   6.079   1.826 -0.5538  0.8052  0.4529
   51MOL   H14112241   7.400   6.090   1.742  1.2787  3.2313 -0.3052
   51MOL   H14212242   7.392   6.260   1.908  1.1094 -2.5804 -1.0493
   51MOL   H14312243   7.619   6.483   1.601  1.9045 -1.4064  2.9938
   51MOL   H14412244   7.570   6.345   1.486 -0.9580 -0.6195  0.1911
   51MOL   H14512245   7.720   6.344   1.580  0.5191  0.7881 -2.3175
   51MOL   C14612246   7.209   6.356   1.869  0.8395 -0.6414 -0.3559
   51MOL   C14712247   7.229   6.480   1.941 -0.0918 -0.1782  0.2997
   51MOL   C14812248   7.108   6.572   1.930  0.4103  0.6605  0.3558
   51MOL   O14912249   7.116   6.692   1.908 -0.0286 -0.0047 -0.2788
   51MOL   O15012250   6.992   6.513   1.945 -0.0539 -0.8229 -0.6084
   51MOL   C15112251   6.869   6.591   1.940 -0.8282  0.0360 -0.3176
   51MOL   H15212252   7.159   6.383   1.776  1.3726  1.3471 -0.0783
   51MOL   H15312253   7.138   6.287   1.913 -2.3071  2.7026  0.0716
   51MOL   H15412254   7.307   6.536   1.889 -1.1467 -2.0926 -3.5587
   51MOL   H15512255   6.787   6.525   1.913 -0.3016 -1.9548  2.7355
   51MOL   H15612256   6.861   6.670   1.866  1.1375  0.0783 -0.5100
   51MOL   H15712257   6.849   6.636   2.038  0.0367 -1.8546  0.7519
   51MOL   C15812258   7.273   6.456   2.090 -0.3507  0.6893 -0.0249
   51MOL   C15912259   7.329   6.577   2.164  0.0600  0.4251 -0.1416
   51MOL   C16012260   7.238   6.617   2.277  0.6113  0.1317 -0.5734
   51MOL   O16112261   7.251   6.577   2.393 -0.2662 -0.0655 -0.1787
   51MOL   O16212262   7.128   6.689   2.234 -0.2015  0.1288 -0.1255
   51MOL   C16312263   7.029   6.747   2.309  0.0701 -0.2859 -0.0129
   51MOL   H16412264   7.191   6.410   2.145  0.2450  0.8333  0.9879
   51MOL   H16512265   7.355   6.385   2.075 -0.0021  1.1493 -0.3012
   51MOL   H16612266   7.310   6.661   2.097 -0.8027 -0.2687 -0.7735
   51MOL   H16712267   6.937   6.759   2.253 -0.7619 -2.5591  0.7890
   51MOL   H16812268   7.062   6.841   2.352 -1.8466 -0.1400  1.1745
   51MOL   H16912269   7.005   6.684   2.395 -0.3768 -1.4359 -0.9656
   51MOL   C17012270   7.474   6.574   2.200 -0.0739 -0.3627 -0.5883
   51MOL   C17112271   7.566   6.576   2.079 -0.0367  0.5736  0.6219
   51MOL   C17212272   7.539   6.687   1.975 -0.4675  0.4325 -0.5537
   51MOL   O17312273   7.520   6.808   2.011  0.2377 -0.4218 -0.5943
   51MOL   O17412274   7.529   6.637   1.856  0.3310  0.2194  0.2953
   51MOL   C17512275   7.482   6.717   1.750 -0.0982  0.7508 -0.6964
   51MOL   H17612276   7.505   6.646   2.276  0.2742 -2.7289  1.5726
   51MOL   H17712277   7.485   6.485   2.262 -0.2203 -0.1188 -0.2091
   51MOL   H17812278   7.554   6.480   2.030 -1.9188  0.6413  0.9178
   51MOL   H17912279   7.488   6.673   1.650 -0.9192 -1.6537  0.2673
   51MOL   H18012280   7.536   6.811   1.742  0.0925  0.6268 -0.8587
   51MOL   H18112281   7.377   6.732   1.775  0.2078  1.8790 -0.0539
   51MOL   C18212282   7.717   6.584   2.111  0.1545  0.2405 -0.2937
   51MOL   C18312283   7.825   6.554   2.009 -0.4236 -0.7291 -0.2715
   51MOL   C18412284   7.811   6.420   1.929 -0.1643 -0.5169 -0.4156
   51MOL   O18512285   7.818   6.407   1.807  0.5580  0.7117 -0.6276
   51MOL   O18612286   7.761   6.329   2.011  0.4702 -0.3857  0.0345
   51MOL   C18712287   7.726   6.206   1.962  0.9999 -0.5472  0.4433
   51MOL   H18812288   7.731   6.677   2.167 -2.0853  0.1125  0.5379
   51MOL   H18912289   7.726   6.517   2.196 -0.0617 -0.0420 -0.4934
   51MOL   H19012290   7.908   6.536   2.077 -1.4207 -0.8231  0.9393
   51MOL   H19112291   7.735   6.120   2.029  1.6181 -1.2799 -0.5518
   51MOL   H19212292   7.788   6.184   1.875 -0.9906 -0.2460 -1.0792
   51MOL   H19312293   7.626   6.196   1.920  0.9758 -0.8328  0.5640
   51MOL   C19412294   7.856   6.683   1.924 -0.2165  0.5314 -0.7261
   51MOL   C19512295   0.069   6.742   1.960 -0.3784  0.2767 -0.1281
   51MOL   C19612296   0.075   6.795   2.106 -0.1107 -0.8290  1.0725
   51MOL   O19712297   0.152   6.750   2.181 -0.0266 -0.1987  0.3887
   51MOL   O19812298   7.916   6.890   2.133 -0.5237  0.2652  0.2703
   51MOL   C19912299   7.922   6.942   2.266  0.1381 -0.3407 -0.2182
   51MOL   H20012300   7.853   6.667   1.816  1.3172  1.7922 -0.9748
   51MOL   H20112301   7.792   6.768   1.948 -0.0817  0.6203 -0.6822
   51MOL   H20212302   0.084   6.828   1.895  0.4268  1.9156  2.1672
   51MOL   H20312303   7.874   6.862   2.322  0.3328 -0.2793  0.0342
   51MOL   H20412304   7.863   7.033   2.268  0.3509 -0.2195  0.7533
   51MOL   H20512305   0.092   6.962   2.296  0.4115  0.8134 -1.8197
   51MOL   C20612306   0.191   6.652   1.931 -0.5150 -0.3294 -0.4663
   51MOL   C20712307   0.207   6.640   1.775  0.5858 -0.2696 -0.1504
   51MOL   C20812308   0.306   6.743   1.719  0.4957 -0.7172 -0.9190
   51MOL   O20912309   0.268   6.819   1.634  0.1094 -0.4971  0.3239
   51MOL   O21012310   0.426   6.723   1.768 -0.4476 -0.0780 -0.0460
   51MOL   C21112311   0.531   6.818   1.751 -0.2294  0.1118  0.1598
   51MOL   H21212312   0.284   6.689   1.973 -1.2992  1.1708 -0.0350
   51MOL   H21312313   0.180   6.553   1.976  2.3101  0.6098  2.4974
   51MOL   H21412314   0.109   6.639   1.726  0.4260 -1.3819  0.1645
   51MOL   H21512315   0.621   6.794   1.806  0.1220  2.5252  0.6638
   51MOL   H21612316   0.501   6.919   1.780  0.0013  0.4676 -0.8386
   51MOL   H21712317   0.561   6.840   1.649  2.9999 -2.7909  0.4177
   51MOL   C21812318   0.243   6.496   1.743 -0.3345  0.1248  0.0487
   51MOL   C21912319   0.252   6.447   1.599 -0.7284 -0.6568  0.3552
   51MOL   C22012320   0.377   6.490   1.519  0.1119  0.4821  0.2116
   51MOL   O22112321   0.368   6.542   1.409  0.4409  0.1132  0.2103
   51MOL   O22212322   0.496   6.466   1.579 -0.9513  0.7221  0.2543
   51MOL   C22312323   0.615   6.514   1.515 -0.7293 -0.0566 -0.3511
   51MOL   H22412324   0.336   6.486   1.799 -1.1639  1.7265  1.7525
   51MOL   H22512325   0.161   6.440   1.787 -0.4609  0.3092  0.0473
   51MOL   H22612326   0.163   6.481   1.546 -0.2536 -1.4134 -0.9543
   51MOL   H22712327   0.612   6.622   1.509  1.9865  0.0396 -0.5716
   51MOL   H22812328   0.619   6.463   1.419  1.2480  1.8649 -1.3309
   51MOL   H22912329   0.704   6.490   1.574 -0.8510 -1.3766 -0.6871
   51MOL   C23012330   0.254   6.293   1.597  0.0028  0.7498  0.1073
   51MOL   C23112331   0.207   6.233   1.465  0.1229  0.0841  0.1848
   51MOL   C23212332   0.217   6.084   1.473  0.2760  0.3496  0.1296
   51MOL   O23312333   0.236   6.017   1.575 -0.2491  1.1015  0.1527
   51MOL   O23412334   0.207   6.022   1.348 -0.3927  0.7007 -0.2318
   51MOL   C23512335   0.221   5.878   1.328  0.5312  0.6202 -0.2631
   51MOL   H23612336   0.345   6.255   1.644 -0.0321 -0.9133 -1.0994
   51MOL   H23712337   0.187   6.254   1.673  2.1858 -1.7472  0.8667
   51MOL   H23812338   0.271   6.259   1.381  0.2771  0.6622  0.4760
   51MOL   H23912339   0.194   5.830   1.422 -2.3087  0.4141 -1.1325
   51MOL   H24012340   0.323   5.844   1.308  0.0970 -0.0678 -1.3885
   51MOL   H24112341   0.151   5.854   1.247  1.2091  0.0096 -0.6711
   51MOL   H24212342   0.110   6.265   1.427  1.0048  2.4145 -0.1448
   52MOL     C112343   4.604   6.792   4.431 -0.0602  0.0002  0.4824
   52MOL     C212344   4.597   6.939   4.478  0.0098 -1.0358 -0.6281
   52MOL     C312345   4.609   7.029   4.348  0.0093 -0.0366 -0.2345
   52MOL     O412346   4.648   6.982   4.243  0.0103  0.3606 -0.2962
   52MOL     O512347   4.575   7.161   4.380 -0.0687 -0.4409  0.1833
   52MOL     C612348   4.556   7.259   4.272  1.2641 -0.0618  0.0176
   52MOL     H712349   4.573   6.717   4.504  0.7571 -1.4545 -0.6338
   52MOL     H812350   4.695   6.769   4.375 -0.0255  1.1352  0.0588
   52MOL     H912351   4.677   6.969   4.546  1.2809 -1.5331 -1.8749
   52MOL    H1012352   4.532   7.352   4.323  0.5745  0.7429 -1.7655
   52MOL    H1112353   4.481   7.220   4.204  2.0585 -0.3420 -0.7069
   52MOL    H1212354   4.647   7.270   4.212 -1.3053 -1.8169 -4.4240
   52MOL    H1312355   4.521   6.777   4.362  1.9488  0.2651 -2.0631
   52MOL    C1412356   4.463   6.972   4.552 -0.2903  0.0321 -0.4721
   52MOL    C1512357   4.443   6.877   4.677 -0.8865  0.1462  0.0967
   52MOL    C1612358   4.511   6.945   4.792 -0.0528 -0.1891  0.4143
   52MOL    O1712359   4.458   7.032   4.860 -0.4038  0.1250  0.4228
   52MOL    O1812360   4.640   6.904   4.806  0.0403  0.1378  0.3688
   52MOL    C1912361   4.720   6.973   4.903 -0.8797  0.6590  0.3637
   52MOL    H2012362   4.461   7.078   4.575  2.3002  0.2869 -1.3186
   52MOL    H2112363   4.377   6.951   4.488 -1.5064  1.0517  0.8093
   52MOL    H2212364   4.490   6.779   4.671 -1.6155 -0.2768  1.0661
   52MOL    H2312365   4.827   6.966   4.887 -0.7021 -0.1629  1.8971
   52MOL    H2412366   4.702   6.949   5.008 -0.3524  2.9141  1.0112
   52MOL    H2512367   4.701   7.080   4.892  0.0580  0.7107 -0.9212
   52MOL    C2612368   4.290   6.848   4.697  0.0820  0.9386 -0.4246
   52MOL    C2712369   4.246   6.706   4.754  0.3415  0.5647 -0.5493
   52MOL    C2812370   4.223   6.596   4.641  0.5876  0.1482 -0.5068
   52MOL    O2912371   4.114   6.535   4.633  0.0448 -0.1108 -0.5764
   52MOL    O3012372   4.326   6.579   4.557  0.1646 -0.2336  0.2110
   52MOL    C3112373   4.303   6.502   4.444 -1.0075 -0.0727 -0.2887
   52MOL    H3212374   4.244   6.930   4.753  0.6336  2.1476 -1.7185
   52MOL    H3312375   4.231   6.858   4.606 -1.0166  0.5034  0.2211
   52MOL    H3412376   4.149   6.721   4.801  0.6083 -1.1954  0.6364
   52MOL    H3512377   4.282   6.396   4.463 -1.7140  0.2496  0.8152
   52MOL    H3612378   4.385   6.507   4.373 -1.8899  0.7028 -1.2619
   52MOL    H3712379   4.218   6.541   4.388 -0.6133  0.9603 -0.1669
   52MOL    C3812380   4.330   6.642   4.865  0.5238  0.8019 -0.3081
   52MOL    C3912381   4.325   6.707   4.999  0.5943 -0.3962  1.2653
   52MOL    C4012382   4.176   6.690   5.061 -0.2043  0.1116  0.5667
   52MOL    O4112383   4.107   6.790   5.104 -0.1437  0.1796  0.2608
   52MOL    O4212384   4.142   6.558   5.071  0.1060  0.1489  0.3937
   52MOL    C4312385   4.032   6.523   5.152 -0.6622  0.1107  0.5591
   52MOL    H4412386   4.312   6.536   4.883 -0.4390  0.9574 -0.3095
   52MOL    H4512387   4.433   6.658   4.832  0.3422  0.7209 -0.9172
   52MOL    H4612388   4.326   6.816   4.991  0.3732 -0.5078 -0.4564
   52MOL    H4712389   4.014   6.416   5.144 -0.6431  0.0130  1.8383
   52MOL    H4812390   3.938   6.568   5.120 -0.1433  1.0102  0.2754
   52MOL    H4912391   4.056   6.544   5.256 -0.2377  0.5753  0.3705
   52MOL    C5012392   4.431   6.664   5.095 -0.2916 -0.2335 -0.4210
   52MOL    C5112393   4.455   6.761   5.215 -0.1967  0.4094 -0.0114
   52MOL    C5212394   4.354   6.766   5.325  0.2028 -0.0202  0.0362
   52MOL    O5312395   4.299   6.663   5.357  0.2134  0.2542 -0.4792
   52MOL    O5412396   4.332   6.881   5.377 -0.0107  0.6520  0.0826
   52MOL    C5512397   4.212   6.908   5.442  0.4044  0.1336  0.2177
   52MOL    H5612398   4.410   6.562   5.127  0.4394 -0.7189 -1.4821
   52MOL    H5712399   4.521   6.653   5.035  0.9608  0.8908  1.2315
   52MOL    H5812400   4.452   6.860   5.171  2.4771  0.6690  0.3049
   52MOL    H5912401   4.225   7.009   5.481 -2.7948  0.1102  1.4466
   52MOL    H6012402   4.176   6.830   5.509  0.7331 -0.0883  0.1382
   52MOL    H6112403   4.136   6.918   5.364 -0.3982 -2.3714  0.6288
   52MOL    C6212404   4.596   6.760   5.273  0.4567 -0.1548  0.0499
   52MOL    C6312405   4.648   6.649   5.365  0.6721  0.1643 -0.7749
   52MOL    C6412406   4.612   6.505   5.328 -0.5827 -0.1946  0.6233
   52MOL    O6512407   4.610   6.462   5.214  0.1563 -0.5092  0.2550
   52MOL    O6612408   4.598   6.430   5.439  0.2962 -0.5995 -0.2544
   52MOL    C6712409   4.533   6.303   5.430 -0.3888  0.6999 -0.0344
   52MOL    H6812410   4.652   6.783   5.182  0.0076  1.6600  0.2081
   52MOL    H6912411   4.611   6.849   5.334  0.4703 -0.2444  0.1761
   52MOL    H7012412   4.589   6.661   5.456  0.4862 -0.3161 -0.8312
   52MOL    H7112413   4.473   6.295   5.339  0.5934 -2.7769 -0.4706
   52MOL    H7212414   4.458   6.292   5.508 -0.3769  0.7995 -0.0090
   52MOL    H7312415   4.601   6.218   5.438 -0.0159  0.9325 -0.6473
   52MOL    C7412416   4.796   6.653   5.402 -0.5899  0.7281 -0.2112
   52MOL    C7512417   4.848   6.792   5.442  0.0280  0.0283  0.3394
   52MOL    C7612418   4.789   6.843   5.572 -0.7477  0.4328 -0.2389
   52MOL    O7712419   4.714   6.946   5.569 -0.2600  0.4876 -0.8850
   52MOL    O7812420   4.836   6.779   5.684  0.7106  0.5340  0.6181
   52MOL    C7912421   4.783   6.820   5.808 -0.6894  0.1393  0.9880
   52MOL    H8012422   4.811   6.591   5.490 -1.7096  1.1248  0.2661
   52MOL    H8112423   4.855   6.612   5.319 -1.0611 -1.0530  0.3112
   52MOL    H8212424   4.811   6.867   5.372 -1.0181 -2.1152 -1.4510
   52MOL    H8312425   4.674   6.813   5.806 -0.6854  0.2898 -0.3755
   52MOL    H8412426   4.825   6.920   5.823  1.8387 -0.8336  0.5844
   52MOL    H8512427   4.822   6.750   5.882 -0.0713 -2.2645 -1.5609
   52MOL    C8612428   4.998   6.793   5.460 -0.2378 -0.3359  0.1695
   52MOL    C8712429   5.083   6.795   5.326 -0.5585 -0.3960 -0.1652
   52MOL    C8812430   5.083   6.937   5.266  0.0365 -0.0827  0.2039
   52MOL    O8912431   5.191   6.996   5.233  0.2758  0.0970  0.3406
   52MOL    O9012432   4.955   6.994   5.264  0.0511  0.9935  0.2027
   52MOL    C9112433   4.928   7.119   5.198  0.1890  0.6279  0.2077
   52MOL    H9212434   5.041   6.882   5.506  0.1694 -0.6213  0.3489
   52MOL    H9312435   5.035   6.704   5.511 -1.4169 -1.2706 -0.5786
   52MOL    H9412436   5.029   6.736   5.252 -1.8576 -0.0951  0.5298
   52MOL    H9512437   4.934   7.198   5.273  0.8584  1.0773 -0.3185
   52MOL    H9612438   4.826   7.120   5.160 -0.2475 -0.5250  1.3257
   52MOL    H9712439   4.989   7.135   5.110  0.2274 -1.5140 -0.1764
   52MOL    C9812440   5.228   6.731   5.339 -0.0488 -0.0766 -0.0608
   52MOL    C9912441   5.232   6.570   5.378  0.1770 -0.2981  0.8017
   52MOL   C10012442   5.162   6.477   5.280 -0.1176  0.7306  0.3312
   52MOL   O10112443   5.053   6.434   5.312 -0.2580  0.2398  0.5347
   52MOL   O10212444   5.220   6.471   5.165  0.5837 -0.5236 -0.3641
   52MOL   C10312445   5.148   6.403   5.058 -0.9971 -0.0817  0.5230
   52MOL   H10412446   5.299   6.745   5.258 -2.1749  2.9500 -1.4946
   52MOL   H10512447   5.279   6.787   5.418  2.7151  0.2002 -1.9670
   52MOL   H10612448   5.176   6.559   5.472  0.3470 -3.1639  0.6069
   52MOL   H10712449   5.135   6.295   5.068 -2.2014  0.0263  0.1964
   52MOL   H10812450   5.205   6.408   4.965 -1.0075 -2.5122  0.3534
   52MOL   H10912451   5.053   6.454   5.042 -1.0435 -0.0370  0.9390
   52MOL   C11012452   5.373   6.518   5.413  0.1794 -0.2605 -0.3478
   52MOL   C11112453   5.387   6.374   5.461  0.4309 -0.1468 -0.1275
   52MOL   C11212454   5.525   6.319   5.415  0.4336  0.4054  0.0722
   52MOL   O11312455   5.608   6.275   5.493 -0.0106  0.1745 -0.3682
   52MOL   O11412456   5.548   6.316   5.277 -0.0155 -0.4482  0.0564
   52MOL   C11512457   5.662   6.249   5.221  0.0724 -0.4082 -1.6075
   52MOL   H11612458   5.430   6.538   5.323  0.5753 -1.2803 -0.3271
   52MOL   H11712459   5.411   6.582   5.494 -0.4817 -0.2344 -0.0525
   52MOL   H11812460   5.316   6.316   5.403  0.2825  1.3393 -1.4652
   52MOL   H11912461   5.680   6.289   5.121  1.2222  3.1802 -0.0808
   52MOL   H12012462   5.654   6.141   5.231 -1.0189 -0.0971  1.6899
   52MOL   H12112463   5.746   6.284   5.282 -1.7461 -0.8639  1.2634
   52MOL   C12212464   5.371   6.352   5.617  0.2005  0.1516 -0.0749
   52MOL   C12312465   5.225   6.363   5.676  0.3288 -0.3689 -0.1259
   52MOL   C12412466   5.122   6.279   5.597  0.7527  0.3438 -0.4846
   52MOL   O12512467   5.156   6.180   5.529  0.4361  0.7232 -0.1773
   52MOL   O12612468   4.994   6.326   5.607 -0.2948 -0.2657 -0.4267
   52MOL   C12712469   4.891   6.265   5.533 -0.4660 -0.0107  0.5306
   52MOL   H12812470   5.409   6.257   5.654 -1.1796 -0.7784 -1.0002
   52MOL   H12912471   5.434   6.427   5.664  0.2260  0.8977 -1.2844
   52MOL   H13012472   5.196   6.464   5.650 -0.1209 -0.9018 -1.7534
   52MOL   H13112473   4.926   6.251   5.431 -0.3351  0.5478  0.4954
   52MOL   H13212474   4.803   6.330   5.533  0.2517  0.9624  0.9318
   52MOL   H13312475   4.867   6.169   5.579  2.6521 -0.4746  1.2419
   52MOL   C13412476   5.228   6.342   5.828  0.0440  0.0230 -0.9835
   52MOL   C13512477   5.111   6.421   5.899  0.3475 -0.1632 -0.1973
   52MOL   C13612478   4.970   6.357   5.896 -0.1058  0.2257  0.3149
   52MOL   O13712479   4.952   6.233   5.911 -0.0945 -0.5681 -0.0430
   52MOL   O13812480   4.877   6.451   5.893 -0.0598 -0.0240 -0.5338
   52MOL   C13912481   4.740   6.431   5.864  0.0363  0.2700  0.6297
   52MOL   H14012482   5.215   6.238   5.859 -0.6610  0.8739  1.7270
   52MOL   H14112483   5.322   6.375   5.872 -1.7698  2.3447  1.3318
   52MOL   H14212484   5.098   6.520   5.855  3.9075  1.0089  1.2487
   52MOL   H14312485   4.722   6.365   5.778  0.3171 -0.9687  1.5151
   52MOL   H14412486   4.678   6.520   5.856  0.5924  0.4324 -3.0988
   52MOL   H14512487   4.687   6.392   5.951 -1.3920  4.2834  1.6621
   52MOL   C14612488   5.151   6.458   6.045  0.2204  0.6570 -0.3085
   52MOL   C14712489   5.182   6.604   6.075  0.0340 -1.2263 -0.4435
   52MOL   C14812490   5.297   6.657   5.992  0.4027 -0.0767  0.0435
   52MOL   O14912491   5.410   6.654   6.035  0.3732  0.0208  0.1974
   52MOL   O15012492   5.254   6.703   5.870 -0.7479  0.2926 -0.3884
   52MOL   C15112493   5.346   6.715   5.766 -0.4775 -0.6289 -0.0067
   52MOL   H15212494   5.071   6.422   6.109  0.1785 -0.3317 -0.9191
   52MOL   H15312495   5.243   6.408   6.074  0.2034  1.0766  0.4883
   52MOL   H15412496   5.218   6.613   6.177 -1.9162 -1.8914  0.3115
   52MOL   H15512497   5.400   6.809   5.781  1.4073 -1.3998 -1.5904
   52MOL   H15612498   5.293   6.712   5.671  2.2851 -0.0582 -1.6268
   52MOL   H15712499   5.426   6.640   5.766  0.2131  0.0330 -2.8155
   52MOL   C15812500   5.052   6.680   6.081  0.4844 -0.3682  1.0734
   52MOL   C15912501   5.052   6.812   6.159  0.2650 -1.3456  0.0237
   52MOL   C16012502   4.959   6.916   6.097  0.3939 -0.0572  0.1821
   52MOL   O16112503   5.004   7.001   6.019 -0.1495 -0.1200 -0.3588
   52MOL   O16212504   4.832   6.895   6.122 -0.4964  0.2247 -0.2685
   52MOL   C16312505   4.744   6.991   6.085  0.6150 -0.1135  0.2566
   52MOL   H16412506   5.012   6.702   5.982  2.3745  0.9157  0.5543
   52MOL   H16512507   4.969   6.624   6.122 -0.2649 -0.2376 -0.2579
   52MOL   H16612508   5.151   6.858   6.152 -1.6647  3.0549  0.1327
   52MOL   H16712509   4.757   7.036   5.987 -1.7297  1.7144  0.7288
   52MOL   H16812510   4.757   7.079   6.148  2.1423 -0.2908  0.2110
   52MOL   H16912511   4.639   6.963   6.095  0.7883 -1.9883 -2.6090
   52MOL   C17012512   5.034   6.797   6.310  0.5609  0.3295  0.1417
   52MOL   C17112513   5.067   6.928   6.396 -0.0538  0.4592 -0.0525
   52MOL   C17212514   4.967   6.944   6.520  0.0174 -0.5149  0.0963
   52MOL   O17312515   4.979   6.900   6.635  0.9165 -0.5127 -0.3223
   52MOL   O17412516   4.860   7.012   6.480  0.0974  0.6510 -0.4676
   52MOL   C17512517   4.752   7.040   6.571  0.1414  0.8371  0.5310
   52MOL   H17612518   4.933   6.764   6.336  0.2585  0.7957 -0.4358
   52MOL   H17712519   5.107   6.725   6.345 -0.1605 -0.8457 -0.7212
   52MOL   H17812520   5.045   7.008   6.326  2.3293  0.4278 -0.8817
   52MOL   H17912521   4.781   7.132   6.623  1.3802  0.0895  1.1800
   52MOL   H18012522   4.718   6.966   6.643  0.6746 -1.5323 -1.5782
   52MOL   H18112523   4.671   7.072   6.506 -0.2461  1.0898  1.1322
   52MOL   C18212524   5.220   6.922   6.435  0.3234  0.2353 -0.0386
   52MOL   C18312525   5.275   7.061   6.473  0.0742  0.2484  0.7886
   52MOL   C18412526   5.346   7.053   6.603 -0.3347  0.4833  0.3051
   52MOL   O18512527   5.296   7.079   6.712 -0.0512  0.3091 -0.4838
   52MOL   O18612528   5.468   6.985   6.584 -0.3728 -0.5958 -0.5831
   52MOL   C18712529   5.545   6.937   6.698 -0.1328  0.2655 -0.0920
   52MOL   H18812530   5.226   6.849   6.516 -2.2114  0.3484  0.3073
   52MOL   H18912531   5.289   6.885   6.360 -1.2799  0.7729 -1.8205
   52MOL   H19012532   5.200   7.126   6.517  0.1763 -0.7400  2.4768
   52MOL   H19112533   5.645   6.979   6.709  0.4293 -1.9090  3.6812
   52MOL   H19212534   5.549   6.828   6.693 -1.5022  0.2677 -1.6448
   52MOL   H19312535   5.497   6.950   6.795  1.4171  1.6383  0.5069
   52MOL   C19412536   5.345   7.135   6.357 -0.6845  0.0352 -0.2608
   52MOL   C19512537   5.266   7.197   6.240  0.0676 -0.2380  1.2667
   52MOL   C19612538   5.169   7.301   6.290 -0.1626 -0.1684 -0.1284
   52MOL   O19712539   5.189   7.376   6.385  0.2298 -0.3196  0.3589
   52MOL   O19812540   5.048   7.294   6.231  0.3715 -0.1852 -1.1675
   52MOL   C19912541   4.942   7.370   6.289 -0.1631 -0.2414  0.5825
   52MOL   H20012542   5.404   7.218   6.394  0.4262 -1.2150  0.8139
   52MOL   H20112543   5.419   7.063   6.323 -0.2592 -0.7424  2.2081
   52MOL   H20212544   5.212   7.117   6.190  0.2353  1.0998 -1.1047
   52MOL   H20312545   4.842   7.357   6.247  0.0882 -0.1863 -0.0473
   52MOL   H20412546   4.967   7.476   6.284 -1.3294  0.0318  0.3594
   52MOL   H20512547   4.928   7.348   6.395 -0.3586 -1.4089  0.3174
   52MOL   C20612548   5.354   7.273   6.131  0.3609 -0.0464  0.2231
   52MOL   C20712549   5.426   7.182   6.021 -0.7706  0.2367  0.1922
   52MOL   C20812550   5.318   7.125   5.931  0.1450  0.2236 -1.2553
   52MOL   O20912551   5.275   7.006   5.937 -0.3278  0.2338  0.5467
   52MOL   O21012552   5.277   7.214   5.835  0.1314  0.2163  0.1081
   52MOL   C21112553   5.180   7.170   5.740 -0.5969  0.4748 -0.6395
   52MOL   H21212554   5.294   7.340   6.070 -1.3510 -1.6308  0.1229
   52MOL   H21312555   5.431   7.332   6.181 -0.8077 -0.1890  2.2458
   52MOL   H21412556   5.460   7.090   6.067 -0.7791 -0.4517 -1.1460
   52MOL   H21512557   5.167   7.228   5.649 -0.8101  0.1671 -0.8053
   52MOL   H21612558   5.082   7.158   5.788 -0.7284 -0.2377 -1.0815
   52MOL   H21712559   5.211   7.068   5.719  0.5140  0.9361 -1.2189
   52MOL   C21812560   5.538   7.266   5.944 -0.5024  0.1656 -0.3592
   52MOL   C21912561   5.606   7.207   5.814  0.1867  0.4824 -0.3362
   52MOL   C22012562   5.676   7.319   5.738 -0.3999  0.4625 -0.3926
   52MOL   O22112563   5.647   7.353   5.627  0.2395  0.8216 -0.2962
   52MOL   O22212564   5.767   7.385   5.819 -0.5900 -0.0068  0.1886
   52MOL   C22312565   5.863   7.466   5.757 -0.0527 -0.0528  0.0598
   52MOL   H22412566   5.503   7.364   5.914  1.2017  0.5674 -1.1017
   52MOL   H22512567   5.619   7.285   6.015 -2.3647  0.2348  1.7891
   52MOL   H22612568   5.516   7.190   5.755 -0.8892  0.6258  1.2322
   52MOL   H22712569   5.921   7.522   5.830  0.7254 -0.7248 -0.0401
   52MOL   H22812570   5.829   7.542   5.686  3.2333  2.0874  0.6560
   52MOL   H22912571   5.943   7.408   5.712 -0.7681 -0.3457 -0.8726
   52MOL   C23012572   5.687   7.074   5.827 -0.0471 -0.5261 -0.1100
   52MOL   C23112573   5.724   6.996   5.699 -0.0957 -0.0631  1.0352
   52MOL   C23212574   5.598   6.978   5.605 -0.1160  0.1446 -0.4383
   52MOL   O23312575   5.538   6.873   5.585  0.3105  0.4098  0.3851
   52MOL   O23412576   5.564   7.087   5.546 -0.0760  0.2028 -0.4200
   52MOL   C23512577   5.483   7.100   5.425 -0.2681  0.0907  0.6694
   52MOL   H23612578   5.774   7.103   5.886  0.0830  0.6349 -0.8459
   52MOL   H23712579   5.630   7.016   5.899  1.5573 -0.6566  1.0751
   52MOL   H23812580   5.763   6.901   5.733  0.1910 -1.6972 -3.5997
   52MOL   H23912581   5.469   7.206   5.404 -1.5420 -0.2685 -0.3803
   52MOL   H24012582   5.388   7.046   5.427  0.2191 -0.7977  0.3568
   52MOL   H24112583   5.545   7.054   5.348  0.1180  2.1367 -0.2770
   52MOL   H24212584   5.806   7.038   5.641 -1.7802  1.3274 -0.4297
   53MOL     C112585   5.517   4.609   6.839 -0.5255 -0.0219 -0.0260
   53MOL     C212586   5.375   4.599   6.779  0.4007 -0.1412 -0.0978
   53MOL     C312587   5.360   4.510   6.654 -0.2407 -0.8815  0.3133
   53MOL     O412588   5.447   4.436   6.611  0.4796 -0.6351  0.0223
   53MOL     O512589   5.237   4.520   6.614  0.2660 -0.5429  0.8202
   53MOL     C612590   5.188   4.438   6.509 -0.4848 -0.3113  0.3284
   53MOL     H712591   5.600   4.609   6.768  1.0278  1.7869  1.7124
   53MOL     H812592   5.540   4.533   6.914  0.1492  0.8362  0.6542
   53MOL     H912593   5.343   4.695   6.739 -0.7202 -1.9701 -3.8960
   53MOL    H1012594   5.079   4.438   6.508 -0.5011 -2.0756 -0.2950
   53MOL    H1112595   5.219   4.334   6.519  0.1737  0.0946  2.7147
   53MOL    H1212596   5.211   4.491   6.416 -3.0437 -0.8495 -0.6470
   53MOL    H1312597   5.534   4.703   6.892 -0.8352 -0.4056  0.7626
   53MOL    C1412598   5.280   4.558   6.889  0.2219 -0.0667  0.4136
   53MOL    C1512599   5.125   4.576   6.874 -0.1681  0.3137  0.1880
   53MOL    C1612600   5.046   4.500   6.978  0.3725  0.1107 -0.2201
   53MOL    O1712601   5.096   4.453   7.083  0.4376 -0.2464  0.1303
   53MOL    O1812602   4.918   4.477   6.936  0.4981 -0.3487  0.3161
   53MOL    C1912603   4.832   4.421   7.027 -0.5586 -0.1097  0.2693
   53MOL    H2012604   5.289   4.451   6.906 -0.2678 -0.3100 -0.8331
   53MOL    H2112605   5.306   4.605   6.984  0.0886  2.2963 -0.6840
   53MOL    H2212606   5.097   4.525   6.782  1.4611 -2.6119  1.2462
   53MOL    H2312607   4.867   4.324   7.060 -0.8359  0.2749  1.7434
   53MOL    H2412608   4.742   4.393   6.973 -0.4075  1.3329 -0.7671
   53MOL    H2512609   4.811   4.491   7.108  2.4290 -0.4305  1.3869
   53MOL    C2612610   5.086   4.723   6.875  0.0122 -0.4022 -0.5151
   53MOL    C2712611   4.941   4.762   6.820 -0.3222 -0.4924 -0.5860
   53MOL    C2812612   4.850   4.823   6.932 -0.1352 -0.1555  1.0191
   53MOL    O2912613   4.745   4.768   6.959 -0.3444 -0.1390  0.3200
   53MOL    O3012614   4.900   4.945   6.971 -0.7023  0.1982  0.4800
   53MOL    C3112615   4.819   5.033   7.044  0.0535 -0.4383  0.1266
   53MOL    H3212616   5.090   4.762   6.977  2.6019 -2.2789  0.1395
   53MOL    H3312617   5.159   4.788   6.825 -2.7262  2.5779 -0.8225
   53MOL    H3412618   4.896   4.671   6.781  1.4604 -1.4553 -0.4725
   53MOL    H3512619   4.834   5.138   7.017  1.3648 -0.3267  1.2530
   53MOL    H3612620   4.831   5.016   7.151 -1.5949 -0.1115  0.3792
   53MOL    H3712621   4.714   5.015   7.020 -0.2735 -0.2605  1.3727
   53MOL    C3812622   4.954   4.858   6.702 -0.5399  0.0500  0.2858
   53MOL    C3912623   4.993   4.793   6.565  0.5339  0.1530  0.4938
   53MOL    C4012624   4.877   4.715   6.496 -0.2724  0.2975  0.3533
   53MOL    O4112625   4.838   4.745   6.381  0.8685  0.4951  0.2587
   53MOL    O4212626   4.826   4.617   6.569  0.0904  0.3739 -0.4407
   53MOL    C4312627   4.708   4.538   6.530 -0.3097  0.1346 -0.1153
   53MOL    H4412628   4.857   4.904   6.682 -0.8435 -1.4155 -1.6676
   53MOL    H4512629   5.025   4.937   6.729  0.9132  0.0186 -3.2531
   53MOL    H4612630   5.080   4.731   6.585 -0.0465 -0.1388  2.1794
   53MOL    H4712631   4.635   4.571   6.604 -0.1409 -0.2945  0.2475
   53MOL    H4812632   4.734   4.434   6.552 -0.6258  0.5320  2.3010
   53MOL    H4912633   4.668   4.557   6.431 -1.4004 -1.3319  0.0261
   53MOL    C5012634   5.040   4.914   6.480 -0.5223 -0.8053 -0.9329
   53MOL    C5112635   5.181   4.980   6.509 -0.0879 -0.4816 -0.2781
   53MOL    C5212636   5.296   4.875   6.499 -0.7187 -0.0095 -0.2028
   53MOL    O5312637   5.372   4.863   6.593  0.0585 -0.3626 -0.5859
   53MOL    O5412638   5.303   4.805   6.385 -0.4060 -0.3241 -1.0613
   53MOL    C5512639   5.409   4.716   6.355 -0.9619 -0.1983  0.4056
   53MOL    H5612640   5.046   4.875   6.378 -1.4981 -3.6159  0.0599
   53MOL    H5712641   4.969   4.997   6.484  0.5980  0.1820 -0.9771
   53MOL    H5812642   5.183   5.014   6.612  0.5992  1.1487 -0.8134
   53MOL    H5912643   5.389   4.658   6.265  0.2747  0.9519 -0.6276
   53MOL    H6012644   5.431   4.653   6.441  2.1438 -0.0970 -0.2626
   53MOL    H6112645   5.500   4.772   6.334 -1.1171  0.5051  1.5777
   53MOL    C6212646   5.207   5.105   6.420 -0.5647  0.0574 -0.1296
   53MOL    C6312647   5.257   5.238   6.501 -0.5213  0.1643  0.1129
   53MOL    C6412648   5.319   5.323   6.387 -0.0603 -0.1001  0.2523
   53MOL    O6512649   5.445   5.332   6.379  0.0014 -0.0339 -0.4382
   53MOL    O6612650   5.238   5.373   6.293  0.0203 -0.0414  0.0315
   53MOL    C6712651   5.295   5.442   6.188 -0.3372 -0.0465  0.8674
   53MOL    H6812652   5.276   5.081   6.340 -0.9875 -0.0334 -0.4656
   53MOL    H6912653   5.125   5.136   6.356  0.2809  0.1282 -1.1883
   53MOL    H7012654   5.338   5.200   6.563  1.6266  2.5588 -1.1026
   53MOL    H7112655   5.237   5.403   6.104  0.9299 -0.2097  0.0681
   53MOL    H7212656   5.401   5.437   6.167 -0.5318 -0.0106 -0.1584
   53MOL    H7312657   5.285   5.551   6.193 -0.9064 -0.0724  0.3392
   53MOL    C7412658   5.146   5.308   6.576 -0.6528 -0.8177 -0.1458
   53MOL    C7512659   5.167   5.356   6.719  0.5862  0.2330  0.2984
   53MOL    C7612660   5.169   5.234   6.814  0.2260  0.4323 -0.2571
   53MOL    O7712661   5.083   5.204   6.896 -0.5023 -0.0130  0.1933
   53MOL    O7812662   5.281   5.157   6.804  0.3172 -0.6328 -0.6574
   53MOL    C7912663   5.295   5.041   6.878 -0.0746 -0.1031  0.3937
   53MOL    H8012664   5.119   5.393   6.513 -0.0793 -1.5120 -1.3419
   53MOL    H8112665   5.062   5.239   6.576 -1.8296  0.5713 -2.2845
   53MOL    H8212666   5.074   5.409   6.739  0.9172  0.9329 -0.0088
   53MOL    H8312667   5.296   5.058   6.986  0.1858 -1.6701  0.6528
   53MOL    H8412668   5.389   4.998   6.842 -0.0877  0.0955  0.1271
   53MOL    H8512669   5.214   4.974   6.851  0.4894 -0.2391 -0.9850
   53MOL    C8612670   5.284   5.446   6.741  0.0746  0.4133 -0.4733
   53MOL    C8712671   5.301   5.530   6.873  0.7665  0.1696 -0.0874
   53MOL    C8812672   5.167   5.612   6.900 -0.9567 -0.1062  0.0446
   53MOL    O8912673   5.094   5.585   6.996  0.1590  0.1202  0.2001
   53MOL    O9012674   5.149   5.698   6.809 -0.2099  0.0774 -0.1850
   53MOL    C9112675   5.038   5.782   6.805 -0.4869 -0.2384 -0.3454
   53MOL    H9212676   5.374   5.386   6.728  2.1331  3.3971 -0.4732
   53MOL    H9312677   5.287   5.513   6.655 -2.0699  0.5551 -0.4488
   53MOL    H9412678   5.380   5.599   6.842 -1.1085  2.9155  1.0412
   53MOL    H9512679   5.007   5.823   6.901  0.9492 -0.2484  0.1392
   53MOL    H9612680   4.962   5.723   6.754  1.4997 -2.4438 -0.8105
   53MOL    H9712681   5.059   5.873   6.748  0.0524 -0.4654 -0.5090
   53MOL    C9812682   5.345   5.450   7.000 -0.0932  0.0699 -0.3422
   53MOL    C9912683   5.386   5.529   7.130  0.4304  1.0017 -0.1218
   53MOL   C10012684   5.344   5.462   7.259  0.3630 -0.4929  0.0059
   53MOL   O10112685   5.323   5.341   7.268 -0.1813  0.5619  0.1976
   53MOL   O10212686   5.344   5.546   7.368 -0.8274  0.6236 -0.4761
   53MOL   C10312687   5.275   5.500   7.488 -0.7630 -0.2399 -0.3938
   53MOL   H10412688   5.262   5.388   7.031  0.6861 -0.6612  0.2995
   53MOL   H10512689   5.433   5.387   6.982  0.2985  0.3064  0.7215
   53MOL   H10612690   5.338   5.626   7.126 -1.0987  0.2733  0.4192
   53MOL   H10712691   5.246   5.584   7.552  0.8992 -0.0171  0.0933
   53MOL   H10812692   5.342   5.437   7.547 -0.6145  2.5789  2.6583
   53MOL   H10912693   5.181   5.450   7.463 -1.8202  0.4314  2.0549
   53MOL   C11012694   5.541   5.553   7.133 -0.2252  0.1936  0.4938
   53MOL   C11112695   5.600   5.637   7.012  0.9021  0.7925 -0.1857
   53MOL   C11212696   5.532   5.775   6.992  0.0007  0.6171 -0.7485
   53MOL   O11312697   5.498   5.846   7.085  0.6950  0.1038  0.3028
   53MOL   O11412698   5.511   5.801   6.861  0.3288  0.3683 -0.5374
   53MOL   C11512699   5.455   5.921   6.826 -0.2340  0.4873  0.0099
   53MOL   H11612700   5.571   5.609   7.222 -1.0793 -0.3898  1.1675
   53MOL   H11712701   5.590   5.456   7.124  0.8399  0.8534 -1.0764
   53MOL   H11812702   5.583   5.590   6.915 -1.7483  1.2690  0.0118
   53MOL   H11912703   5.462   5.940   6.719 -0.4868  0.2409 -0.0509
   53MOL   H12012704   5.506   6.006   6.870 -0.1108  1.2369 -1.5717
   53MOL   H12112705   5.354   5.925   6.868 -0.8084 -0.8188 -1.2265
   53MOL   C12212706   5.756   5.658   7.025  0.8128  0.5637 -0.4075
   53MOL   C12312707   5.838   5.685   6.897 -0.4294 -0.4712  0.2418
   53MOL   C12412708   5.802   5.584   6.787 -0.4222 -0.1306  0.5601
   53MOL   O12512709   5.852   5.469   6.780  0.2209 -0.4612 -0.2615
   53MOL   O12612710   5.719   5.627   6.696 -0.2350  0.6767 -0.1450
   53MOL   C12712711   5.683   5.544   6.583 -0.3147 -0.2772  0.1090
   53MOL   H12812712   5.774   5.738   7.097 -0.0911  0.8481 -0.4923
   53MOL   H12912713   5.798   5.573   7.079  2.1902  0.9399 -0.8727
   53MOL   H13012714   5.938   5.656   6.930 -1.0615  0.0862  2.7492
   53MOL   H13112715   5.773   5.520   6.528  1.1329  1.4070  1.6533
   53MOL   H13212716   5.614   5.599   6.518 -1.6241 -0.8573  0.9756
   53MOL   H13312717   5.643   5.445   6.605 -0.5950 -0.2753 -0.3980
   53MOL   C13412718   5.836   5.833   6.859  0.7126 -0.1863  0.5641
   53MOL   C13512719   5.954   5.886   6.775 -0.1649  0.1271 -0.0866
   53MOL   C13612720   5.921   6.016   6.698  0.6729 -0.3097 -0.1102
   53MOL   O13712721   5.947   6.023   6.578 -0.1687  0.8215  0.2225
   53MOL   O13812722   5.865   6.114   6.772  0.0998  0.1368  0.2471
   53MOL   C13912723   5.829   6.230   6.696 -0.0454  0.3543 -0.4425
   53MOL   H14012724   5.743   5.846   6.805  0.3088  1.8879  1.7460
   53MOL   H14112725   5.814   5.890   6.948  0.0242  2.7370 -1.4061
   53MOL   H14212726   5.985   5.808   6.705 -1.0083  1.8266 -2.4170
   53MOL   H14312727   5.892   6.254   6.611  0.3017 -0.0960 -0.3126
   53MOL   H14412728   5.817   6.313   6.767  0.7934  0.7601 -0.7678
   53MOL   H14512729   5.731   6.227   6.647  0.6611 -0.2827 -1.8234
   53MOL   C14612730   6.071   5.911   6.875  0.7257 -0.5766  0.7681
   53MOL   C14712731   6.197   5.957   6.801 -0.0446  1.1054 -0.1801
   53MOL   C14812732   6.257   6.088   6.872  0.6627  0.1400 -0.0585
   53MOL   O14912733   6.373   6.095   6.926  0.3110 -0.3264  0.9725
   53MOL   O15012734   6.169   6.201   6.868 -0.3881  0.2034  0.1514
   53MOL   C15112735   6.196   6.308   6.953 -0.1634 -0.5880 -0.4348
   53MOL   H15212736   6.040   5.980   6.953  2.0206  0.4318  0.4179
   53MOL   H15312737   6.098   5.819   6.928 -0.7637 -0.7880  1.1630
   53MOL   H15412738   6.182   5.979   6.696  2.3700 -0.8860 -0.9783
   53MOL   H15512739   6.140   6.400   6.939 -0.0613 -0.4767 -0.1214
   53MOL   H15612740   6.290   6.356   6.928  0.5801 -1.4782  0.5703
   53MOL   H15712741   6.202   6.280   7.059 -1.9718 -0.8575 -0.3804
   53MOL   C15812742   6.294   5.838   6.799 -0.8498 -0.2193  0.1422
   53MOL   C15912743   6.428   5.862   6.713  1.1729  0.4481 -1.4999
   53MOL   C16012744   6.553   5.852   6.802  0.2090  0.3939 -0.1460
   53MOL   O16112745   6.554   5.796   6.911  0.5435  0.1584  0.4056
   53MOL   O16212746   6.663   5.883   6.740 -0.2241 -0.1589 -0.5531
   53MOL   C16312747   6.791   5.854   6.803 -0.3072 -0.2804  1.0146
   53MOL   H16412748   6.322   5.804   6.898  3.1839  0.8172 -0.5704
   53MOL   H16512749   6.235   5.756   6.758  0.4730 -0.8426 -0.5312
   53MOL   H16612750   6.432   5.964   6.673  2.4958  1.8181  1.8561
   53MOL   H16712751   6.822   5.920   6.884  1.4082 -1.0239  0.9653
   53MOL   H16812752   6.861   5.863   6.720 -1.7767 -2.3310 -0.5024
   53MOL   H16912753   6.802   5.753   6.841 -0.4755 -1.3871 -1.7477
   53MOL   C17012754   6.434   5.776   6.585  0.1467  0.3133 -0.2439
   53MOL   C17112755   6.358   5.818   6.456 -0.1858  0.3942 -0.0736
   53MOL   C17212756   6.452   5.921   6.394 -0.1984  0.1872  0.1892
   53MOL   O17312757   6.524   5.886   6.303  0.0080  0.2412 -0.1524
   53MOL   O17412758   6.442   6.044   6.438 -0.3321  0.5029  0.0286
   53MOL   C17512759   6.523   6.144   6.381 -0.6409 -0.1789  0.2537
   53MOL   H17612760   6.539   5.753   6.567 -0.2888 -1.0055 -1.2476
   53MOL   H17712761   6.405   5.675   6.616  1.0977  0.0053 -0.3208
   53MOL   H17812762   6.279   5.878   6.501  0.2197  0.2224  0.8798
   53MOL   H17912763   6.510   6.126   6.275 -0.3423  2.9917 -0.3637
   53MOL   H18012764   6.622   6.131   6.425 -0.8525 -0.6001  0.6117
   53MOL   H18112765   6.486   6.245   6.402 -2.4950 -0.4287 -1.7365
   53MOL   C18212766   6.312   5.711   6.356  0.6604 -0.0933  0.0174
   53MOL   C18312767   6.176   5.642   6.366  0.2961 -0.6089  0.1967
   53MOL   C18412768   6.161   5.559   6.493  0.6785  0.0598 -0.2273
   53MOL   O18512769   6.080   5.595   6.579  0.2844 -0.7522  0.2911
   53MOL   O18612770   6.236   5.451   6.495  0.0882  0.0355 -0.4431
   53MOL   C18712771   6.218   5.355   6.599  0.3018  0.6421 -0.2125
   53MOL   H18812772   6.316   5.753   6.255  0.5168  0.5234  0.2668
   53MOL   H18912773   6.388   5.632   6.353  0.7696 -0.0186  0.7775
   53MOL   H19012774   6.173   5.573   6.281  0.4943 -1.9166  1.2289
   53MOL   H19112775   6.250   5.255   6.570 -4.3072 -1.0736  0.1905
   53MOL   H19212776   6.113   5.356   6.627  0.3878  1.9195  0.0893
   53MOL   H19312777   6.280   5.374   6.687 -1.6335  0.6903  1.1701
   53MOL   C19412778   6.067   5.746   6.344  0.1455 -0.0181  0.2639
   53MOL   C19512779   5.949   5.696   6.256 -0.4224 -0.1165 -0.8394
   53MOL   C19612780   5.813   5.752   6.281 -0.7487 -0.5798 -0.0017
   53MOL   O19712781   5.798   5.873   6.290 -0.7652 -0.0128  0.3458
   53MOL   O19812782   5.720   5.654   6.283  0.3028 -0.0161  0.1087
   53MOL   C19912783   5.588   5.691   6.277  0.5123 -0.5674 -0.0295
   53MOL   H20012784   6.023   5.777   6.438  1.0791 -0.6602  0.9239
   53MOL   H20112785   6.104   5.838   6.298 -3.2324  0.1866 -2.2485
   53MOL   H20212786   5.946   5.591   6.286  0.6447 -0.8554 -3.2067
   53MOL   H20312787   5.528   5.611   6.232  0.4916  0.2259 -1.4465
   53MOL   H20412788   5.580   5.778   6.213  2.5913 -1.1103 -1.0669
   53MOL   H20512789   5.556   5.715   6.378  1.1036 -0.3843  0.1151
   53MOL   C20612790   5.988   5.696   6.104 -0.6858  0.2115 -0.1589
   53MOL   C20712791   5.895   5.613   6.012  0.1938 -0.4559  0.2811
   53MOL   C20812792   5.942   5.640   5.869 -0.0526 -0.5473  0.0208
   53MOL   O20912793   6.059   5.682   5.842 -0.1183  0.0595  0.2596
   53MOL   O21012794   5.842   5.614   5.769  1.0992  0.1060  0.0147
   53MOL   C21112795   5.875   5.630   5.632 -0.2290  0.6744  0.2058
   53MOL   H21212796   5.991   5.800   6.071  4.0075 -0.2558 -1.6612
   53MOL   H21312797   6.089   5.656   6.109 -0.0622  1.8748  1.2169
   53MOL   H21412798   5.801   5.668   6.018  0.9144  1.0454 -1.5443
   53MOL   H21512799   5.844   5.718   5.576  2.1978 -0.0009 -2.2946
   53MOL   H21612800   5.850   5.536   5.581 -0.7797  0.5876  0.6254
   53MOL   H21712801   5.983   5.634   5.638 -0.2298 -0.9134  2.1032
   53MOL   C21812802   5.877   5.467   6.052  0.1221  0.2092 -0.4253
   53MOL   C21912803   5.751   5.400   6.001  0.5450  0.8312  0.9111
   53MOL   C22012804   5.773   5.293   5.891  0.4369  0.1398 -0.5608
   53MOL   O22112805   5.743   5.319   5.777  0.4253 -0.4592  0.2178
   53MOL   O22212806   5.828   5.178   5.930 -0.5573  0.3341  0.2021
   53MOL   C22312807   5.818   5.068   5.840 -0.5464 -0.6285  0.3053
   53MOL   H22412808   5.967   5.412   6.024 -0.5931 -0.9284 -0.5594
   53MOL   H22512809   5.874   5.462   6.161 -0.6163  2.0366 -0.3510
   53MOL   H22612810   5.689   5.475   5.951  1.3279  0.1091 -1.1647
   53MOL   H22712811   5.867   4.983   5.887  0.8508  0.9058  1.7003
   53MOL   H22812812   5.857   5.085   5.740 -0.3773 -0.2382  0.4371
   53MOL   H22912813   5.714   5.039   5.821 -0.2119 -0.2105 -2.3481
   53MOL   C23012814   5.654   5.346   6.109 -0.2864  0.5622  0.7393
   53MOL   C23112815   5.678   5.212   6.179  0.0100 -0.9112  0.3514
   53MOL   C23212816   5.805   5.207   6.263  0.2656 -0.7946 -0.3271
   53MOL   O23312817   5.880   5.113   6.236 -0.5769 -0.2225  0.0482
   53MOL   O23412818   5.818   5.297   6.357  0.3112  0.0348  0.1582
   53MOL   C23512819   5.929   5.280   6.449 -0.0925 -0.6265  0.2698
   53MOL   H23612820   5.644   5.421   6.187  0.9238 -0.0112  1.4622
   53MOL   H23712821   5.555   5.334   6.066  0.1216  1.4809 -0.5174
   53MOL   H23812822   5.681   5.130   6.107  0.3183 -1.1690  0.6568
   53MOL   H23912823   5.941   5.374   6.503  0.0751 -0.5093  0.0297
   53MOL   H24012824   6.025   5.267   6.400 -1.0670  1.1818 -2.2084
   53MOL   H24112825   5.906   5.198   6.517 -2.5566 -0.5211 -0.4007
   53MOL   H24212826   5.598   5.186   6.248  0.0085  0.1759  0.7699
   54MOL     C112827   0.107   5.252   6.216  0.4145  0.1599  0.8992
   54MOL     C212828   0.212   5.331   6.144  0.3747 -0.1201  0.0176
   54MOL     C312829   0.332   5.238   6.119 -0.7425 -1.1034  0.1976
   54MOL     O412830   0.358   5.185   6.010  0.7566 -0.2376  0.0322
   54MOL     O512831   0.398   5.226   6.232  0.8791  0.0021 -0.2390
   54MOL     C612832   0.511   5.135   6.235 -0.0162  0.6578 -0.0619
   54MOL     H712833   0.154   5.214   6.306  2.9185  2.8953  0.8110
   54MOL     H812834   0.052   5.178   6.157  0.8705  0.0963  0.5530
   54MOL     H912835   0.245   5.410   6.211  2.5191 -0.4854 -0.5508
   54MOL    H1012836   0.579   5.158   6.154  0.8982  1.2529  0.8565
   54MOL    H1112837   0.486   5.033   6.206  0.2909  0.4906  0.2601
   54MOL    H1212838   0.571   5.118   6.324  1.4869 -1.0150 -1.3738
   54MOL    H1312839   0.024   5.320   6.237  0.2254  0.4530 -0.7455
   54MOL    C1412840   0.159   5.405   6.013  0.3512 -0.8698 -1.1105
   54MOL    C1512841   0.045   5.514   6.026 -0.0218 -0.4521 -1.0034
   54MOL    C1612842   0.098   5.611   6.132 -0.0532 -0.0281 -0.1404
   54MOL    O1712843   0.063   5.594   6.254  0.8437  0.4620  0.2956
   54MOL    O1812844   0.193   5.692   6.093 -0.4613 -0.7153  0.1455
   54MOL    C1912845   0.260   5.777   6.183 -0.3737 -0.0993 -0.2946
   54MOL    H2012846   0.238   5.453   5.954 -0.0482  0.6553 -0.4318
   54MOL    H2112847   0.116   5.317   5.964 -1.4838 -0.7304  0.2032
   54MOL    H2212848   7.893   5.461   6.067  2.0701 -1.8489  1.6908
   54MOL    H2312849   0.318   5.850   6.126  0.0242 -0.1331  0.0624
   54MOL    H2412850   0.328   5.710   6.236  0.3820  0.9767  0.1113
   54MOL    H2512851   0.203   5.823   6.263  0.8505 -0.4181  0.7831
   54MOL    C2612852   0.019   5.579   5.883  0.4841  0.9382 -0.0105
   54MOL    C2712853   7.857   5.696   5.866 -0.8684  0.1407  0.0307
   54MOL    C2812854   7.845   5.732   5.723  0.0466  0.4245  0.1973
   54MOL    O2912855   7.872   5.839   5.679  0.4047 -1.2099 -0.2038
   54MOL    O3012856   7.780   5.635   5.648 -0.3052  0.0710  0.1200
   54MOL    C3112857   7.749   5.653   5.511 -0.4579  0.7277  0.3598
   54MOL    H3212858   0.113   5.603   5.833  1.0385  1.3114  1.1774
   54MOL    H3312859   7.918   5.495   5.823 -2.1373  1.9496  0.0218
   54MOL    H3412860   7.908   5.781   5.911 -1.4637 -0.0280  1.0143
   54MOL    H3512861   7.693   5.566   5.478  0.2467  1.1177 -1.9163
   54MOL    H3612862   7.838   5.684   5.456  0.1171  0.2402  1.0053
   54MOL    H3712863   7.671   5.728   5.503 -0.1330  0.9331 -0.9608
   54MOL    C3812864   7.717   5.682   5.940 -0.3211 -0.6053 -0.3262
   54MOL    C3912865   7.658   5.807   6.014  0.2131 -0.0039  0.6036
   54MOL    C4012866   7.744   5.834   6.138  0.4761 -0.6124  0.1401
   54MOL    O4112867   7.859   5.882   6.132 -0.4350  0.2889  0.2428
   54MOL    O4212868   7.679   5.819   6.255  0.0146 -0.8548  0.4863
   54MOL    C4312869   7.726   5.870   6.376 -0.1098  0.6236  0.3226
   54MOL    H4412870   7.643   5.647   5.867 -0.2912 -0.1069 -0.6018
   54MOL    H4512871   7.715   5.596   6.006 -1.1887  0.1050  0.5805
   54MOL    H4612872   7.563   5.767   6.048  0.1381  0.2629  0.7094
   54MOL    H4712873   7.661   5.838   6.458 -1.4485  1.1191 -0.5379
   54MOL    H4812874   7.721   5.979   6.375 -1.6689  0.5639  1.2031
   54MOL    H4912875   7.826   5.833   6.398 -0.6749 -1.0798  0.0670
   54MOL    C5012876   7.629   5.938   5.927  0.7897 -0.7551  0.4406
   54MOL    C5112877   7.506   6.020   5.982 -0.2683 -0.2412  0.8223
   54MOL    C5212878   7.523   6.169   5.951  0.4159  0.6051 -0.1681
   54MOL    O5312879   7.571   6.246   6.033  0.0934 -0.3501  0.2116
   54MOL    O5412880   7.492   6.208   5.826 -0.3264  0.3098  0.1803
   54MOL    C5512881   7.496   6.342   5.785  0.4529 -0.3407  0.3396
   54MOL    H5612882   7.714   6.007   5.933  0.5536 -0.6509  3.4328
   54MOL    H5712883   7.609   5.913   5.823 -0.8744  0.6392  0.4011
   54MOL    H5812884   7.514   6.011   6.091  1.3987 -2.8951  0.5378
   54MOL    H5912885   7.422   6.395   5.844  2.9394  1.4472  1.9676
   54MOL    H6012886   7.461   6.348   5.682  1.9799 -0.1811 -0.1803
   54MOL    H6112887   7.599   6.375   5.802 -0.1621  1.6914  0.1949
   54MOL    C6212888   7.377   5.952   5.932 -0.2381  0.0757  0.5076
   54MOL    C6312889   7.259   5.944   6.038  0.0941  0.1685 -0.1585
   54MOL    C6412890   7.310   5.877   6.167 -0.3603  0.2032  0.1011
   54MOL    O6512891   7.346   5.940   6.270  0.1813  0.3332  0.2679
   54MOL    O6612892   7.302   5.748   6.152 -0.2981  0.3007 -0.0811
   54MOL    C6712893   7.334   5.660   6.255 -0.3078 -0.2009 -0.8501
   54MOL    H6812894   7.345   6.003   5.841 -1.2077 -0.6590  0.4290
   54MOL    H6912895   7.417   5.855   5.902  0.4978  0.6084 -0.2695
   54MOL    H7012896   7.188   5.873   5.995 -2.5940  1.6288  1.7442
   54MOL    H7112897   7.330   5.556   6.221 -0.6218 -0.1087 -1.0963
   54MOL    H7212898   7.266   5.671   6.339  1.1869 -0.1336  0.3809
   54MOL    H7312899   7.441   5.668   6.276  0.0624 -1.6803 -2.1147
   54MOL    C7412900   7.190   6.081   6.055  0.0634 -0.0687 -0.0031
   54MOL    C7512901   7.083   6.127   5.941  0.3128 -0.1028  0.4025
   54MOL    C7612902   6.940   6.090   5.988  1.0982 -0.2940  0.6154
   54MOL    O7712903   6.885   6.006   5.920 -0.9020 -0.1854  0.3404
   54MOL    O7812904   6.897   6.152   6.106 -0.4839 -0.2880  0.0088
   54MOL    C7912905   6.771   6.132   6.152 -0.3088  0.0822 -0.6748
   54MOL    H8012906   7.152   6.090   6.157  2.0186 -1.0627  0.8302
   54MOL    H8112907   7.271   6.154   6.057  2.0303 -2.1732 -0.7336
   54MOL    H8212908   7.107   6.066   5.854  4.0345 -1.8673  2.5435
   54MOL    H8312909   6.740   6.210   6.221  1.4633 -0.1963  0.4808
   54MOL    H8412910   6.770   6.033   6.198 -0.5161  0.3551 -0.0927
   54MOL    H8512911   6.699   6.137   6.070 -2.1754 -0.8308  0.8729
   54MOL    C8612912   7.091   6.277   5.907 -0.2774  0.0833 -0.0649
   54MOL    C8712913   7.044   6.311   5.767  0.4649 -0.1336 -0.2688
   54MOL    C8812914   7.007   6.458   5.760  0.3040  0.6975  0.2350
   54MOL    O8912915   6.895   6.498   5.725 -0.1447  0.0308 -0.0037
   54MOL    O9012916   7.113   6.535   5.779  0.1146 -0.8129 -0.9671
   54MOL    C9112917   7.092   6.673   5.765 -0.7041 -0.3825 -0.1259
   54MOL    H9212918   7.040   6.337   5.982  1.5077  0.7498  0.6353
   54MOL    H9312919   7.197   6.305   5.911 -0.1732 -0.1082 -1.3081
   54MOL    H9412920   6.951   6.257   5.752  0.0397  0.8242 -1.1044
   54MOL    H9512921   7.031   6.710   5.682  0.9749 -1.2348 -1.7892
   54MOL    H9612922   7.186   6.728   5.767  0.0126 -1.5915 -0.1105
   54MOL    H9712923   7.040   6.690   5.859 -1.8272  0.7375 -0.9250
   54MOL    C9812924   7.150   6.276   5.660  0.0524 -0.1407 -0.2850
   54MOL    C9912925   7.070   6.248   5.529  0.8613 -0.4864 -0.0556
   54MOL   C10012926   7.052   6.369   5.441 -0.2669  0.5689  0.6610
   54MOL   O10112927   7.153   6.441   5.422  0.1707  0.2755 -0.3810
   54MOL   O10212928   6.941   6.366   5.379 -0.2443  0.0165 -0.1674
   54MOL   C10312929   6.919   6.457   5.278 -0.3907  0.5544 -0.5419
   54MOL   H10412930   7.223   6.356   5.654 -4.0441  4.2105  3.6650
   54MOL   H10512931   7.205   6.188   5.692 -0.0108  0.3643  1.2226
   54MOL   H10612932   6.969   6.218   5.556 -0.4670  2.0508 -1.9555
   54MOL   H10712933   6.814   6.486   5.282 -0.8098 -1.0598  1.1924
   54MOL   H10812934   6.926   6.405   5.183  0.1606  1.2545 -0.8882
   54MOL   H10912935   6.987   6.542   5.284  2.2882 -1.5994  0.6039
   54MOL   C11012936   7.134   6.122   5.456 -0.3365  0.3308  0.5513
   54MOL   C11112937   7.074   6.087   5.307  0.6607 -0.0706  0.0842
   54MOL   C11212938   7.170   5.998   5.233  0.0166  0.5059 -0.2135
   54MOL   O11312939   7.209   6.022   5.119 -0.2204  0.0204  0.0193
   54MOL   O11412940   7.201   5.890   5.300 -0.1231  0.0639 -0.2539
   54MOL   C11512941   7.299   5.797   5.250  0.0905 -0.4918 -0.7689
   54MOL   H11612942   7.238   6.154   5.449 -0.5353  1.0615  0.9199
   54MOL   H11712943   7.126   6.029   5.512  0.9147 -1.5791 -2.3226
   54MOL   H11812944   7.069   6.174   5.242  0.7303  0.3204  0.6032
   54MOL   H11912945   7.332   5.724   5.324  1.0334  1.4803  0.8234
   54MOL   H12012946   7.384   5.850   5.206  0.3721 -0.9621 -0.7916
   54MOL   H12112947   7.255   5.745   5.166 -3.2137 -1.5647  1.5244
   54MOL   C12212948   6.929   6.035   5.313  0.0628  0.1590 -0.6787
   54MOL   C12312949   6.837   6.084   5.195  0.0288 -0.5137  0.3304
   54MOL   C12412950   6.889   6.051   5.050 -0.3432 -0.2499 -0.1409
   54MOL   O12512951   6.912   6.136   4.964 -0.5452  0.2492 -0.0682
   54MOL   O12612952   6.914   5.917   5.026 -0.1855  0.6081 -0.1023
   54MOL   C12712953   6.945   5.879   4.901 -0.5062  0.2007 -0.0108
   54MOL   H12812954   6.934   5.926   5.317  2.7279  0.3228  1.3862
   54MOL   H12912955   6.888   6.073   5.406  2.5877  0.8808  0.1563
   54MOL   H13012956   6.830   6.192   5.205 -0.0914 -0.2817 -2.1230
   54MOL   H13112957   6.933   5.771   4.906  0.1370  0.0514 -1.2359
   54MOL   H13212958   7.046   5.904   4.868 -1.6546  3.1394 -1.5198
   54MOL   H13312959   6.888   5.912   4.813  1.0581 -1.8148 -1.8406
   54MOL   C13412960   6.694   6.036   5.216  0.5191  0.1806 -0.5874
   54MOL   C13512961   6.602   6.154   5.264 -0.0524 -0.0728 -0.0613
   54MOL   C13612962   6.550   6.227   5.139  0.3687  0.1317 -0.3051
   54MOL   O13712963   6.429   6.220   5.103 -0.0944  0.1282  0.6182
   54MOL   O13812964   6.643   6.284   5.069 -0.9050  0.8195  0.5814
   54MOL   C13912965   6.614   6.342   4.947  0.1501  0.5854 -0.1300
   54MOL   H14012966   6.654   6.002   5.121 -0.5403  0.1118 -0.1228
   54MOL   H14112967   6.687   5.955   5.289 -1.6767  0.6759 -0.2154
   54MOL   H14212968   6.664   6.232   5.310  0.3250  0.0239 -0.7258
   54MOL   H14312969   6.592   6.264   4.875 -0.0117  1.3842 -0.9639
   54MOL   H14412970   6.690   6.397   4.892  1.1693 -1.1391 -0.4788
   54MOL   H14512971   6.532   6.413   4.955 -1.3905 -1.1071 -0.8377
   54MOL   C14612972   6.490   6.109   5.357  0.1732 -0.1944 -0.9973
   54MOL   C14712973   6.521   6.087   5.512  0.1954  0.0222  0.2184
   54MOL   C14812974   6.575   6.220   5.581  0.0589  0.9139  0.0045
   54MOL   O14912975   6.679   6.223   5.652  0.0009 -0.2849  0.2467
   54MOL   O15012976   6.494   6.325   5.558 -0.1410 -0.2618  0.2036
   54MOL   C15112977   6.517   6.445   5.624  0.0568 -0.4703 -0.4041
   54MOL   H15212978   6.409   6.181   5.359 -1.5906 -2.1170 -1.5159
   54MOL   H15312979   6.458   6.012   5.319 -2.4233 -0.8526  2.6230
   54MOL   H15412980   6.607   6.021   5.519 -0.6975 -1.0835  0.9036
   54MOL   H15512981   6.446   6.447   5.707 -1.0153  0.9685 -1.3352
   54MOL   H15612982   6.502   6.533   5.562 -0.3472  0.4884  1.0225
   54MOL   H15712983   6.620   6.462   5.658  0.0845  1.6116 -1.4115
   54MOL   C15812984   6.399   6.036   5.587  0.4922  0.0551  0.0130
   54MOL   C15912985   6.351   5.889   5.550 -0.2189  0.5246  0.5496
   54MOL   C16012986   6.421   5.784   5.645 -0.2900 -0.4031  0.2525
   54MOL   O16112987   6.505   5.814   5.732  0.0791  0.5809  0.3497
   54MOL   O16212988   6.396   5.664   5.603  0.4767 -0.4671 -0.3093
   54MOL   C16312989   6.465   5.552   5.652  0.1708  0.3970 -0.4639
   54MOL   H16412990   6.421   6.030   5.694  2.7448  0.6971 -0.3892
   54MOL   H16512991   6.316   6.107   5.576  1.8155  1.3948 -1.5671
   54MOL   H16612992   6.382   5.871   5.447 -1.2255 -0.5166  0.4267
   54MOL   H16712993   6.439   5.549   5.758 -0.9062 -0.9378 -0.7483
   54MOL   H16812994   6.570   5.572   5.634  0.4830 -2.0662 -1.5364
   54MOL   H16912995   6.425   5.457   5.618  1.1896 -0.9194  1.8767
   54MOL   C17012996   6.193   5.888   5.552  0.2321 -0.0887  0.2954
   54MOL   C17112997   6.134   5.923   5.412 -0.4149  0.3700 -0.3236
   54MOL   C17212998   6.126   5.802   5.326  0.4556  0.0500 -0.3883
   54MOL   O17312999   6.209   5.762   5.248  0.2283  0.0049 -0.1115
   54MOL   O17413000   6.005   5.739   5.347 -0.0778 -0.5843 -0.6410
   54MOL   C17513001   5.980   5.614   5.290 -0.5308  0.5262  0.9794
   54MOL   H17613002   6.170   5.789   5.591 -2.6911  0.5823  0.3348
   54MOL   H17713003   6.157   5.947   5.636 -0.6635 -0.3718  0.1127
   54MOL   H17813004   6.200   5.986   5.352  1.2182 -1.2929 -0.3294
   54MOL   H17913005   5.919   5.551   5.354  1.0190 -1.3290  0.7039
   54MOL   H18013006   6.058   5.540   5.270 -0.3428  1.4484 -2.0474
   54MOL   H18113007   5.919   5.632   5.201  1.4903 -0.2661 -0.6195
   54MOL   C18213008   6.004   5.997   5.428  0.4330 -0.3965 -0.0680
   54MOL   C18313009   6.020   6.142   5.483  0.2302  0.1019 -0.1637
   54MOL   C18413010   6.089   6.229   5.385 -0.0406  0.1106 -0.1378
   54MOL   O18513011   6.084   6.208   5.264  0.3474 -0.2861 -0.6157
   54MOL   O18613012   6.154   6.335   5.445 -0.6465  0.2759  0.5829
   54MOL   C18713013   6.240   6.421   5.370  0.0713  0.2806  0.2313
   54MOL   H18813014   5.949   6.001   5.335  1.7844  0.3397 -0.8626
   54MOL   H18913015   5.939   5.945   5.498  1.0755  0.6040  1.3256
   54MOL   H19013016   6.067   6.136   5.580 -2.6052 -0.5104  1.2262
   54MOL   H19113017   6.341   6.380   5.373 -0.7872 -1.8844  0.6922
   54MOL   H19213018   6.252   6.518   5.417  2.3439 -0.3890  1.1015
   54MOL   H19313019   6.210   6.445   5.268  1.1766  1.3375  0.1434
   54MOL   C19413020   5.892   6.211   5.523  0.8042 -0.9354  0.3062
   54MOL   C19513021   5.905   6.304   5.652  0.2153 -0.1323 -0.1995
   54MOL   C19613022   5.825   6.437   5.637  0.4827  0.3652  0.5470
   54MOL   O19713023   5.716   6.454   5.690 -0.4344 -0.1480  0.5942
   54MOL   O19813024   5.884   6.526   5.547 -0.4672  0.3382 -0.0474
   54MOL   C19913025   5.811   6.631   5.490  0.3312 -0.6367 -0.2738
   54MOL   H20013026   5.861   6.283   5.448  0.3154 -1.6236 -0.1680
   54MOL   H20113027   5.813   6.136   5.537 -0.7268  0.9896  2.3269
   54MOL   H20213028   6.010   6.333   5.664  0.3985 -0.8960  0.0244
   54MOL   H20313029   5.757   6.691   5.563 -2.0664 -1.2436 -1.4954
   54MOL   H20413030   5.733   6.586   5.429  0.1170 -0.8753  0.1731
   54MOL   H20513031   5.873   6.694   5.427  0.2869 -0.8914 -0.5735
   54MOL   C20613032   5.859   6.223   5.778  0.2024  0.1777  0.3562
   54MOL   C20713033   5.945   6.252   5.904  0.5525  0.3918  0.0422
   54MOL   C20813034   5.906   6.390   5.958  0.3758 -0.1587  0.0230
   54MOL   O20913035   5.983   6.485   5.964 -0.1411 -0.2945 -0.3473
   54MOL   O21013036   5.778   6.388   6.005 -0.1623 -0.5537  1.2633
   54MOL   C21113037   5.731   6.505   6.071 -0.7041 -0.6732 -0.4875
   54MOL   H21213038   5.756   6.241   5.810  0.3595  2.4703 -0.3103
   54MOL   H21313039   5.852   6.118   5.748  0.5498  0.0889  0.5793
   54MOL   H21413040   6.044   6.268   5.861  1.6905 -1.7025  1.8292
   54MOL   H21513041   5.764   6.506   6.175  0.5491 -0.5356 -0.8689
   54MOL   H21613042   5.622   6.508   6.071 -0.7336 -0.2117 -2.8313
   54MOL   H21713043   5.769   6.600   6.031 -0.6257  0.6507  2.6237
   54MOL   C21813044   5.959   6.132   5.998 -0.2720 -0.2487 -0.2647
   54MOL   C21913045   6.077   6.103   6.093 -0.9694  0.3241 -0.3285
   54MOL   C22013046   6.202   6.059   6.018 -0.3132  0.0445  0.1621
   54MOL   O22113047   6.223   6.083   5.898  0.5867 -0.0551 -0.6200
   54MOL   O22213048   6.291   5.988   6.097 -1.0311 -0.1156  0.3144
   54MOL   C22313049   6.408   5.941   6.035 -0.4834 -0.2700 -0.4135
   54MOL   H22413050   5.873   6.134   6.066  0.4626 -0.7824  0.7010
   54MOL   H22513051   5.967   6.043   5.936 -0.4421 -0.3089 -0.2013
   54MOL   H22613052   6.041   6.021   6.155  0.5126  0.4560  0.7526
   54MOL   H22713053   6.416   5.947   5.927 -0.9441 -3.6752 -0.6884
   54MOL   H22813054   6.396   5.835   6.059  1.1891 -0.3638  0.1111
   54MOL   H22913055   6.493   5.980   6.091 -0.7211 -0.0440 -0.2083
   54MOL   C23013056   6.112   6.228   6.176  0.5507  0.1819  0.2356
   54MOL   C23113057   6.172   6.201   6.315 -0.4510  0.5965 -0.3127
   54MOL   C23213058   6.157   6.321   6.411  0.3633 -0.0513 -0.1778
   54MOL   O23313059   6.071   6.407   6.393 -0.0828  0.1709 -0.1264
   54MOL   O23413060   6.263   6.324   6.498 -0.0088 -0.2620 -0.2154
   54MOL   C23513061   6.277   6.431   6.585  0.4271 -0.9102 -0.2654
   54MOL   H23613062   6.173   6.294   6.116  3.2405 -1.2164  1.3612
   54MOL   H23713063   6.019   6.284   6.191  0.3954 -0.3994  1.5732
   54MOL   H23813064   6.277   6.176   6.300 -0.6235 -0.1785 -0.2340
   54MOL   H23913065   6.283   6.408   6.692  2.4772  1.2921  0.1476
   54MOL   H24013066   6.199   6.504   6.561 -0.4538 -2.7450 -3.1777
   54MOL   H24113067   6.371   6.475   6.552  0.5204 -0.3242  0.7335
   54MOL   H24213068   6.122   6.112   6.353 -1.1072  1.6073  1.2347
   55MOL     C113069   3.013   4.201   6.958  0.9196 -0.8950  0.1609
   55MOL     C213070   3.081   4.305   6.871  0.2537  0.6391  0.4880
   55MOL     C313071   2.998   4.436   6.870 -0.3091 -0.3785 -0.3672
   55MOL     O413072   3.018   4.528   6.948  0.1938 -0.0048 -0.7132
   55MOL     O513073   2.908   4.441   6.770  0.7780  0.1770  0.4311
   55MOL     C613074   2.824   4.552   6.752  0.3296 -0.5030  0.8161
   55MOL     H713075   2.916   4.162   6.930  1.0605 -0.8650 -0.3833
   55MOL     H813076   2.988   4.254   7.050  2.0618  0.8638 -0.5026
   55MOL     H913077   3.069   4.274   6.768  2.8082 -0.5283  0.4989
   55MOL    H1013078   2.731   4.510   6.712 -0.4042  0.8910  1.0455
   55MOL    H1113079   2.877   4.634   6.703  1.3018  0.5903  3.6166
   55MOL    H1213080   2.800   4.586   6.853  0.4642  1.7429  0.1244
   55MOL    H1313081   3.063   4.105   6.967 -0.3708 -1.4060  2.0850
   55MOL    C1413082   3.237   4.321   6.907  0.3073 -0.8411 -0.1777
   55MOL    C1513083   3.320   4.417   6.820  0.1545  0.2565  0.7058
   55MOL    C1613084   3.460   4.434   6.873  0.1427  0.6792  0.2462
   55MOL    O1713085   3.512   4.367   6.960  0.0941  0.0130  0.4107
   55MOL    O1813086   3.522   4.532   6.808  0.1711 -0.7226 -0.3810
   55MOL    C1913087   3.656   4.569   6.835  0.1659 -0.4381 -0.1392
   55MOL    H2013088   3.233   4.365   7.006 -0.6313  1.5291 -1.2291
   55MOL    H2113089   3.282   4.221   6.911  0.1593 -0.9470 -0.9336
   55MOL    H2213090   3.274   4.515   6.815  0.1098  0.1904 -0.1685
   55MOL    H2313091   3.659   4.590   6.942  0.7715  0.1350 -0.2692
   55MOL    H2413092   3.694   4.657   6.783  0.4856  0.5997  1.8024
   55MOL    H2513093   3.726   4.490   6.807  0.9770 -0.3174  1.4744
   55MOL    C2613094   3.322   4.376   6.672  0.6542 -0.5616  0.3994
   55MOL    C2713095   3.391   4.227   6.655 -0.0508 -0.1956  0.1515
   55MOL    C2813096   3.279   4.126   6.635 -0.2959  0.5383 -0.3131
   55MOL    O2913097   3.201   4.125   6.540 -0.2967  0.0029 -0.0526
   55MOL    O3013098   3.291   4.033   6.727 -0.8241 -0.4194  0.1198
   55MOL    C3113099   3.201   3.926   6.713 -0.2177  0.6599  0.2592
   55MOL    H3213100   3.222   4.379   6.628  0.5725 -1.2097  0.5314
   55MOL    H3313101   3.379   4.446   6.611  2.0461 -0.8794  1.3201
   55MOL    H3413102   3.442   4.202   6.748 -0.1497  1.0506  0.5606
   55MOL    H3513103   3.214   3.877   6.617 -0.7737 -0.4640  0.7399
   55MOL    H3613104   3.095   3.954   6.717 -0.5743 -0.6777  0.6674
   55MOL    H3713105   3.216   3.855   6.794  1.5866 -0.6213 -1.1645
   55MOL    C3813106   3.503   4.230   6.548 -0.3293 -0.0319  0.1867
   55MOL    C3913107   3.468   4.290   6.408 -0.8102  0.0771 -0.7538
   55MOL    C4013108   3.523   4.430   6.388  0.3063  1.0588  0.6765
   55MOL    O4113109   3.441   4.515   6.350  0.2302  0.1415  0.3891
   55MOL    O4213110   3.654   4.446   6.411  0.2887 -0.2743  0.0606
   55MOL    C4313111   3.710   4.574   6.405 -0.5310 -0.6860 -0.0927
   55MOL    H4413112   3.579   4.275   6.611 -1.9083  1.2208  1.2508
   55MOL    H4513113   3.537   4.128   6.529  1.1483 -0.2922  3.8111
   55MOL    H4613114   3.360   4.302   6.407 -0.8810 -0.3067  0.4898
   55MOL    H4713115   3.696   4.641   6.490  2.6849 -0.5896  0.4078
   55MOL    H4813116   3.678   4.628   6.316 -2.4242 -2.0046 -0.2540
   55MOL    H4913117   3.819   4.569   6.402 -0.2388  2.5884  2.2516
   55MOL    C5013118   3.497   4.189   6.296  0.2394 -0.4646 -0.3457
   55MOL    C5113119   3.446   4.248   6.166  0.2969 -0.4065  0.4989
   55MOL    C5213120   3.549   4.297   6.074 -0.4858 -0.0074 -0.0757
   55MOL    O5313121   3.667   4.266   6.090  0.3804 -0.6632 -0.6428
   55MOL    O5413122   3.514   4.384   5.980  0.2316 -0.1870 -0.1979
   55MOL    C5513123   3.615   4.429   5.890 -0.0808  0.4885  0.4232
   55MOL    H5613124   3.604   4.167   6.295  0.2638 -0.4285 -2.3694
   55MOL    H5713125   3.442   4.098   6.319  0.9367 -0.5991  0.8385
   55MOL    H5813126   3.374   4.329   6.177 -0.1206 -0.8014  0.6782
   55MOL    H5913127   3.678   4.342   5.870 -0.0173  0.2975  1.4110
   55MOL    H6013128   3.673   4.509   5.937 -0.2256  0.1772  1.1544
   55MOL    H6113129   3.573   4.460   5.795  3.4280  1.3086 -0.9351
   55MOL    C6213130   3.370   4.138   6.087  0.9508 -0.3920  0.5244
   55MOL    C6313131   3.236   4.099   6.148 -0.5492 -0.3078  0.0898
   55MOL    C6413132   3.125   4.213   6.157 -0.3974  0.2151  0.5540
   55MOL    O6513133   3.035   4.215   6.072  0.1897  0.2542 -0.1225
   55MOL    O6613134   3.129   4.296   6.264  0.3321 -0.1523 -0.4182
   55MOL    C6713135   3.023   4.390   6.281  0.1593  0.5153 -1.0219
   55MOL    H6813136   3.348   4.178   5.988  0.8619  0.2437  0.7947
   55MOL    H6913137   3.441   4.058   6.070  0.0566 -1.2136  0.5742
   55MOL    H7013138   3.267   4.082   6.251 -0.7131 -0.2446  0.1488
   55MOL    H7113139   2.928   4.342   6.303  1.1657 -0.7279  0.7151
   55MOL    H7213140   3.007   4.444   6.188  1.0182  2.4522 -0.0767
   55MOL    H7313141   3.051   4.458   6.361  0.6068 -1.8686  0.9252
   55MOL    C7413142   3.180   3.971   6.087  0.2132  0.0356 -0.8525
   55MOL    C7513143   3.067   3.894   6.153 -0.1763  0.4606  0.5674
   55MOL    C7613144   2.996   3.788   6.067 -0.6720  0.2223 -0.0064
   55MOL    O7713145   2.902   3.724   6.109 -0.0555 -0.1786 -0.2218
   55MOL    O7813146   3.043   3.778   5.953  0.1572  0.2449  0.2742
   55MOL    C7913147   2.991   3.680   5.856 -0.5640 -0.4403 -0.4587
   55MOL    H8013148   3.137   4.003   5.992  0.0063 -0.3362 -0.8843
   55MOL    H8113149   3.254   3.897   6.059  1.1525  1.3765 -1.9869
   55MOL    H8213150   2.988   3.962   6.184  0.0993  0.7132  0.7288
   55MOL    H8313151   2.884   3.679   5.836 -0.5548  0.8364 -0.6040
   55MOL    H8413152   3.017   3.577   5.880  0.6841 -0.3431 -1.3230
   55MOL    H8513153   3.036   3.706   5.760 -0.6284  2.1327  0.1795
   55MOL    C8613154   3.108   3.830   6.290 -0.3139 -0.6530 -0.0183
   55MOL    C8713155   2.995   3.778   6.391  0.4097 -0.1132 -0.7504
   55MOL    C8813156   3.045   3.692   6.508  0.6286 -0.7894 -0.1296
   55MOL    O8913157   3.020   3.710   6.624 -0.6667 -0.0829 -0.4741
   55MOL    O9013158   3.129   3.598   6.472 -0.3122  0.1239 -0.0956
   55MOL    C9113159   3.201   3.520   6.573  0.7008 -0.5632 -0.4022
   55MOL    H9213160   3.180   3.753   6.263 -2.2371 -1.9239 -1.6243
   55MOL    H9313161   3.172   3.896   6.348 -3.5665  2.2970  0.4447
   55MOL    H9413162   2.937   3.702   6.339 -0.7396  1.9831 -2.6204
   55MOL    H9513163   3.291   3.479   6.528  3.0128  0.8462  2.7494
   55MOL    H9613164   3.146   3.437   6.618  1.6789 -0.1968  1.5354
   55MOL    H9713165   3.241   3.585   6.651  0.0340  2.1531 -2.3014
   55MOL    C9813166   2.895   3.891   6.440 -0.1690  0.3700  0.4546
   55MOL    C9913167   2.743   3.871   6.447 -0.5244 -0.2453  0.1354
   55MOL   C10013168   2.669   3.839   6.315 -0.3081 -0.0496 -0.0300
   55MOL   O10113169   2.598   3.740   6.296  0.0630 -0.3077  0.1949
   55MOL   O10213170   2.697   3.929   6.209  0.0337  0.3200 -0.1325
   55MOL   C10313171   2.625   3.920   6.089 -0.1269 -0.1455  0.3370
   55MOL   H10413172   2.926   3.909   6.544 -2.1534  2.6147  0.7124
   55MOL   H10513173   2.920   3.987   6.395 -2.7328  0.7220 -0.2624
   55MOL   H10613174   2.703   3.971   6.463 -0.9645 -0.2000 -1.1762
   55MOL   H10713175   2.527   3.956   6.123  0.3126  2.2416 -0.8175
   55MOL   H10813176   2.617   3.825   6.038  0.1906  0.5760 -1.0761
   55MOL   H10913177   2.673   3.998   6.031 -2.1322  1.2078  0.4405
   55MOL   C11013178   2.688   3.773   6.555 -0.1927  1.0195 -0.1092
   55MOL   C11113179   2.712   3.818   6.705  0.0100  0.3923  0.1267
   55MOL   C11213180   2.629   3.940   6.745  0.4541 -0.4201  0.2388
   55MOL   O11313181   2.517   3.925   6.797  0.2486  0.0939  0.1373
   55MOL   O11413182   2.689   4.055   6.735 -0.3625  0.4835  0.0019
   55MOL   C11513183   2.625   4.174   6.772 -0.2436 -0.0450 -0.0853
   55MOL   H11613184   2.588   3.732   6.557  0.6554 -1.1212  2.7231
   55MOL   H11713185   2.748   3.685   6.531  2.3731  2.4005  1.0629
   55MOL   H11813186   2.818   3.840   6.709  0.4472 -1.2674 -1.5473
   55MOL   H11913187   2.521   4.193   6.744 -0.4923  1.6767  1.8721
   55MOL   H12013188   2.683   4.263   6.747 -0.9421  0.8083  1.2454
   55MOL   H12113189   2.637   4.173   6.881  1.5779  0.9851 -0.2662
   55MOL   C12213190   2.694   3.697   6.801  0.4499 -0.8330  0.4057
   55MOL   C12313191   2.762   3.689   6.942 -0.3486  0.2964 -0.2806
   55MOL   C12413192   2.695   3.765   7.050  0.3279 -0.3001  0.6059
   55MOL   O12513193   2.598   3.722   7.115 -0.3583  0.2332  0.3763
   55MOL   O12613194   2.748   3.888   7.051  0.1006  0.0530  0.4225
   55MOL   C12713195   2.706   3.983   7.147 -0.2492 -0.3813 -0.1920
   55MOL   H12813196   2.586   3.686   6.812  0.2811 -1.1906 -1.3884
   55MOL   H12913197   2.729   3.610   6.745  3.5185  0.3225  0.4471
   55MOL   H13013198   2.861   3.735   6.935 -0.3245  0.6221  1.8479
   55MOL   H13113199   2.778   4.066   7.152 -1.8063  0.9991 -0.3287
   55MOL   H13213200   2.696   3.938   7.245  1.2093 -1.9902 -0.7387
   55MOL   H13313201   2.611   4.028   7.118 -0.3839 -1.7946 -2.0374
   55MOL   C13413202   2.769   3.539   6.975  0.2174  0.0996 -0.1512
   55MOL   C13513203   2.872   3.449   6.906  0.2287  1.0466 -0.0614
   55MOL   C13613204   3.005   3.454   6.985  0.3787  0.3637  0.0545
   55MOL   O13713205   3.048   3.358   7.046  0.3584  0.6150 -0.2481
   55MOL   O13813206   3.067   3.580   6.994 -0.1805 -0.4708  0.3144
   55MOL   C13913207   3.186   3.595   7.069 -0.6004 -0.3100  0.3787
   55MOL   H14013208   2.788   3.518   7.080  2.1086 -2.3372 -0.9472
   55MOL   H14113209   2.665   3.505   6.972  0.4321 -0.6894  0.9468
   55MOL   H14213210   2.888   3.495   6.809  1.4144  0.9386  0.0734
   55MOL   H14313211   3.171   3.548   7.167 -0.8956 -0.5931  0.1981
   55MOL   H14413212   3.217   3.697   7.091 -0.6103  0.0608 -1.3152
   55MOL   H14513213   3.266   3.547   7.014  0.5472  0.7225  1.1118
   55MOL   C14613214   2.827   3.296   6.874  0.7619  0.1353  0.4928
   55MOL   C14713215   2.742   3.285   6.742 -0.0410  0.0825 -1.1481
   55MOL   C14813216   2.847   3.279   6.629  0.0768 -0.3786 -0.7274
   55MOL   O14913217   2.874   3.375   6.560  0.0770 -0.3191  0.4572
   55MOL   O15013218   2.904   3.162   6.617 -0.3831  0.5370 -0.5406
   55MOL   C15113219   2.994   3.137   6.507 -0.3594 -0.3191  0.4271
   55MOL   H15213220   2.911   3.227   6.880  0.3739 -0.4078 -0.3570
   55MOL   H15313221   2.765   3.260   6.957 -0.0953  1.1748  0.3133
   55MOL   H15413222   2.682   3.373   6.721 -2.1668 -1.4581 -1.7740
   55MOL   H15513223   3.013   3.030   6.508 -1.1361 -0.4601  0.6705
   55MOL   H15613224   3.083   3.196   6.530 -0.1588 -0.9324  1.2223
   55MOL   H15713225   2.969   3.176   6.408 -3.7021 -1.2347  0.8346
   55MOL   C15813226   2.653   3.151   6.755  0.1639 -0.2071 -0.4848
   55MOL   C15913227   2.507   3.169   6.812  0.8717  1.0036 -0.0725
   55MOL   C16013228   2.422   3.241   6.715 -0.6093 -0.1292  0.0768
   55MOL   O16113229   2.356   3.182   6.631 -0.1133  0.8861 -0.1308
   55MOL   O16213230   2.431   3.375   6.735  0.5024  0.2596  0.6174
   55MOL   C16313231   2.383   3.461   6.644  0.1190 -0.5869 -0.1160
   55MOL   H16413232   2.641   3.103   6.658  2.3128 -0.5703 -0.6086
   55MOL   H16513233   2.707   3.081   6.819 -0.3268  0.0849  0.2545
   55MOL   H16613234   2.511   3.226   6.905 -1.0741  2.2562 -0.7328
   55MOL   H16713235   2.279   3.434   6.623  0.2630  0.0874 -1.7190
   55MOL   H16813236   2.424   3.457   6.543 -2.1964 -0.7384 -1.0813
   55MOL   H16913237   2.399   3.563   6.680 -0.0750 -0.5013 -0.2692
   55MOL   C17013238   2.447   3.031   6.861 -0.6655 -0.1776  0.1351
   55MOL   C17113239   2.322   3.037   6.948 -1.3767  0.1999 -0.7237
   55MOL   C17213240   2.195   2.974   6.881  0.3278  0.3701 -0.2586
   55MOL   O17313241   2.192   2.880   6.801  0.0218  0.2074 -0.8978
   55MOL   O17413242   2.078   3.020   6.936  0.2729  0.3646 -0.3063
   55MOL   C17513243   1.951   2.978   6.886  0.2219 -1.0852 -0.0722
   55MOL   H17613244   2.435   2.970   6.771  1.2994  1.5070 -1.3210
   55MOL   H17713245   2.531   2.983   6.911  1.5631 -0.7081 -3.8871
   55MOL   H17813246   2.305   3.142   6.974 -0.8482  0.9178 -3.2074
   55MOL   H17913247   1.903   2.884   6.916  0.0695 -1.5276 -1.6401
   55MOL   H18013248   1.957   2.978   6.777  2.0836 -1.6187  0.0166
   55MOL   H18113249   1.879   3.047   6.932  0.3469 -0.0847 -1.3652
   55MOL   C18213250   2.332   2.966   7.089  0.0336 -0.3316  0.4091
   55MOL   C18313251   2.432   3.024   7.196 -0.3429 -0.6208 -0.1302
   55MOL   C18413252   2.397   3.174   7.213  0.0272 -0.6593  0.4111
   55MOL   O18513253   2.306   3.216   7.289  0.2698  0.1354  0.3229
   55MOL   O18613254   2.468   3.259   7.138 -0.5616 -0.7225  0.2336
   55MOL   C18713255   2.487   3.400   7.157  0.2307 -0.0260 -0.0002
   55MOL   H18813256   2.237   2.962   7.143  0.0344  1.0249  0.5229
   55MOL   H18913257   2.365   2.864   7.069  2.4504  0.3627  0.6299
   55MOL   H19013258   2.530   3.029   7.148 -0.9874 -0.8352 -1.4914
   55MOL   H19113259   2.487   3.458   7.065 -0.7150 -0.8763 -0.5402
   55MOL   H19213260   2.580   3.406   7.214  0.3202 -0.4575 -0.0992
   55MOL   H19313261   2.415   3.443   7.227 -0.1075  0.4651 -0.6495
   55MOL   C19413262   2.445   2.950   7.330 -0.5894 -0.0454  0.1134
   55MOL   C19513263   2.317   2.930   7.408  0.2230  0.0185 -0.1746
   55MOL   C19613264   2.272   2.784   7.402 -0.2162 -0.9255 -0.2914
   55MOL   O19713265   2.162   2.760   7.353 -0.0677 -0.3997  0.6173
   55MOL   O19813266   2.369   2.701   7.441  0.1009 -0.0404  0.3415
   55MOL   C19913267   2.326   2.568   7.465  0.0548  0.0202  0.0444
   55MOL   H20013268   2.506   2.860   7.328 -0.6622 -0.1108  0.7572
   55MOL   H20113269   2.510   3.010   7.394  0.3742 -0.4437 -0.4806
   55MOL   H20213270   2.239   2.975   7.346  0.0778 -0.1579 -0.1222
   55MOL   H20313271   2.388   2.516   7.538  0.6863 -2.2522 -2.0629
   55MOL   H20413272   2.324   2.510   7.373  1.1500  0.4303 -0.2318
   55MOL   H20513273   2.221   2.570   7.495 -0.0863  1.2655 -0.5272
   55MOL   C20613274   2.329   2.989   7.557  0.1146  0.4240  0.5446
   55MOL   C20713275   2.204   2.968   7.646  0.1216 -0.2278  0.1962
   55MOL   C20813276   2.249   2.941   7.795 -0.2066  0.1140 -0.2394
   55MOL   O20913277   2.360   2.965   7.839 -0.7482 -0.0951  0.2880
   55MOL   O21013278   2.155   2.882   7.870 -0.0762  0.3788  0.5265
   55MOL   C21113279   2.178   2.837   0.074  0.5510 -0.3222 -0.4399
   55MOL   H21213280   2.416   2.939   7.600  0.7367 -0.3423 -1.5322
   55MOL   H21313281   2.345   3.096   7.549  2.5138 -0.0921 -3.0614
   55MOL   H21413282   2.151   2.882   7.605  0.3366  0.6524 -1.9946
   55MOL   H21513283   2.153   2.924   0.135  0.6967 -0.2410 -0.4976
   55MOL   H21613284   2.283   2.814   0.093  0.5027 -0.5672 -0.4636
   55MOL   H21713285   2.121   2.752   0.111 -1.6086  1.7509  1.1319
   55MOL   C21813286   2.110   3.094   7.656 -0.1170 -0.0651  0.0086
   55MOL   C21913287   2.021   3.138   7.532 -0.1918 -0.2805 -0.1544
   55MOL   C22013288   1.938   3.022   7.484  0.7132 -0.6224  0.5812
   55MOL   O22113289   1.901   2.940   7.571 -0.2498 -0.0402  0.4309
   55MOL   O22213290   1.919   3.028   7.347  0.3115 -0.2465  0.1412
   55MOL   C22313291   1.860   2.921   7.281  0.1554 -0.1238 -0.5295
   55MOL   H22413292   2.037   3.070   7.733  0.6550 -0.8302  0.5076
   55MOL   H22513293   2.171   3.180   7.682 -0.1540  0.5231 -1.7915
   55MOL   H22613294   2.088   3.169   7.452 -0.3749  3.7534  1.1474
   55MOL   H22713295   1.765   2.955   7.238  0.0823 -0.7855 -0.9022
   55MOL   H22813296   1.826   2.845   7.351  0.0560  1.2310  0.9003
   55MOL   H22913297   1.906   2.874   7.194  0.6735 -0.0151 -0.3116
   55MOL   C23013298   1.939   3.261   7.566  0.6815  0.1512 -0.3292
   55MOL   C23113299   1.915   3.349   7.440 -0.2750  0.3484  0.1312
   55MOL   C23213300   1.815   3.464   7.461 -0.2832 -0.0050  0.8000
   55MOL   O23313301   1.777   3.492   7.576  0.1544  0.0834  0.4844
   55MOL   O23413302   1.792   3.531   7.345 -0.9012 -0.1220  0.1062
   55MOL   C23513303   1.726   3.664   7.354 -0.0524  0.5562 -0.1177
   55MOL   H23613304   1.846   3.230   7.614  1.3697 -1.4579  0.0068
   55MOL   H23713305   1.996   3.305   7.648  1.6813 -1.9061  0.1082
   55MOL   H23813306   1.878   3.289   7.357  0.8420 -0.8775  0.4813
   55MOL   H23913307   1.776   3.734   7.422 -0.3781 -2.4013  3.2923
   55MOL   H24013308   1.633   3.637   7.404 -0.0445  0.8625  0.0656
   55MOL   H24113309   1.698   3.711   7.259  1.4262  0.0645 -0.8158
   55MOL   H24213310   2.014   3.378   7.406 -0.2813 -0.5060 -0.6349
   56MOL     C113311   2.039   0.249   1.809 -0.1601 -0.5897 -0.1258
   56MOL     C213312   2.129   0.219   1.691 -0.9205  0.2179 -0.7545
   56MOL     C313313   2.047   0.219   1.562  0.1460  0.3287 -0.0566
   56MOL     O413314   2.047   0.127   1.480 -0.2819 -0.0830 -0.3242
   56MOL     O513315   1.959   0.322   1.551 -0.2794  0.4380  0.1921
   56MOL     C613316   1.879   0.333   1.437 -0.3931 -0.2281  0.0605
   56MOL     H713317   1.949   0.188   1.817 -1.9493  1.5070 -3.3542
   56MOL     H813318   2.013   0.354   1.811  1.5717 -0.1431  1.7353
   56MOL     H913319   2.172   0.120   1.705  0.9481  1.4897  3.2916
   56MOL    H1013320   1.813   0.247   1.429 -1.5969  0.6975 -0.2176
   56MOL    H1113321   1.948   0.343   1.353  0.9430  0.6110  1.2426
   56MOL    H1213322   1.818   0.423   1.441  0.7913  0.5325  1.7922
   56MOL    H1313323   2.096   0.234   1.902  2.6432 -0.6886 -1.7931
   56MOL    C1413324   2.244   0.327   1.693 -0.1933  0.4256  0.3067
   56MOL    C1513325   2.387   0.270   1.658  0.8157 -0.8164  1.1721
   56MOL    C1613326   2.443   0.155   1.755 -0.2861  0.5626 -0.5558
   56MOL    O1713327   2.505   0.054   1.714  0.0324 -0.1565  0.0489
   56MOL    O1813328   2.419   0.185   1.881 -0.6178 -0.8843  0.7307
   56MOL    C1913329   2.455   0.097   1.982  0.1619  0.0761 -0.3511
   56MOL    H2013330   2.229   0.410   1.624 -1.7663 -0.0228  0.0956
   56MOL    H2113331   2.253   0.374   1.790 -0.4566  1.2664 -0.0734
   56MOL    H2213332   2.457   0.352   1.670  0.1073 -0.1094  0.5854
   56MOL    H2313333   2.562   0.080   1.970  0.0311 -1.2297  0.2793
   56MOL    H2413334   2.391   0.011   1.962 -1.3335  1.3190 -0.9973
   56MOL    H2513335   2.429   0.149   2.074 -0.8185  1.1012 -1.1845
   56MOL    C2613336   2.409   0.227   1.510 -0.7947 -0.1305 -0.2108
   56MOL    C2713337   2.425   0.333   1.398  0.2490  0.3883 -0.5227
   56MOL    C2813338   2.551   0.421   1.417  0.7038 -0.3528 -0.1866
   56MOL    O2913339   2.540   0.516   1.493 -0.1315  0.2748 -0.0613
   56MOL    O3013340   2.664   0.389   1.342 -0.0501 -0.2555  0.0547
   56MOL    C3113341   2.777   0.478   1.367  0.5156 -0.4697  0.0139
   56MOL    H3213342   2.496   0.164   1.487 -0.5691  1.5762 -4.6385
   56MOL    H3313343   2.325   0.160   1.493 -1.3414 -0.1376  2.3404
   56MOL    H3413344   2.343   0.404   1.407 -0.6134 -0.6471 -0.0712
   56MOL    H3513345   2.847   0.454   1.447 -1.2736 -2.3106  1.0530
   56MOL    H3613346   2.738   0.579   1.385  1.5295 -0.3538  1.7165
   56MOL    H3713347   2.842   0.477   1.280  1.4646 -1.4549  0.7167
   56MOL    C3813348   2.418   0.276   1.259  0.9215  0.1084 -0.3873
   56MOL    C3913349   2.273   0.227   1.216  0.6729 -0.3718 -0.6750
   56MOL    C4013350   2.185   0.350   1.174 -0.4454  0.0571  0.0562
   56MOL    O4113351   2.234   0.461   1.160 -0.1328 -0.1577  0.5063
   56MOL    O4213352   2.057   0.312   1.150  0.2235 -0.5639  0.3028
   56MOL    C4313353   1.965   0.400   1.091 -0.4569  0.3655  0.0749
   56MOL    H4413354   2.463   0.338   1.181  1.3731  0.0264 -0.1922
   56MOL    H4513355   2.491   0.196   1.265  1.0151  0.1061 -1.3706
   56MOL    H4613356   2.224   0.181   1.302  1.1494  1.6342  0.7041
   56MOL    H4713357   1.986   0.404   0.984 -2.3367 -0.1478 -0.3321
   56MOL    H4813358   1.980   0.489   1.152  2.4827 -1.4867  2.2419
   56MOL    H4913359   1.864   0.365   1.110  0.9557 -2.6311  2.5940
   56MOL    C5013360   2.279   0.129   1.100  0.5102  0.3303 -0.4238
   56MOL    C5113361   2.171   0.022   1.100  0.6677  0.0671 -1.1463
   56MOL    C5213362   2.142   7.911   0.950 -0.0359  0.3965 -0.5076
   56MOL    O5313363   2.206   7.820   0.904 -0.3272  0.0395 -0.1076
   56MOL    O5413364   2.038   0.044   0.893  0.2308  0.3123  0.2469
   56MOL    C5513365   1.991   7.927   0.771  0.2707  0.3519 -0.5340
   56MOL    H5613366   2.279   0.189   1.009  3.2468 -0.1602 -0.7694
   56MOL    H5713367   2.371   0.074   1.083  0.0869 -0.0353 -1.5928
   56MOL    H5813368   2.085   0.080   1.133  1.0032 -0.8640  1.4848
   56MOL    H5913369   1.890   0.032   0.757 -0.5265 -2.4020 -2.7463
   56MOL    H6013370   1.984   7.818   0.763 -1.6104  0.3766  0.4781
   56MOL    H6113371   2.043   0.033   0.683  0.8238  2.4019  0.6667
   56MOL    C6213372   2.182   7.843   1.196  0.4012  0.5263 -0.3054
   56MOL    C6313373   2.068   7.748   1.199 -0.1313  0.0046 -0.5371
   56MOL    C6413374   2.123   7.630   1.286  0.1950 -0.3991  0.5869
   56MOL    O6513375   2.084   7.610   1.401  0.5648  0.0658  0.0038
   56MOL    O6613376   2.211   7.540   1.224 -0.3969  0.1862  0.1390
   56MOL    C6713377   2.269   7.428   1.302 -0.4472 -0.4889  1.3828
   56MOL    H6813378   2.278   7.793   1.185  0.6287  1.4832 -3.0559
   56MOL    H6913379   2.185   7.889   1.295 -1.0146  1.1666 -0.5507
   56MOL    H7013380   2.058   7.698   1.103 -0.8715 -2.0646  0.5872
   56MOL    H7113381   2.269   7.438   1.411 -0.5760  2.4830  1.1375
   56MOL    H7213382   2.369   7.422   1.259 -1.8562 -0.7210 -1.9788
   56MOL    H7313383   2.206   7.344   1.272 -1.8644  0.6026  1.2562
   56MOL    C7413384   1.926   7.813   1.249 -0.1920  0.4141 -0.1142
   56MOL    C7513385   1.792   7.743   1.220  0.4185 -0.2938 -0.2779
   56MOL    C7613386   1.784   7.721   1.068  0.6363 -0.2436  0.0092
   56MOL    O7713387   1.736   7.798   0.989  0.8712 -0.2404  0.0722
   56MOL    O7813388   1.819   7.598   1.032  0.1910  0.2740  0.1603
   56MOL    C7913389   1.839   7.573   0.894  0.3817  0.2371  0.0793
   56MOL    H8013390   1.945   7.824   1.355  1.8920  0.7876 -0.5047
   56MOL    H8113391   1.910   7.915   1.213  2.2399  0.2436 -1.8153
   56MOL    H8213392   1.711   7.812   1.243 -0.1074 -0.3039 -2.0332
   56MOL    H8313393   1.753   7.603   0.834 -0.3683 -0.7529  0.6299
   56MOL    H8413394   1.852   7.465   0.882  1.5945  0.2447  1.2370
   56MOL    H8513395   1.927   7.622   0.853  0.2005 -0.2938 -0.9652
   56MOL    C8613396   1.774   7.612   1.301 -0.4111 -0.4386  0.3580
   56MOL    C8713397   1.627   7.557   1.314 -0.0688 -0.2055  0.4127
   56MOL    C8813398   1.624   7.410   1.339 -0.4970 -0.8956 -0.5022
   56MOL    O8913399   1.689   7.349   1.424 -0.1732 -0.3562 -0.7457
   56MOL    O9013400   1.544   7.358   1.256 -0.0829  0.5834  0.2761
   56MOL    C9113401   1.493   7.231   1.270 -0.1160 -0.2449 -0.0948
   56MOL    H9213402   1.841   7.535   1.264  1.4048  1.4759 -0.4136
   56MOL    H9313403   1.804   7.630   1.404 -1.6487  1.2968  0.4415
   56MOL    H9413404   1.580   7.557   1.216 -1.8937 -1.3406  1.2592
   56MOL    H9513405   1.559   7.152   1.234  1.3253  1.4314 -1.1364
   56MOL    H9613406   1.402   7.227   1.211 -0.6731 -0.6318  0.7776
   56MOL    H9713407   1.486   7.212   1.378  1.9804  0.5308  0.1902
   56MOL    C9813408   1.533   7.644   1.403  0.3208 -0.1508  0.0507
   56MOL    C9913409   1.402   7.700   1.340 -0.0509 -0.0588 -0.4989
   56MOL   C10013410   1.303   7.588   1.303  0.1496 -0.3150  0.1254
   56MOL   O10113411   1.263   7.499   1.375 -0.2782 -0.0431 -0.4932
   56MOL   O10213412   1.261   7.606   1.172  0.3723  0.4596  0.2660
   56MOL   C10313413   1.149   7.526   1.124 -0.4644 -0.0130  0.0297
   56MOL   H10413414   1.524   7.582   1.493  0.9582 -1.6304 -0.8791
   56MOL   H10513415   1.585   7.733   1.436  2.0763 -1.4396  0.8592
   56MOL   H10613416   1.437   7.742   1.246  0.1557  1.2247  0.1452
   56MOL   H10713417   1.182   7.432   1.080 -1.6237 -1.3863  2.0033
   56MOL   H10813418   1.092   7.573   1.044  2.3843  0.4965 -1.7812
   56MOL   H10913419   1.087   7.507   1.212  0.7424 -2.3208  0.4312
   56MOL   C11013420   1.321   7.790   1.438 -0.4460  0.3672  0.4418
   56MOL   C11113421   1.216   7.881   1.365 -0.1799 -0.2781  0.9316
   56MOL   C11213422   1.101   7.926   1.452 -0.1229 -0.0216 -0.1126
   56MOL   O11313423   1.115   0.000   1.579 -0.0586 -0.4998 -0.3735
   56MOL   O11413424   0.993   0.045   1.378 -0.2426  0.1152  0.0329
   56MOL   C11513425   0.869   0.070   1.440  0.3711 -0.6387 -0.6024
   56MOL   H11613426   1.276   7.735   1.521 -2.8134 -1.4660 -1.9851
   56MOL   H11713427   1.375   7.866   1.494 -1.2474 -0.4538  2.3668
   56MOL   H11813428   1.169   7.824   1.284 -0.1049  2.8304 -1.4162
   56MOL   H11913429   0.816   0.142   1.378  0.7064 -0.2723 -0.4642
   56MOL   H12013430   0.888   0.111   1.539 -2.3046 -2.6398  0.8334
   56MOL   H12113431   0.826   7.903   1.454  1.3274 -1.1360 -1.1259
   56MOL   C12213432   1.290   0.060   1.283 -0.2655 -0.3677  0.1221
   56MOL   C12313433   1.395   0.155   1.353 -0.1083 -0.6345 -0.4238
   56MOL   C12413434   1.532   0.151   1.274 -0.5391  0.8769 -0.0004
   56MOL   O12513435   1.633   0.111   1.331 -0.1356  0.0783 -0.1084
   56MOL   O12613436   1.532   0.187   1.145  0.7640 -0.6686 -0.0648
   56MOL   C12713437   1.646   0.159   1.069  0.4518  0.0190  0.5242
   56MOL   H12813438   1.359   0.001   1.223  0.0100  0.4472 -0.3647
   56MOL   H12913439   1.227   0.114   1.212  1.3030  1.1709 -0.1188
   56MOL   H13013440   1.416   0.121   1.454 -2.5694 -1.8775 -0.2844
   56MOL   H13113441   1.727   0.109   1.121 -0.2142 -1.1828  0.4331
   56MOL   H13213442   1.698   0.249   1.039 -0.6444  2.1279  4.6204
   56MOL   H13313443   1.620   0.110   0.975 -1.0477  1.1008  0.3625
   56MOL   C13413444   1.334   0.294   1.379  0.2857 -0.2307 -0.0796
   56MOL   C13513445   1.436   0.395   1.427 -0.5702  0.6851  0.0799
   56MOL   C13613446   1.507   0.479   1.318 -0.2137  0.1376 -0.0635
   56MOL   O13713447   1.632   0.465   1.299  0.4189  0.2797  0.1377
   56MOL   O13813448   1.428   0.563   1.258  0.0674  0.1251  0.1368
   56MOL   C13913449   1.487   0.649   1.170 -0.0880  0.6753 -0.0190
   56MOL   H14013450   1.285   0.332   1.290  0.3455 -0.8886 -0.3983
   56MOL   H14113451   1.244   0.285   1.439  0.6149 -0.1586  0.4314
   56MOL   H14213452   1.514   0.346   1.485 -1.1520 -1.5055 -0.9268
   56MOL   H14313453   1.445   0.749   1.177  0.1876  0.7600  0.4597
   56MOL   H14413454   1.472   0.629   1.064 -0.6200 -1.9906  0.5033
   56MOL   H14513455   1.595   0.661   1.170 -0.1970  1.6633 -0.3164
   56MOL   C14613456   1.358   0.495   1.522  0.0533  0.3645 -0.7530
   56MOL   C14713457   1.451   0.583   1.600 -0.2924  0.0814  0.3963
   56MOL   C14813458   1.372   0.699   1.664  0.7755 -0.3856 -0.1970
   56MOL   O14913459   1.389   0.809   1.623 -0.1463 -0.4609  0.0848
   56MOL   O15013460   1.284   0.661   1.758  0.4120 -0.5502 -0.2707
   56MOL   C15113461   1.189   0.752   1.822  0.5007 -0.6069  0.2926
   56MOL   H15213462   1.284   0.547   1.461 -0.3903  0.0908 -0.4456
   56MOL   H15313463   1.298   0.452   1.602 -0.5705 -1.5670 -2.2445
   56MOL   H15413464   1.523   0.640   1.542 -0.3557  1.3521  1.5319
   56MOL   H15513465   1.089   0.709   1.822  0.4867 -0.6890 -2.5363
   56MOL   H15613466   1.196   0.854   1.782  1.0243 -0.4130  0.8752
   56MOL   H15713467   1.214   0.753   1.928 -0.1880 -0.7693  0.4597
   56MOL   C15813468   1.531   0.503   1.709  0.3811 -0.1638  0.3764
   56MOL   C15913469   1.639   0.580   1.786 -0.2395 -0.2565  0.5699
   56MOL   C16013470   1.672   0.514   1.920  0.3481 -0.2130  0.7884
   56MOL   O16113471   1.758   0.429   1.935  0.1229 -0.6072  0.7067
   56MOL   O16213472   1.599   0.567   2.017  0.3945  0.1514  0.7852
   56MOL   C16313473   1.612   0.514   2.148  0.4620  0.2727  0.4328
   56MOL   H16413474   1.459   0.457   1.776  1.8709 -2.5026  0.4432
   56MOL   H16513475   1.569   0.406   1.675  2.4273  0.9016 -0.4162
   56MOL   H16613476   1.590   0.673   1.815 -0.7875 -0.4639  0.3243
   56MOL   H16713477   1.612   0.406   2.139  1.7951  0.4544 -2.4755
   56MOL   H16813478   1.528   0.537   2.214 -0.7254 -3.8558  0.4474
   56MOL   H16913479   1.710   0.527   2.193 -0.1821 -0.2222  1.9937
   56MOL   C17013480   1.770   0.603   1.712 -0.8956  0.4165  0.1638
   56MOL   C17113481   1.873   0.703   1.771 -0.4210 -0.4624 -0.2192
   56MOL   C17213482   2.014   0.681   1.705 -0.1313  0.1906  0.0117
   56MOL   O17313483   2.105   0.636   1.770  0.3286 -0.5111  0.0399
   56MOL   O17413484   2.010   0.706   1.577  0.4161 -0.1147 -0.4687
   56MOL   C17513485   2.118   0.656   1.495  0.0752  0.4060 -0.0783
   56MOL   H17613486   1.824   0.511   1.690  0.3937  1.0632  0.6019
   56MOL   H17713487   1.749   0.629   1.608  0.3812  1.0680  0.0541
   56MOL   H17813488   1.902   0.669   1.871  2.6662 -0.5602 -1.1127
   56MOL   H17913489   2.103   0.680   1.390  1.3245  1.2952 -0.0583
   56MOL   H18013490   2.138   0.549   1.505  0.5177  0.4595 -0.3783
   56MOL   H18113491   2.216   0.696   1.521 -0.2073  0.4322  0.9927
   56MOL   C18213492   1.842   0.856   1.783  0.6195  0.2443 -0.1102
   56MOL   C18313493   1.944   0.957   1.843 -0.1863  0.5010  0.1676
   56MOL   C18413494   2.000   1.044   1.724 -0.5258 -0.2595 -0.0590
   56MOL   O18513495   2.117   1.026   1.691  0.0903 -0.2776 -0.0704
   56MOL   O18613496   1.919   1.133   1.669 -0.0429  0.0115  0.6780
   56MOL   C18713497   1.956   1.212   1.561  0.1236  0.4123 -0.0906
   56MOL   H18813498   1.802   0.880   1.685 -1.3734 -2.5277 -0.0242
   56MOL   H18913499   1.758   0.883   1.848  1.6003 -1.6494  2.0270
   56MOL   H19013500   2.021   0.898   1.892 -0.1290 -0.4164 -1.0057
   56MOL   H19113501   2.048   1.269   1.573 -0.4010  0.8332  2.1372
   56MOL   H19213502   1.879   1.284   1.535  0.0352  0.2251 -0.3521
   56MOL   H19313503   1.970   1.160   1.466 -0.8544 -0.5320  0.2677
   56MOL   C19413504   1.893   1.057   1.948  0.1893 -0.4631 -0.0473
   56MOL   C19513505   1.809   1.001   2.068  0.0867 -0.1080  0.8369
   56MOL   C19613506   1.853   0.863   2.108  0.0529  0.4261 -0.1226
   56MOL   O19713507   1.775   0.773   2.103  0.1071 -0.7396  0.1899
   56MOL   O19813508   1.982   0.863   2.146 -0.0569 -0.3650 -0.2700
   56MOL   C19913509   2.032   0.743   2.187  0.2365 -0.3500 -0.2422
   56MOL   H20013510   1.974   1.124   1.976  0.3797 -1.0969  0.9472
   56MOL   H20113511   1.830   1.134   1.903  1.8646  1.2870  0.5282
   56MOL   H20213512   1.708   0.983   2.033  0.7921 -0.3869 -1.1086
   56MOL   H20313513   2.107   0.712   2.115  1.0201 -0.2874  0.5493
   56MOL   H20413514   1.952   0.668   2.193 -0.7259  0.6555 -0.2614
   56MOL   H20513515   2.074   0.744   2.287 -1.8407 -0.4622  0.6670
   56MOL   C20613516   1.804   1.096   2.183  0.1466  0.2029 -0.2804
   56MOL   C20713517   1.678   1.081   2.278  0.4685  0.1371  0.1169
   56MOL   C20813518   1.680   0.955   2.374 -0.3156  0.4843  0.1010
   56MOL   O20913519   1.582   0.886   2.400  0.5493  0.4878  0.1286
   56MOL   O21013520   1.798   0.942   2.429 -0.5271 -0.5685  0.0820
   56MOL   C21113521   1.817   0.833   2.517 -0.3177 -0.1132 -0.6081
   56MOL   H21213522   1.893   1.083   2.243  0.1887  0.6874 -0.2337
   56MOL   H21313523   1.815   1.196   2.140 -1.9005  1.2097  1.4186
   56MOL   H21413524   1.587   1.067   2.220  0.3779  0.8553  0.0763
   56MOL   H21513525   1.918   0.834   2.558 -0.0835 -1.2681 -1.1370
   56MOL   H21613526   1.797   0.740   2.463 -1.1013 -0.2373 -0.1071
   56MOL   H21713527   1.753   0.838   2.605 -1.2526  2.0351 -1.3758
   56MOL   C21813528   1.662   1.215   2.358 -0.1897 -0.7148  0.5993
   56MOL   C21913529   1.562   1.208   2.477  0.3296  0.3142 -0.7450
   56MOL   C22013530   1.581   1.335   2.563  0.4452  0.4310  0.6212
   56MOL   O22113531   1.511   1.438   2.559  1.0090  0.0244 -0.3499
   56MOL   O22213532   1.693   1.324   2.620  0.1846 -0.0005 -0.0692
   56MOL   C22313533   1.746   1.435   2.693  0.5206  0.5834 -0.0970
   56MOL   H22413534   1.755   1.268   2.378 -0.9042  1.2188 -0.9673
   56MOL   H22513535   1.608   1.282   2.290 -0.5113 -1.1393  0.4309
   56MOL   H22613536   1.577   1.122   2.542  0.7822  0.1629 -1.0458
   56MOL   H22713537   1.826   1.402   2.760 -0.6351 -1.8803  0.1395
   56MOL   H22813538   1.679   1.474   2.769  1.2443 -0.3369  1.0276
   56MOL   H22913539   1.774   1.524   2.637 -1.5261  1.1383 -0.2580
   56MOL   C23013540   1.410   1.184   2.433  0.4778 -0.0493 -0.0693
   56MOL   C23113541   1.296   1.201   2.530  1.2602 -0.3177  0.6430
   56MOL   C23213542   1.300   1.095   2.645  0.3057 -1.1259  0.8479
   56MOL   O23313543   1.346   1.123   2.756 -0.5517 -0.3282 -0.5306
   56MOL   O23413544   1.252   0.980   2.613  0.4228  0.3044 -0.1872
   56MOL   C23513545   1.251   0.877   2.711  0.7051 -0.2415  0.2038
   56MOL   H23613546   1.382   1.244   2.346 -0.4917 -1.8648 -1.0249
   56MOL   H23713547   1.414   1.084   2.390  1.4536  0.0975 -0.3385
   56MOL   H23813548   1.205   1.184   2.471  0.0477  1.4113  1.9692
   56MOL   H23913549   1.167   0.809   2.696  0.5574 -0.2104  0.8746
   56MOL   H24013550   1.253   0.901   2.817 -0.9688  0.9064 -0.0166
   56MOL   H24113551   1.339   0.815   2.689  1.2424  0.2671  0.9103
   56MOL   H24213552   1.291   1.301   2.572  0.7143  0.0091 -0.1812
   57MOL     C113553   4.784   5.666   4.433 -0.1492  0.6834 -0.6003
   57MOL     C213554   4.711   5.802   4.421  0.3620  0.4216  0.1785
   57MOL     C313555   4.809   5.907   4.355 -0.6163 -0.3284 -0.1708
   57MOL     O413556   4.822   6.024   4.397  0.2285 -0.0087 -0.0547
   57MOL     O513557   4.878   5.854   4.253 -0.2444  0.1414  0.0543
   57MOL     C613558   4.969   5.934   4.180 -0.4088  0.0721  0.2864
   57MOL     H713559   4.826   5.632   4.339  1.2032  1.3379 -0.2464
   57MOL     H813560   4.718   5.588   4.470  1.2148  0.2020  0.8963
   57MOL     H913561   4.698   5.831   4.526  3.1896 -0.5529  0.8306
   57MOL    H1013562   5.066   5.885   4.174 -0.1320  0.6876 -0.4279
   57MOL    H1113563   4.973   6.036   4.216 -1.4275  0.3825 -0.4245
   57MOL    H1213564   4.927   5.931   4.079 -2.1535  1.2580  0.9580
   57MOL    H1313565   4.878   5.665   4.489 -0.4179 -3.3581 -0.0925
   57MOL    C1413566   4.582   5.799   4.341  0.0859  0.0184  0.2113
   57MOL    C1513567   4.504   5.930   4.332  0.5686  0.2140 -0.3401
   57MOL    C1613568   4.426   5.943   4.200  0.4719 -0.7441  0.1329
   57MOL    O1713569   4.439   6.031   4.119 -0.2249 -0.5533  0.1002
   57MOL    O1813570   4.315   5.866   4.198  0.0047  0.2754 -0.7266
   57MOL    C1913571   4.243   5.842   4.082 -0.0717  0.0552  0.5851
   57MOL    H2013572   4.620   5.787   4.240 -2.2389  1.2450 -0.8401
   57MOL    H2113573   4.511   5.718   4.356 -2.2553  1.8195 -0.8692
   57MOL    H2213574   4.568   6.018   4.342 -0.4531  0.9002  0.2108
   57MOL    H2313575   4.139   5.833   4.110 -0.8323  1.5378 -1.6102
   57MOL    H2413576   4.275   5.760   4.017  0.5018  0.1987  0.6817
   57MOL    H2513577   4.250   5.930   4.018 -3.4742 -1.3153 -1.8215
   57MOL    C2613578   4.413   5.939   4.461  0.0760 -0.3777  0.2544
   57MOL    C2713579   4.368   6.081   4.495  0.4086  0.3914  0.4420
   57MOL    C2813580   4.223   6.110   4.459  0.3460  0.0593  0.5780
   57MOL    O2913581   4.128   6.094   4.529 -0.2554 -0.2796 -0.4695
   57MOL    O3013582   4.217   6.163   4.338  1.0548  0.1438 -0.4922
   57MOL    C3113583   4.084   6.202   4.296 -0.0006  0.5924 -0.6505
   57MOL    H3213584   4.328   5.872   4.459 -1.5124  1.5444  1.5792
   57MOL    H3313585   4.473   5.897   4.542  1.1244 -2.1549 -1.4194
   57MOL    H3413586   4.422   6.167   4.455  1.2342  0.1149  0.9457
   57MOL    H3513587   4.033   6.116   4.252  1.0459  1.6508 -4.0090
   57MOL    H3613588   4.106   6.282   4.226  3.2275 -0.3661 -0.7836
   57MOL    H3713589   4.025   6.256   4.370 -1.2219  0.1143 -1.2563
   57MOL    C3813590   4.384   6.111   4.646 -0.2611  0.6293  0.3427
   57MOL    C3913591   4.525   6.145   4.689 -0.0561  0.4532  0.5347
   57MOL    C4013592   4.580   6.270   4.630 -0.0636 -0.8290 -0.9928
   57MOL    O4113593   4.525   6.382   4.637  0.2439 -0.4824  0.0774
   57MOL    O4213594   4.701   6.260   4.580  0.2429 -0.4218  0.5153
   57MOL    C4313595   4.766   6.374   4.524  0.3350 -0.3413  0.0938
   57MOL    H4413596   4.324   6.191   4.690  0.3230  0.4457  1.4829
   57MOL    H4513597   4.365   6.019   4.700  0.8849  0.6226  0.7486
   57MOL    H4613598   4.586   6.066   4.645 -0.7132  0.3854 -0.2732
   57MOL    H4713599   4.874   6.371   4.540  0.3035 -0.6571  0.2360
   57MOL    H4813600   4.745   6.468   4.576  1.2655  0.4006 -0.8302
   57MOL    H4913601   4.750   6.364   4.417 -0.5747 -2.4304  0.4091
   57MOL    C5013602   4.542   6.149   4.847  0.5578  0.4924  0.2496
   57MOL    C5113603   4.547   6.005   4.913  0.7042  0.7061  0.5627
   57MOL    C5213604   4.676   5.935   4.871 -0.2204 -0.1479  0.5402
   57MOL    O5313605   4.779   6.000   4.834 -0.0623  0.1084 -1.0145
   57MOL    O5413606   4.656   5.805   4.864  0.6041  0.6573  0.1372
   57MOL    C5513607   4.764   5.728   4.824  0.4481 -0.3688  0.2701
   57MOL    H5613608   4.631   6.200   4.882  1.2407  0.2986 -1.1600
   57MOL    H5713609   4.459   6.211   4.879  1.5199  1.1856  1.4155
   57MOL    H5813610   4.460   5.944   4.891 -0.8947  2.9270  0.5631
   57MOL    H5913611   4.854   5.755   4.879 -0.1733  2.3206  0.0009
   57MOL    H6013612   4.781   5.753   4.719  3.5386  1.3192  1.1229
   57MOL    H6113613   4.740   5.622   4.839 -0.4797 -0.1879  0.0842
   57MOL    C6213614   4.527   6.015   5.063  0.3266  0.0752 -1.1021
   57MOL    C6313615   4.510   5.884   5.143  1.2202  0.2346  0.6440
   57MOL    C6413616   4.509   5.920   5.292  0.5693 -0.1919 -0.5480
   57MOL    O6513617   4.507   6.036   5.334 -0.2791 -0.1225  0.0541
   57MOL    O6613618   4.518   5.816   5.377 -0.6791 -0.6561 -0.0330
   57MOL    C6713619   4.534   5.839   5.513 -0.2360 -0.2470  0.2181
   57MOL    H6813620   4.613   6.063   5.111 -0.5515  0.7608 -0.1836
   57MOL    H6913621   4.449   6.090   5.075 -0.3116 -0.3889 -2.2859
   57MOL    H7013622   4.600   5.825   5.125  0.7641 -0.3478  0.2373
   57MOL    H7113623   4.629   5.891   5.527 -0.5482  0.2899  0.3779
   57MOL    H7213624   4.528   5.745   5.568 -0.4542  0.9876  2.3854
   57MOL    H7313625   4.457   5.903   5.557  1.1436 -0.0765  2.4978
   57MOL    C7413626   4.388   5.789   5.105 -0.1694  0.3446 -0.2616
   57MOL    C7513627   4.247   5.836   5.153  0.6965  0.7043 -0.6424
   57MOL    C7613628   4.185   5.936   5.063 -0.0033  0.1584  0.3443
   57MOL    O7713629   4.162   6.049   5.107  0.2990  0.4789 -0.7664
   57MOL    O7813630   4.158   5.889   4.945 -0.1228  0.2201 -0.2301
   57MOL    C7913631   4.084   5.962   4.856 -0.0698 -0.1999  0.2467
   57MOL    H8013632   4.388   5.776   4.996 -0.0254  1.1920 -0.3637
   57MOL    H8113633   4.422   5.696   5.149 -1.8500  1.3073  3.2236
   57MOL    H8213634   4.263   5.886   5.248 -1.3504  2.0047 -0.9351
   57MOL    H8313635   3.983   5.975   4.895  0.1463  0.9205  0.4725
   57MOL    H8413636   4.071   5.896   4.771 -0.1158 -0.7459  0.6772
   57MOL    H8513637   4.117   6.061   4.825 -2.3171  0.4351 -0.2376
   57MOL    C8613638   4.145   5.725   5.162 -0.3510 -0.1350 -0.1179
   57MOL    C8713639   4.171   5.609   5.266 -0.0848 -0.1155  0.2769
   57MOL    C8813640   4.140   5.655   5.409  0.0849 -0.0389  0.0508
   57MOL    O8913641   4.065   5.747   5.430 -0.1846 -0.0231 -0.3824
   57MOL    O9013642   4.210   5.589   5.498 -0.4123  0.4432 -0.1367
   57MOL    C9113643   4.191   5.621   5.637  0.2933 -0.1784  0.5144
   57MOL    H9213644   4.047   5.760   5.195  0.1861  0.8924  0.3833
   57MOL    H9313645   4.129   5.694   5.059  3.7902 -0.6816 -0.6785
   57MOL    H9413646   4.279   5.596   5.257  0.0861  0.7207  0.9785
   57MOL    H9513647   4.227   5.721   5.659  0.1216 -0.4303  1.9539
   57MOL    H9613648   4.225   5.543   5.705 -1.0655 -2.4813 -1.3277
   57MOL    H9713649   4.082   5.624   5.643  0.2446 -0.7766  0.0814
   57MOL    C9813650   4.095   5.480   5.240  0.5061 -0.4787  0.3796
   57MOL    C9913651   4.143   5.406   5.108 -0.5777  0.0455  0.2343
   57MOL   C10013652   4.288   5.355   5.122  0.1887  0.9189  1.0402
   57MOL   O10113653   4.327   5.288   5.219  0.7054  0.2320 -0.0439
   57MOL   O10213654   4.364   5.385   5.012  0.2724 -0.1331 -0.0111
   57MOL   C10313655   4.503   5.375   5.016 -0.4037 -0.7938  0.3991
   57MOL   H10413656   4.115   5.415   5.326  1.0586 -2.2077 -1.0330
   57MOL   H10513657   3.987   5.491   5.247  0.4408 -0.4982 -0.5285
   57MOL   H10613658   4.156   5.484   5.033 -2.0231 -0.8902 -1.0194
   57MOL   H10713659   4.534   5.372   4.911  2.8501 -1.0581  1.3112
   57MOL   H10813660   4.537   5.288   5.072 -2.5905 -1.9846 -0.0308
   57MOL   H10913661   4.535   5.457   5.078 -4.3309 -1.1492  3.0976
   57MOL   C11013662   4.051   5.293   5.057 -0.2647 -0.0371  0.0311
   57MOL   C11113663   4.006   5.322   4.921  0.6172  0.7737  0.2563
   57MOL   C11213664   3.929   5.457   4.910 -0.0260 -0.6193 -0.7214
   57MOL   O11313665   3.972   5.564   4.873 -0.1682 -0.1492 -0.3133
   57MOL   O11413666   3.819   5.446   4.977  0.0763 -0.2606 -0.1656
   57MOL   C11513667   3.756   5.569   5.014 -0.0950  0.1422  0.0364
   57MOL   H11613668   4.102   5.197   5.065  0.4019 -0.0603 -3.6635
   57MOL   H11713669   3.960   5.282   5.114  0.4113 -0.5968  1.0151
   57MOL   H11813670   3.925   5.251   4.902  1.0689  0.5891 -1.1118
   57MOL   H11913671   3.687   5.592   4.932  1.1252 -1.0955 -1.3574
   57MOL   H12013672   3.826   5.646   5.045  0.6643 -0.5716  0.0895
   57MOL   H12113673   3.691   5.554   5.101 -1.1541  2.1706 -0.3826
   57MOL   C12213674   4.101   5.282   4.813 -0.0684 -0.0976  0.3956
   57MOL   C12313675   4.095   5.132   4.762  0.3676  0.3143 -0.2406
   57MOL   C12413676   3.956   5.094   4.716  0.3682  0.2213  0.7436
   57MOL   O12513677   3.882   5.010   4.768 -0.7098  0.4832  0.2952
   57MOL   O12613678   3.919   5.164   4.598 -0.2961 -0.4594  0.2787
   57MOL   C12713679   3.803   5.128   4.527 -0.1158  0.4801 -0.1668
   57MOL   H12813680   4.075   5.347   4.729  0.3659  2.1788  1.9765
   57MOL   H12913681   4.206   5.306   4.828  0.0771 -1.9895  2.6366
   57MOL   H13013682   4.126   5.066   4.844  1.4524  1.9115  0.6673
   57MOL   H13113683   3.816   5.028   4.486  0.3026  0.0852  0.9251
   57MOL   H13213684   3.791   5.197   4.443 -1.2637  0.6235  0.0982
   57MOL   H13313685   3.716   5.137   4.592  0.0803 -0.7836  0.2829
   57MOL   C13413686   4.195   5.099   4.649 -1.1828 -0.7059  0.5024
   57MOL   C13513687   4.346   5.142   4.675  0.2797  0.3014 -1.4593
   57MOL   C13613688   4.406   5.058   4.792  0.2939 -0.6686  0.0106
   57MOL   O13713689   4.479   4.967   4.777 -0.0105  0.5757  0.0381
   57MOL   O13813690   4.355   5.096   4.914  0.4604  0.0806 -0.2366
   57MOL   C13913691   4.396   5.016   5.033  0.2545  0.4343 -0.1370
   57MOL   H14013692   4.209   4.993   4.630 -0.7467 -0.5132 -0.3031
   57MOL   H14113693   4.171   5.145   4.552  1.3924 -0.4337 -0.0547
   57MOL   H14213694   4.323   5.247   4.694  0.5144  0.4816 -2.1568
   57MOL   H14313695   4.353   4.922   4.997 -2.8245  2.1493 -1.1588
   57MOL   H14413696   4.344   5.061   5.117 -0.9705  1.6946 -1.5410
   57MOL   H14513697   4.502   5.002   5.049  0.3942  0.1347 -1.2239
   57MOL   C14613698   4.437   5.125   4.546 -0.5332  0.3458  0.3793
   57MOL   C14713699   4.548   5.231   4.514  0.5277 -0.7044 -0.0054
   57MOL   C14813700   4.677   5.174   4.459 -0.0715 -0.0973  0.3639
   57MOL   O14913701   4.732   5.077   4.514 -0.2189  0.0776 -0.2557
   57MOL   O15013702   4.722   5.228   4.341  0.6603  0.0226  0.0133
   57MOL   C15113703   4.823   5.157   4.276  0.2013 -0.1123  0.2925
   57MOL   H15213704   4.486   5.028   4.546 -1.3243 -0.0632 -0.9281
   57MOL   H15313705   4.377   5.109   4.457 -2.4644  2.3612  1.2565
   57MOL   H15413706   4.571   5.282   4.608  0.7308 -0.7678 -0.0221
   57MOL   H15513707   4.920   5.169   4.324  0.2456  1.8447 -0.2589
   57MOL   H15613708   4.830   5.194   4.174  0.1182 -0.9552 -0.0267
   57MOL   H15713709   4.789   5.054   4.260  0.2685 -0.2180  0.8414
   57MOL   C15813710   4.493   5.350   4.417 -0.1936  0.4171 -0.4708
   57MOL   C15913711   4.370   5.432   4.477 -0.0802  1.1189  0.3464
   57MOL   C16013712   4.405   5.530   4.589 -0.4146 -0.0748 -0.4153
   57MOL   O16113713   4.518   5.560   4.609 -0.3220  0.0270 -0.4343
   57MOL   O16213714   4.291   5.569   4.660  0.3683  0.2317  0.7497
   57MOL   C16313715   4.313   5.641   4.773 -0.2541 -0.3272 -0.1877
   57MOL   H16413716   4.570   5.422   4.390  0.4564 -0.7306 -1.6877
   57MOL   H16513717   4.449   5.300   4.331 -0.8047 -0.0478  0.1084
   57MOL   H16613718   4.297   5.369   4.528  1.8100  0.6531  2.6094
   57MOL   H16713719   4.391   5.610   4.844  0.9511  1.4043 -0.7406
   57MOL   H16813720   4.228   5.671   4.834  0.4031  2.0700 -0.4171
   57MOL   H16913721   4.355   5.732   4.732  0.9628 -0.3445  0.9775
   57MOL   C17013722   4.288   5.501   4.365  0.6820  0.3735 -0.1148
   57MOL   C17113723   4.139   5.455   4.348 -0.7718 -0.3608 -0.0753
   57MOL   C17213724   4.037   5.518   4.449  0.1070 -0.6768  0.4617
   57MOL   O17313725   3.957   5.445   4.513 -0.3058 -0.4251 -0.8505
   57MOL   O17413726   4.044   5.650   4.455  0.1454 -0.2249 -0.2734
   57MOL   C17513727   3.978   5.728   4.548 -0.7698  0.0325  0.5242
   57MOL   H17613728   4.285   5.608   4.384  0.1998 -0.0796  2.5062
   57MOL   H17713729   4.342   5.498   4.270 -1.4069  1.7542 -1.3615
   57MOL   H17813730   4.128   5.349   4.369 -2.1879 -0.3175 -0.5450
   57MOL   H17913731   4.046   5.812   4.550  1.0843 -1.4572  1.3460
   57MOL   H18013732   3.962   5.686   4.647 -0.5303  3.5430  2.1053
   57MOL   H18113733   3.880   5.761   4.513  0.4571  1.0865 -2.0663
   57MOL   C18213734   4.089   5.471   4.201 -0.0601 -0.1078 -0.4481
   57MOL   C18313735   4.126   5.349   4.108  0.1038 -0.4043 -0.8546
   57MOL   C18413736   4.020   5.241   4.127  0.1234  0.4362 -0.0847
   57MOL   O18513737   3.928   5.222   4.049 -0.0684  1.0782 -0.0194
   57MOL   O18613738   4.037   5.156   4.228 -0.4125 -0.1602  0.0634
   57MOL   C18713739   3.953   5.044   4.252  0.4419  0.1299 -0.0417
   57MOL   H18813740   3.981   5.481   4.192 -0.5162 -2.9146  1.2212
   57MOL   H18913741   4.127   5.559   4.149 -2.3677  0.6001 -1.0155
   57MOL   H19013742   4.219   5.299   4.135 -0.6824 -0.6028  1.5887
   57MOL   H19113743   3.849   5.076   4.253  0.6544  0.8990 -1.6518
   57MOL   H19213744   3.975   5.019   4.355 -1.3512 -1.1373  0.0604
   57MOL   H19313745   3.985   4.972   4.175  0.3506 -0.7321  0.7172
   57MOL   C19413746   4.144   5.387   3.958  0.7302  0.0290  0.4714
   57MOL   C19513747   4.280   5.458   3.925  0.0627  0.1495 -0.4084
   57MOL   C19613748   4.400   5.362   3.944 -0.0002 -0.3100 -0.5103
   57MOL   O19713749   4.406   5.252   3.897 -0.0166  0.4948 -0.1676
   57MOL   O19813750   4.500   5.409   4.013 -0.3519  0.0558  0.2376
   57MOL   C19913751   4.612   5.317   4.040  0.2800 -0.4368 -0.7165
   57MOL   H20013752   4.138   5.290   3.907  0.5321 -0.5965  1.6625
   57MOL   H20113753   4.060   5.447   3.926  1.0573 -0.3557 -1.1688
   57MOL   H20213754   4.287   5.539   3.997  0.4576 -1.2698  1.1893
   57MOL   H20313755   4.697   5.364   4.090  0.0564  0.7075 -1.3853
   57MOL   H20413756   4.657   5.282   3.947 -0.7677 -1.0476 -0.9995
   57MOL   H20513757   4.572   5.228   4.087 -2.7311  0.5087 -1.3868
   57MOL   C20613758   4.292   5.535   3.784  0.6114 -0.4932  0.5882
   57MOL   C20713759   4.275   5.447   3.664  0.0151  0.9136  0.1813
   57MOL   C20813760   4.128   5.410   3.628 -0.3684 -0.3193 -0.3529
   57MOL   O20913761   4.033   5.482   3.656 -0.1857 -0.1689 -0.0598
   57MOL   O21013762   4.118   5.285   3.581  0.5851  0.2251 -0.1589
   57MOL   C21113763   3.989   5.238   3.550  1.1139 -0.4391  0.1719
   57MOL   H21213764   4.226   5.621   3.785  0.2266 -0.7885  1.1027
   57MOL   H21313765   4.394   5.574   3.781 -0.9699  4.0623  2.2137
   57MOL   H21413766   4.327   5.352   3.679  1.9215  1.7127 -1.1629
   57MOL   H21513767   4.003   5.148   3.490  3.4910  0.2953 -0.4082
   57MOL   H21613768   3.915   5.304   3.505  2.9120  1.8313  0.4985
   57MOL   H21713769   3.940   5.198   3.639 -1.8598  1.7842 -0.3781
   57MOL   C21813770   4.351   5.513   3.542 -0.4422  0.1163  0.3658
   57MOL   C21913771   4.505   5.515   3.559 -0.5540  0.3292  0.2234
   57MOL   C22013772   4.556   5.372   3.595  0.4415  0.6841 -0.5034
   57MOL   O22113773   4.632   5.354   3.689 -0.3752  0.4642 -0.4628
   57MOL   O22213774   4.514   5.278   3.508  0.0285  0.0034 -0.4166
   57MOL   C22313775   4.553   5.148   3.539 -0.2006  0.0192  0.8523
   57MOL   H22413776   4.320   5.479   3.444 -1.9532  0.4997  0.6991
   57MOL   H22513777   4.314   5.616   3.542 -0.0845  0.2665 -1.6471
   57MOL   H22613778   4.531   5.589   3.634  3.3602  0.5896 -1.2801
   57MOL   H22713779   4.662   5.145   3.534 -0.2539 -0.9618  0.1507
   57MOL   H22813780   4.518   5.065   3.477  1.2383  0.0726 -0.0500
   57MOL   H22913781   4.517   5.120   3.638  1.2704 -1.1697  1.0660
   57MOL   C23013782   4.597   5.572   3.451  0.0556 -0.7551  0.1158
   57MOL   C23113783   4.559   5.716   3.412  0.2522 -0.2078  0.1193
   57MOL   C23213784   4.662   5.756   3.306 -0.1405 -0.4503  0.2642
   57MOL   O23313785   4.755   5.829   3.334 -0.2184  0.4637 -0.1016
   57MOL   O23413786   4.636   5.710   3.187 -0.0555  0.4181 -0.3265
   57MOL   C23513787   4.730   5.730   3.087 -0.1802  0.2551  0.2853
   57MOL   H23613788   4.698   5.556   3.486 -0.0781 -0.4810  0.6255
   57MOL   H23713789   4.594   5.506   3.364  1.5026  1.0429 -1.3424
   57MOL   H23813790   4.565   5.770   3.507  0.7828 -0.8144  0.4380
   57MOL   H23913791   4.820   5.671   3.103  0.3210  1.3074  1.3533
   57MOL   H24013792   4.747   5.837   3.081  1.6376 -0.0394  0.1559
   57MOL   H24113793   4.691   5.704   2.988  1.3485  2.2574 -0.8649
   57MOL   H24213794   4.458   5.730   3.374  1.2022 -0.2667 -2.4950
   58MOL     C113795   0.211   0.974   0.035 -0.0346  0.0896  0.2337
   58MOL     C213796   0.074   0.905   0.033 -0.4409  0.8012  0.7058
   58MOL     C313797   0.084   0.791   7.857  0.4090 -0.3135  1.0366
   58MOL     O413798   0.015   0.785   7.753 -0.2836  0.0157 -0.3552
   58MOL     O513799   0.183   0.707   7.888  0.4605 -0.2242  0.1938
   58MOL     C613800   0.195   0.598   7.803  1.2535 -0.1444 -0.1146
   58MOL     H713801   0.277   0.892   0.063 -1.0722 -0.5630  0.8146
   58MOL     H813802   0.227   1.062   0.097  1.8368  1.0178 -1.4864
   58MOL     H913803   7.925   0.974   0.016 -0.4318  0.7581  0.4838
   58MOL    H1013804   0.293   0.552   7.819  0.4960 -1.4814  0.7991
   58MOL    H1113805   0.189   0.624   7.698 -1.8667 -3.0974 -0.7329
   58MOL    H1213806   0.116   0.526   7.823 -0.1971  1.2372 -0.7957
   58MOL    H1313807   0.243   1.013   7.871  3.3365  0.6028  1.4909
   58MOL    C1413808   0.036   0.849   0.174  0.2227  0.3315  0.6098
   58MOL    C1513809   7.845   0.758   0.188  0.2970 -0.7178  0.4092
   58MOL    C1613810   7.814   0.744   0.341 -0.3997  0.3828  0.4379
   58MOL    O1713811   7.767   0.831   0.411 -0.0651  0.0389  0.0837
   58MOL    O1813812   7.852   0.622   0.370 -0.3790 -0.1802  0.1296
   58MOL    C1913813   7.799   0.564   0.483 -0.6391 -0.6784 -0.6816
   58MOL    H2013814   0.113   0.789   0.223  0.4083 -1.3319 -1.6557
   58MOL    H2113815   0.017   0.944   0.225 -0.6335  1.7095 -2.1682
   58MOL    H2213816   7.868   0.660   0.148 -0.1194 -1.8488  2.8536
   58MOL    H2313817   7.714   0.610   0.532  1.1905  0.6092  1.3837
   58MOL    H2413818   7.879   0.546   0.554 -0.0127  0.2255 -1.1431
   58MOL    H2513819   7.768   0.465   0.450 -0.3743 -0.9696 -0.0631
   58MOL    C2613820   7.726   0.811   0.113 -0.0789  0.0616 -0.6829
   58MOL    C2713821   7.640   0.695   0.052  0.5374 -0.0998  0.7286
   58MOL    C2813822   7.585   0.601   0.155  0.8968  0.3037  0.5806
   58MOL    O2913823   7.616   0.482   0.164 -0.2999 -0.6853  0.2787
   58MOL    O3013824   7.496   0.659   0.230  0.2684 -0.0739 -0.4726
   58MOL    C3113825   7.429   0.579   0.323  0.9619 -0.0943 -0.5727
   58MOL    H3213826   7.658   0.865   0.179 -0.8343 -1.3551 -0.2915
   58MOL    H3313827   7.733   0.897   0.046 -2.2513 -0.4257 -1.5702
   58MOL    H3413828   7.701   0.627   7.925 -3.0041 -2.2852 -0.5295
   58MOL    H3513829   7.389   0.640   0.405 -0.7135 -3.8839  1.5928
   58MOL    H3613830   7.497   0.512   0.376  0.7313  1.8477  2.2986
   58MOL    H3713831   7.338   0.529   0.289  1.1498 -0.4150 -0.6062
   58MOL    C3813832   7.538   0.755   7.879  0.0617 -0.3335 -0.0918
   58MOL    C3913833   7.510   0.654   7.756 -0.3817 -0.5134 -0.2768
   58MOL    C4013834   7.367   0.677   7.699 -0.4527 -0.4116 -0.2083
   58MOL    O4113835   7.348   0.696   7.576 -0.3050 -0.1550 -0.5292
   58MOL    O4213836   7.273   0.681   7.799 -0.5395  0.4767  0.1188
   58MOL    C4313837   7.137   0.707   7.775  0.4629  0.7646  0.2031
   58MOL    H4413838   7.448   0.769   0.006 -0.8848 -1.5946 -1.1921
   58MOL    H4513839   7.593   0.839   7.836 -1.0724  1.2529  1.4518
   58MOL    H4613840   7.496   0.553   7.795  1.5454 -0.0893  1.6245
   58MOL    H4713841   7.118   0.815   7.780 -0.8098  0.6285 -1.4363
   58MOL    H4813842   7.072   0.663   7.851  0.3093  0.0012 -0.3683
   58MOL    H4913843   7.094   0.680   7.679 -0.2629 -1.0596  1.0255
   58MOL    C5013844   7.627   0.643   7.658 -0.4264  0.0205 -0.0773
   58MOL    C5113845   7.673   0.512   7.600  0.0876  0.2068 -0.0995
   58MOL    C5213846   7.569   0.454   7.513 -0.1785 -0.1879 -0.2190
   58MOL    O5313847   7.564   0.486   7.395  0.4469 -0.2335 -0.3499
   58MOL    O5413848   7.486   0.368   7.577  0.3137 -0.3007  0.4167
   58MOL    C5513849   7.375   0.311   7.503  0.5473  0.2693  0.2616
   58MOL    H5613850   7.600   0.721   7.587  2.0539  1.0407  0.0453
   58MOL    H5713851   7.712   0.690   7.708 -1.3289  0.9967  0.5765
   58MOL    H5813852   7.696   0.442   7.681  0.2848 -0.9158 -1.1129
   58MOL    H5913853   7.422   0.273   7.412  0.3423  1.9868 -0.5763
   58MOL    H6013854   7.290   0.373   7.471  0.7977  0.3151 -0.3255
   58MOL    H6113855   7.340   0.229   7.566  4.9218 -1.3597  0.6905
   58MOL    C6213856   7.804   0.541   7.522 -0.1804  0.4540 -0.4476
   58MOL    C6313857   7.856   0.412   7.448  0.2218  0.1602  0.4001
   58MOL    C6413858   0.030   0.442   7.349 -0.0011  0.1256 -0.0328
   58MOL    O6513859   0.018   0.404   7.231  0.0050 -0.2234 -0.4268
   58MOL    O6613860   0.144   0.502   7.397  0.7760  0.1241 -0.1093
   58MOL    C6713861   0.248   0.537   7.313 -0.3863  0.3566 -0.2989
   58MOL    H6813862   7.806   0.629   7.458 -0.7353 -0.5226 -1.8319
   58MOL    H6913863   7.885   0.570   7.588 -2.6287  3.1003  1.5185
   58MOL    H7013864   7.776   0.364   7.392  0.5258  3.1613 -2.7599
   58MOL    H7113865   0.274   0.460   7.241  0.9302  0.0832  0.4388
   58MOL    H7213866   0.345   0.561   7.359 -0.2979  1.2890 -0.9553
   58MOL    H7313867   0.221   0.630   7.262  0.5688  0.8300  0.0409
   58MOL    C7413868   7.913   0.306   7.543  0.3768  0.2581 -0.3451
   58MOL    C7513869   7.932   0.159   7.488  0.2437 -0.6792 -0.0566
   58MOL    C7613870   0.091   0.076   7.583 -0.2346 -0.1667  0.6218
   58MOL    O7713871   0.191   0.020   7.538  1.0586  0.1564  0.2264
   58MOL    O7813872   0.049   0.080   7.708  0.4900  0.2785 -0.0902
   58MOL    C7913873   0.119   7.928   7.798 -0.7669 -0.1008 -0.2278
   58MOL    H8013874   0.071   0.335   7.596 -0.4473 -0.5277  1.5239
   58MOL    H8113875   7.834   0.310   7.617 -1.4482  0.0320 -2.2523
   58MOL    H8213876   0.058   0.177   7.397 -1.0488  2.5918 -0.2955
   58MOL    H8313877   0.094   0.021   7.901 -2.0508 -1.0129 -0.2969
   58MOL    H8413878   0.227   0.005   7.787 -0.7640  0.2072  0.0687
   58MOL    H8513879   0.082   7.825   7.796 -1.1208 -0.0181  1.1857
   58MOL    C8613880   7.786   0.104   7.453 -0.7320  0.5313 -0.4817
   58MOL    C8713881   7.784   7.915   7.364 -0.0014  0.4192 -0.1987
   58MOL    C8813882   7.647   7.847   7.344 -0.1765  0.4449 -0.0336
   58MOL    O8913883   7.637   7.738   7.283 -0.1778  0.3358 -0.4693
   58MOL    O9013884   7.543   7.927   7.383 -0.5660 -0.0216 -0.4635
   58MOL    C9113885   7.416   7.880   7.345 -0.2073 -0.2030 -0.2385
   58MOL    H9213886   7.723   0.086   7.540 -0.5028 -1.9773 -0.7995
   58MOL    H9313887   7.732   0.188   7.408  0.6031  1.0059 -1.2298
   58MOL    H9413888   7.840   7.838   7.417 -0.1254 -0.1333 -0.8580
   58MOL    H9513889   7.336   0.017   7.367 -0.7131 -0.9944  0.4686
   58MOL    H9613890   7.393   7.788   7.400  1.0350  0.8873  2.1817
   58MOL    H9713891   7.415   7.859   7.238 -0.3733 -2.6572  0.2133
   58MOL    C9813892   7.848   0.008   7.222 -0.4776  0.1744 -0.5206
   58MOL    C9913893   0.048   7.875   7.205 -0.3797 -0.1266 -0.0393
   58MOL   C10013894   0.034   7.726   7.190 -0.1564  0.1605  0.5655
   58MOL   O10113895   0.090   7.649   7.263  0.5102 -0.1604 -0.5806
   58MOL   O10213896   7.895   7.689   7.076 -0.6531 -0.1334 -0.2230
   58MOL   C10313897   7.871   7.558   7.043  0.1598  0.1854  0.6882
   58MOL   H10413898   7.792   7.909   7.134 -0.1620 -1.9197  0.0170
   58MOL   H10513899   7.860   0.116   7.214 -0.3096  0.1420 -0.7323
   58MOL   H10613900   0.108   7.876   7.296 -0.1740  1.7167 -0.1826
   58MOL   H10713901   7.849   7.551   6.937  0.5908 -0.6486  0.6469
   58MOL   H10813902   7.795   7.507   7.102 -0.6671  1.8267  1.0614
   58MOL   H10913903   0.032   7.502   7.052 -1.6286 -3.7167 -2.9540
   58MOL   C11013904   0.126   7.928   7.085 -0.1030  0.2897 -0.1745
   58MOL   C11113905   0.194   0.140   7.095  1.0998  0.4043  0.5414
   58MOL   C11213906   0.309   0.147   7.198  0.7114  0.4472 -0.0309
   58MOL   O11313907   0.291   0.213   7.304  0.1253 -0.8643  0.5422
   58MOL   O11413908   0.423   0.082   7.165 -0.1350  0.3101  0.1670
   58MOL   C11513909   0.539   0.087   7.244  0.0446  0.2277  0.0362
   58MOL   H11613910   0.202   7.853   7.062 -1.0557 -1.3114  1.6918
   58MOL   H11713911   0.067   7.922   6.994  1.1726 -1.6742 -0.8932
   58MOL   H11813912   0.119   0.212   7.128 -1.3143 -3.0786  3.0134
   58MOL   H11913913   0.523   0.166   7.317  1.2564 -0.3886  0.9781
   58MOL   H12013914   0.625   0.123   7.186  1.0088  0.3765  1.5456
   58MOL   H12113915   0.562   7.919   7.278 -0.4662 -0.3108 -1.1732
   58MOL   C12213916   0.256   0.167   6.948  0.1333  0.3813 -1.2716
   58MOL   C12313917   0.158   0.224   6.842  0.1505  0.0823 -0.0565
   58MOL   C12413918   0.085   0.350   6.890  0.4580 -0.7429 -0.2593
   58MOL   O12513919   7.900   0.363   6.884 -0.3821  0.0037  0.2341
   58MOL   O12613920   0.175   0.455   6.917 -0.1401  0.3977 -0.1212
   58MOL   C12713921   0.118   0.582   6.948  0.2123  0.5351  0.1949
   58MOL   H12813922   0.348   0.223   6.957 -0.1726  0.8202 -0.8456
   58MOL   H12913923   0.297   0.077   6.902 -0.7210  0.5238 -2.3320
   58MOL   H13013924   0.087   0.143   6.827 -0.4720  0.8167 -1.2493
   58MOL   H13113925   0.201   0.652   6.940 -0.7862  1.6012 -1.0904
   58MOL   H13213926   0.085   0.575   7.052 -2.3845  4.0689 -0.2774
   58MOL   H13313927   0.043   0.619   6.878  1.7665  1.0730 -1.2120
   58MOL   C13413928   0.233   0.251   6.707  0.0131 -0.5038  1.1784
   58MOL   C13513929   0.149   0.244   6.571 -0.8654 -0.0290 -0.1216
   58MOL   C13613930   0.017   0.326   6.568 -0.3795  0.6943 -0.1765
   58MOL   O13713931   0.021   0.447   6.587 -0.4237  0.9375 -0.8182
   58MOL   O13813932   7.835   0.263   6.541  0.3206 -0.1737 -0.3084
   58MOL   C13913933   7.712   0.333   6.540 -0.0363  0.1556 -0.1460
   58MOL   H14013934   0.280   0.349   6.703 -0.6305 -0.2439 -1.6929
   58MOL   H14113935   0.307   0.172   6.700  0.6618  0.2717 -1.1477
   58MOL   H14213936   0.141   0.136   6.556  1.2193  0.1345 -2.8759
   58MOL   H14313937   7.635   0.266   6.503 -0.4243  0.7488 -0.4232
   58MOL   H14413938   7.723   0.420   6.474 -1.0329  1.4921  1.4222
   58MOL   H14513939   7.687   0.358   6.643 -1.2398  1.4513 -0.7332
   58MOL   C14613940   0.246   0.285   6.456 -0.7269  0.4340 -0.7957
   58MOL   C14713941   0.182   0.283   6.314  0.1122  0.1267  0.1737
   58MOL   C14813942   0.277   0.359   6.214  0.2340  0.0644 -0.1951
   58MOL   O14913943   0.401   0.345   6.214 -0.2463  0.2317  0.1301
   58MOL   O15013944   0.199   0.423   6.132 -0.1755  0.0594  0.8150
   58MOL   C15113945   0.255   0.488   6.012 -0.5165 -0.1712  0.0525
   58MOL   H15213946   0.291   0.383   6.472  1.2370 -0.5615  0.0245
   58MOL   H15313947   0.328   0.215   6.441 -0.8794  0.0549  0.0932
   58MOL   H15413948   0.086   0.333   6.300 -1.0515 -1.9276  0.7143
   58MOL   H15513949   0.355   0.525   6.035 -0.3858 -1.3036  1.3809
   58MOL   H15613950   0.189   0.565   5.972  0.2805  0.1845 -0.5934
   58MOL   H15713951   0.265   0.419   5.928 -1.8992  1.3186 -1.3806
   58MOL   C15813952   0.161   0.138   6.264  0.6677 -0.4852 -0.0713
   58MOL   C15913953   0.017   0.097   6.234 -0.2742 -0.8277  0.1332
   58MOL   C16013954   7.880   0.190   6.131 -0.9026  0.3901  0.7522
   58MOL   O16113955   7.782   0.257   6.165  0.3808  0.0294  0.3609
   58MOL   O16213956   7.932   0.168   6.012  0.0648  0.0651 -0.1179
   58MOL   C16313957   7.884   0.233   5.899  0.0666  0.5040 -0.5983
   58MOL   H16413958   0.218   0.112   6.175  2.7517 -0.0717  1.1084
   58MOL   H16513959   0.211   0.063   6.325  1.8352 -1.0856 -1.7137
   58MOL   H16613960   7.888   0.116   6.322 -0.8724 -3.5882  0.3351
   58MOL   H16713961   7.844   0.330   5.929 -0.8033  0.2276 -0.8275
   58MOL   H16813962   7.804   0.177   5.850 -0.0560  0.7655 -0.7028
   58MOL   H16913963   0.029   0.253   5.826  1.6501  0.4491  1.0603
   58MOL   C17013964   7.919   7.878   6.206 -0.6993 -0.1922 -0.0612
   58MOL   C17113965   7.767   7.828   6.209 -0.5214  0.5109  0.4838
   58MOL   C17213966   7.736   7.693   6.135 -0.2430  0.3350 -0.0054
   58MOL   O17313967   7.639   7.690   6.059  0.9431  0.5554  0.2185
   58MOL   O17413968   7.810   7.590   6.172  0.2148  0.4052  0.0906
   58MOL   C17513969   7.773   7.466   6.117  0.2839 -0.6198 -0.0397
   58MOL   H17613970   0.026   7.851   6.108 -0.2390 -0.8756  0.3120
   58MOL   H17713971   0.043   7.823   6.280  0.5305 -0.1056 -0.9130
   58MOL   H17813972   7.706   7.898   6.153  0.1216 -0.1696 -1.1035
   58MOL   H17913973   7.667   7.446   6.134  0.0566 -0.1634 -0.8846
   58MOL   H18013974   7.819   7.380   6.167  0.6747 -2.0326 -2.7327
   58MOL   H18113975   7.791   7.466   6.009 -0.9281  0.0046 -0.2554
   58MOL   C18213976   7.710   7.827   6.351 -0.0035  0.0229 -0.3397
   58MOL   C18313977   7.770   7.733   6.462 -0.2695 -0.0170  0.7355
   58MOL   C18413978   7.806   7.824   6.579  0.0453 -0.2825  0.0085
   58MOL   O18513979   7.920   7.852   6.614  0.6895  0.1986  0.3557
   58MOL   O18613980   7.694   7.870   6.637 -0.5054 -0.0664 -0.1564
   58MOL   C18713981   7.697   0.033   6.747  0.5250 -0.3185  0.4429
   58MOL   H18813982   7.708   7.930   6.384  0.2224  0.1698 -0.7802
   58MOL   H18913983   7.609   7.788   6.336  0.3784 -1.1305 -0.0127
   58MOL   H19013984   7.862   7.693   6.418 -0.7871  1.6852 -2.0467
   58MOL   H19113985   7.764   0.003   6.827 -0.6719 -2.3641  0.7227
   58MOL   H19213986   7.597   0.059   6.782  0.7352  0.4005  0.5144
   58MOL   H19313987   7.735   0.123   6.700  0.8051 -1.0026 -0.6807
   58MOL   C19413988   7.688   7.606   6.505 -0.0715 -0.5322  0.1034
   58MOL   C19513989   7.783   7.499   6.573 -0.1086 -0.2564 -0.0194
   58MOL   C19613990   7.692   7.396   6.646  0.1721  0.1687  0.4644
   58MOL   O19713991   7.634   7.311   6.580  0.1955  0.0560  0.0049
   58MOL   O19813992   7.697   7.399   6.779 -0.2759  0.2609 -0.0513
   58MOL   C19913993   7.638   7.297   6.862 -0.2450 -0.1538 -1.2504
   58MOL   H20013994   7.602   7.630   6.568 -0.7072 -0.0850 -0.9209
   58MOL   H20113995   7.649   7.564   6.413  2.3271  0.6416 -1.4777
   58MOL   H20213996   7.846   7.539   6.653 -0.3325  2.1008 -0.9810
   58MOL   H20313997   7.722   7.230   6.882  0.8094  1.1018 -1.4147
   58MOL   H20413998   7.557   7.250   6.808 -0.1687 -1.3495 -0.3508
   58MOL   H20513999   7.605   7.356   6.947  1.2646 -0.9147 -0.1150
   58MOL   C20614000   7.878   7.433   6.474  0.6334 -0.7529  0.3838
   58MOL   C20714001   0.036   7.325   6.538  0.2481  0.1881  0.0906
   58MOL   C20814002   0.052   7.209   6.434 -0.1795 -1.2437 -0.6926
   58MOL   O20914003   0.122   7.223   6.334  0.1810  0.1971  0.2809
   58MOL   O21014004   7.913   7.104   6.458  0.1057  0.4725 -0.0374
   58MOL   C21114005   7.910   6.992   6.369 -0.1336  0.5468 -0.6605
   58MOL   H21214006   7.814   7.393   6.396  0.3267 -0.0222  0.2573
   58MOL   H21314007   0.007   7.500   6.414 -1.1250 -0.8174 -1.5445
   58MOL   H21414008   7.919   7.272   6.620  1.3858  0.4046  0.9258
   58MOL   H21514009   7.864   6.904   6.412  0.4040  0.5209 -0.1353
   58MOL   H21614010   0.084   6.969   6.361  0.1514  1.8049 -0.5925
   58MOL   H21714011   7.856   7.023   6.280  0.1883  1.0988 -0.6666
   58MOL   C21814012   0.181   7.376   6.592  0.5904 -1.1160  0.5517
   58MOL   C21914013   0.252   7.287   6.693 -0.5749 -0.2665  0.0921
   58MOL   C22014014   0.183   7.297   6.826  0.3170  0.5706 -0.2926
   58MOL   O22114015   0.210   7.387   6.902  0.0627 -0.4832 -0.7854
   58MOL   O22214016   0.089   7.201   6.845 -0.1986  0.3780 -0.4739
   58MOL   C22314017   0.051   7.175   6.981  0.1304  0.1432 -0.7984
   58MOL   H22414018   0.240   7.383   6.501  1.5198  2.9526  1.3718
   58MOL   H22514019   0.165   7.474   6.637  0.3842 -1.7358  1.8568
   58MOL   H22614020   0.351   7.327   6.715  0.1742 -0.8283 -2.1713
   58MOL   H22714021   0.102   7.087   7.019  0.9100  1.6163  1.6407
   58MOL   H22814022   7.877   7.153   6.987  0.6001 -2.0385 -0.1981
   58MOL   H22914023   0.067   7.258   7.049  0.1508 -0.6449  0.1574
   58MOL   C23014024   0.278   7.141   6.655  0.0680 -0.2831  0.1850
   58MOL   C23114025   0.386   7.132   6.545  0.4769 -0.2328 -0.1209
   58MOL   C23214026   0.533   7.163   6.581  0.4436  0.1036  0.0334
   58MOL   O23314027   0.565   7.182   6.703  0.3966  0.4642 -0.2299
   58MOL   O23414028   0.606   7.159   6.476  0.2367  0.1529 -0.1504
   58MOL   C23514029   0.744   7.162   6.490 -0.5408  0.4627 -0.5305
   58MOL   H23614030   0.313   7.090   6.744  2.1125 -2.7842 -1.9575
   58MOL   H23714031   0.190   7.084   6.626  0.0806  0.0997 -0.6431
   58MOL   H23814032   0.355   7.200   6.466  0.1110 -0.2369  0.0173
   58MOL   H23914033   0.790   7.249   6.444 -1.8436 -0.5058 -3.7862
   58MOL   H24014034   0.796   7.076   6.448 -2.7366 -0.0728 -2.2667
   58MOL   H24114035   0.765   7.168   6.597 -2.4375 -1.5626  0.0023
   58MOL   H24214036   0.376   7.028   6.514  0.3696 -0.0533 -0.6953
   59MOL     C114037   7.446   5.452   3.616 -0.0553  0.4008  0.6595
   59MOL     C214038   7.586   5.415   3.662 -0.0335  0.2067 -0.1073
   59MOL     C314039   7.599   5.267   3.686 -0.0020 -0.0123 -0.1901
   59MOL     O414040   7.503   5.188   3.694  0.1180  0.4070 -0.0837
   59MOL     O514041   7.729   5.231   3.711 -0.1585  0.2587  0.2822
   59MOL     C614042   7.753   5.093   3.738  0.0827 -0.1884  0.3469
   59MOL     H714043   7.372   5.427   3.693 -0.8568  1.4522  0.2442
   59MOL     H814044   7.428   5.389   3.529 -0.6497  1.3342  0.0885
   59MOL     H914045   7.594   5.468   3.757 -2.4660  1.9293 -0.7895
   59MOL    H1014046   7.861   5.075   3.743  0.0728 -1.4795 -2.6182
   59MOL    H1114047   7.704   5.023   3.670  0.5005 -1.2641  1.1575
   59MOL    H1214048   7.701   5.074   3.832 -0.0018 -1.1662  0.1023
   59MOL    H1314049   7.438   5.559   3.594 -0.5109 -0.1355 -1.9828
   59MOL    C1414050   7.686   5.479   3.559  0.7603 -0.4691  0.3402
   59MOL    C1514051   7.781   5.585   3.614 -0.3747  0.3999 -0.2942
   59MOL    C1614052   7.889   5.510   3.703  0.3655 -0.0187 -0.0324
   59MOL    O1714053   0.074   5.491   3.665 -0.5443 -0.3416  0.6779
   59MOL    O1814054   7.831   5.465   3.818 -0.2452 -0.0824 -0.0893
   59MOL    C1914055   7.915   5.393   3.901 -0.8761 -0.0912 -0.2807
   59MOL    H2014056   7.745   5.399   3.515 -0.7767 -1.5038  0.1716
   59MOL    H2114057   7.629   5.532   3.483 -1.6169 -1.1177  1.6368
   59MOL    H2214058   7.719   5.656   3.667  0.1520  1.0288 -0.5128
   59MOL    H2314059   0.074   5.449   3.911 -0.4826 -0.9065  0.7676
   59MOL    H2414060   7.931   5.292   3.863 -1.9694 -0.5700  0.4954
   59MOL    H2514061   7.859   5.398   3.994  0.4828  0.4510  0.5116
   59MOL    C2614062   7.856   5.666   3.508  0.0719 -0.2769  0.0146
   59MOL    C2714063   0.005   5.792   3.554  0.3980 -0.1371 -0.0178
   59MOL    C2814064   0.087   5.853   3.442 -1.2445  0.5241 -0.4527
   59MOL    O2914065   0.103   5.972   3.436 -0.1991  0.0649 -0.0867
   59MOL    O3014066   0.147   5.763   3.370  0.0224 -0.0846  0.0161
   59MOL    C3114067   0.237   5.798   3.268 -0.9420 -0.9973  0.3090
   59MOL    H3214068   7.922   5.607   3.446 -0.4112 -0.5579 -0.2389
   59MOL    H3314069   7.786   5.688   3.427  1.9530  1.6360 -1.1359
   59MOL    H3414070   0.081   5.757   3.624  1.2696 -1.0776 -1.4032
   59MOL    H3514071   0.337   5.825   3.301 -1.9324  0.8450  1.9040
   59MOL    H3614072   0.208   5.887   3.213  1.3860 -0.0071  0.6540
   59MOL    H3714073   0.242   5.718   3.194 -1.8526 -0.0105 -0.8614
   59MOL    C3814074   7.850   5.905   3.615  0.3089 -0.2973 -0.6488
   59MOL    C3914075   7.730   5.944   3.529  0.2978  0.2547  0.6051
   59MOL    C4014076   7.602   5.869   3.560 -0.5512 -1.3408 -0.2122
   59MOL    O4114077   7.545   5.788   3.482  0.3095 -0.1100 -0.0529
   59MOL    O4214078   7.550   5.894   3.681  0.1582  0.2324  0.3643
   59MOL    C4314079   7.432   5.845   3.733  0.4716  0.2670 -0.2046
   59MOL    H4414080   7.818   5.865   3.711  3.1208 -0.6084  0.2004
   59MOL    H4514081   7.906   5.997   3.632 -1.7055  0.9077 -0.3603
   59MOL    H4614082   7.756   5.929   3.424 -1.4231  2.4525 -0.1779
   59MOL    H4714083   7.369   5.792   3.661 -0.3098 -0.1951  0.8084
   59MOL    H4814084   7.383   5.932   3.777  1.2841  0.2218  0.8126
   59MOL    H4914085   7.463   5.774   3.810 -1.3136 -0.7006 -0.3520
   59MOL    C5014086   7.698   6.103   3.527  0.0081  0.2972 -0.1297
   59MOL    C5114087   7.727   6.182   3.401  0.4669 -0.7651  0.2989
   59MOL    C5214088   7.627   6.146   3.286  1.4570  0.0524 -0.4387
   59MOL    O5314089   7.656   6.055   3.211 -0.1542  0.1573 -0.1367
   59MOL    O5414090   7.518   6.225   3.279 -0.4041  0.1175 -0.9417
   59MOL    C5514091   7.421   6.208   3.176  0.5525  0.3903  0.4993
   59MOL    H5614092   7.593   6.113   3.555  0.0554 -2.2867  1.1079
   59MOL    H5714093   7.740   6.155   3.613  0.6289  0.0164 -0.2642
   59MOL    H5814094   7.821   6.142   3.363  0.9734  0.9298 -0.2870
   59MOL    H5914095   7.476   6.206   3.082  1.8695  0.1906  1.2651
   59MOL    H6014096   7.368   6.303   3.174 -2.0101 -0.9887  0.5413
   59MOL    H6114097   7.356   6.120   3.180  0.7480  0.2622  0.8454
   59MOL    C6214098   7.757   6.330   3.430 -0.5342  0.2765 -0.2021
   59MOL    C6314099   7.825   6.408   3.314 -0.1026 -0.3632  0.5810
   59MOL    C6414100   7.923   6.331   3.224 -0.1396 -0.0162 -0.1845
   59MOL    O6514101   7.900   6.320   3.101 -0.7054 -0.3433  0.4797
   59MOL    O6614102   0.098   6.274   3.296 -0.5735 -0.2480  0.2320
   59MOL    C6714103   0.182   6.196   3.216 -0.5943 -0.2867  0.3419
   59MOL    H6814104   7.665   6.379   3.464 -0.2697  0.8310 -0.2679
   59MOL    H6914105   7.822   6.344   3.517 -1.6841  2.9241  0.3081
   59MOL    H7014106   7.885   6.485   3.363 -1.1156  0.3008  0.8042
   59MOL    H7114107   0.270   6.173   3.276 -0.7303 -0.3562  0.5145
   59MOL    H7214108   0.197   6.243   3.119 -0.4172 -0.3286  0.3493
   59MOL    H7314109   0.145   6.098   3.187 -0.6897 -0.2903  0.4790
   59MOL    C7414110   7.732   6.494   3.226  0.2707  0.5156 -0.0350
   59MOL    C7514111   7.662   6.620   3.281  0.1791 -0.7395 -0.0336
   59MOL    C7614112   7.759   6.741   3.295  0.4827  0.0308  0.9574
   59MOL    O7714113   7.869   6.741   3.252 -0.9070 -0.3561 -0.4207
   59MOL    O7814114   7.704   6.846   3.353  0.1122 -0.3869 -0.8837
   59MOL    C7914115   7.770   6.971   3.347  0.0692 -0.5011  0.0015
   59MOL    H8014116   7.785   6.517   3.134  0.0180 -1.3838 -0.6673
   59MOL    H8114117   7.655   6.429   3.186  1.8375 -1.2857 -0.1612
   59MOL    H8214118   7.646   6.590   3.384 -0.2954 -0.2687  0.0286
   59MOL    H8314119   7.696   7.047   3.374  0.8730 -0.1571  1.2550
   59MOL    H8414120   7.811   7.004   3.251  0.6748 -0.2054  0.3637
   59MOL    H8514121   7.843   6.985   3.426  0.6730 -1.3726 -0.3890
   59MOL    C8614122   7.530   6.651   3.202 -0.1734 -0.6464 -0.4919
   59MOL    C8714123   7.547   6.715   3.055  0.6516 -0.8048 -0.3084
   59MOL    C8814124   7.561   6.607   2.949  0.2790 -0.9986  0.7250
   59MOL    O8914125   7.664   6.607   2.880 -0.0510 -0.3688  0.7413
   59MOL    O9014126   7.461   6.520   2.943  0.2985 -0.2041 -0.0821
   59MOL    C9114127   7.456   6.436   2.832  0.1817  0.5371 -0.8324
   59MOL    H9214128   7.471   6.560   3.194 -2.6530  0.9987 -1.2661
   59MOL    H9314129   7.460   6.706   3.264 -0.5383 -2.4980  0.7859
   59MOL    H9414130   7.640   6.771   3.059 -0.9401  1.8313  1.6726
   59MOL    H9514131   7.493   6.476   2.738  1.7926  2.7099  0.6875
   59MOL    H9614132   7.358   6.390   2.820  0.7802 -0.8335 -0.5855
   59MOL    H9714133   7.515   6.346   2.847 -2.8292 -1.5679 -1.1223
   59MOL    C9814134   7.424   6.801   3.028  0.1799  0.1231  0.0655
   59MOL    C9914135   7.409   6.924   3.113 -0.3907 -0.6078  0.4094
   59MOL   C10014136   7.428   7.049   3.025  0.1509 -0.5361  0.2242
   59MOL   O10114137   7.339   7.126   2.988  0.5575 -0.6955 -0.0596
   59MOL   O10214138   7.558   7.068   2.985 -0.3588 -0.1567  0.1267
   59MOL   C10314139   7.593   7.166   2.890  0.6012 -0.0076  0.3967
   59MOL   H10414140   7.417   6.815   2.920 -0.7445 -0.0129  0.1050
   59MOL   H10514141   7.335   6.740   3.045  0.8021 -0.3940  1.6079
   59MOL   H10614142   7.496   6.910   3.178 -0.3560 -0.1976  0.4547
   59MOL   H10714143   7.511   7.217   2.840  0.3651 -3.1637 -2.5773
   59MOL   H10814144   7.635   7.102   2.812  0.4181  0.0516  0.2492
   59MOL   H10914145   7.675   7.230   2.925  0.1635  1.0774 -0.5391
   59MOL   C11014146   7.277   6.932   3.208 -0.4393  0.3949  0.1066
   59MOL   C11114147   7.274   7.027   3.325  0.3304  0.3927 -0.0684
   59MOL   C11214148   7.148   7.008   3.405  0.2050 -0.1387 -0.0528
   59MOL   O11314149   7.156   6.921   3.495 -0.4668 -0.2474  0.1364
   59MOL   O11414150   7.044   7.081   3.374 -0.0058 -0.0017  0.4282
   59MOL   C11514151   6.919   7.075   3.449 -0.0986 -0.3067  0.3210
   59MOL   H11614152   7.194   6.959   3.142  0.4602  0.6072 -0.9384
   59MOL   H11714153   7.253   6.834   3.248  0.2935  0.0058 -0.4014
   59MOL   H11814154   7.271   7.131   3.295  0.8408  0.5799  0.5146
   59MOL   H11914155   6.843   7.144   3.412 -0.6855 -1.5278 -0.7729
   59MOL   H12014156   6.935   7.107   3.552  1.3502  2.1770 -0.6205
   59MOL   H12114157   6.882   6.973   3.444  1.7721 -0.9280 -1.6523
   59MOL   C12214158   7.400   7.005   3.419 -0.4711  0.5816 -0.5606
   59MOL   C12314159   7.413   7.078   3.556  0.1154  0.2108 -0.3460
   59MOL   C12414160   7.541   7.023   3.632  0.2762  0.7867  0.4968
   59MOL   O12514161   7.637   7.096   3.643 -0.3597  0.4333 -0.3378
   59MOL   O12614162   7.526   6.894   3.666 -0.4195  0.0499  0.3518
   59MOL   C12714163   7.638   6.822   3.703 -0.0753  0.3265 -0.1146
   59MOL   H12814164   7.415   6.898   3.435  1.3898  1.1760  1.9335
   59MOL   H12914165   7.497   7.029   3.375 -0.7042  3.2442  0.3420
   59MOL   H13014166   7.325   7.058   3.617 -0.4162 -0.0011 -1.1828
   59MOL   H13114167   7.723   6.824   3.636 -0.4824 -2.9546 -0.8022
   59MOL   H13214168   7.613   6.716   3.713  1.5997  0.0881  1.8579
   59MOL   H13314169   7.667   6.847   3.805  0.2173 -1.0884  0.1599
   59MOL   C13414170   7.432   7.228   3.531  0.8788  0.0394 -0.1550
   59MOL   C13514171   7.305   7.305   3.559  0.3995 -0.4133 -0.1094
   59MOL   C13614172   7.266   7.308   3.707 -0.1019  0.3135 -0.0245
   59MOL   O13714173   7.333   7.370   3.795 -0.3505  0.0913  0.0267
   59MOL   O13814174   7.161   7.235   3.732 -0.3173 -0.0392 -0.3228
   59MOL   C13914175   7.106   7.235   3.865  0.3305  0.1923 -0.5666
   59MOL   H14014176   7.515   7.274   3.585  0.3775  1.0267 -0.2136
   59MOL   H14114177   7.448   7.251   3.425 -0.7999  1.1008 -0.1964
   59MOL   H14214178   7.218   7.253   3.518 -0.7063  1.6657 -0.4839
   59MOL   H14314179   7.191   7.203   3.925  0.0113 -0.2013 -0.3181
   59MOL   H14414180   7.040   7.148   3.867 -0.9015  1.1309  0.5534
   59MOL   H14514181   7.074   7.335   3.893  0.0314 -0.1315  0.2507
   59MOL   C14614182   7.320   7.445   3.504 -0.4598 -0.2379 -0.2923
   59MOL   C14714183   7.232   7.478   3.378  0.1995  0.8118 -0.1116
   59MOL   C14814184   7.083   7.468   3.401  0.3211  0.3110  0.7761
   59MOL   O14914185   7.037   7.495   3.514  0.2390  0.2375 -0.2395
   59MOL   O15014186   7.008   7.427   3.298 -0.0418  0.0616  0.0898
   59MOL   C15114187   6.871   7.415   3.310 -0.5083 -0.0938 -0.3735
   59MOL   H15214188   7.290   7.516   3.581 -1.6709 -2.2673  1.1724
   59MOL   H15314189   7.426   7.468   3.507 -0.3187 -0.8872 -0.0760
   59MOL   H15414190   7.269   7.405   3.306  3.1745  0.1568  1.9916
   59MOL   H15514191   6.839   7.324   3.361 -1.7117 -0.0260 -1.0028
   59MOL   H15614192   6.821   7.399   3.215  0.9000 -1.6761 -0.8706
   59MOL   H15714193   6.829   7.500   3.363  0.8218  0.7262 -0.6142
   59MOL   C15814194   7.264   7.626   3.331  0.0498 -0.5185 -0.2830
   59MOL   C15914195   7.315   7.638   3.187 -0.2087  0.7573 -0.6161
   59MOL   C16014196   7.454   7.570   3.162 -0.3274  0.1138  0.4287
   59MOL   O16114197   7.552   7.633   3.127  0.0370 -0.8813 -0.0934
   59MOL   O16214198   7.457   7.434   3.179 -0.1129  0.2480  0.0830
   59MOL   C16314199   7.579   7.370   3.157 -0.5949  0.3377 -0.5124
   59MOL   H16414200   7.176   7.685   3.354 -0.2678 -1.6913  1.6310
   59MOL   H16514201   7.341   7.670   3.396 -0.3513  0.0336 -0.1776
   59MOL   H16614202   7.334   7.744   3.167 -0.4736  1.4710  2.6200
   59MOL   H16714203   7.555   7.265   3.173  0.9395 -0.2650 -2.0629
   59MOL   H16814204   7.655   7.414   3.222 -1.9827 -0.4671  1.7344
   59MOL   H16914205   7.624   7.390   3.060  0.9460 -0.8194 -0.0519
   59MOL   C17014206   7.210   7.602   3.082 -0.3449 -0.1255 -0.2994
   59MOL   C17114207   7.250   7.647   2.938  0.1531 -0.4911  0.2537
   59MOL   C17214208   7.195   7.548   2.833  0.1166  0.1071 -0.9491
   59MOL   O17314209   7.276   7.502   2.747  0.0906  0.8110 -0.6984
   59MOL   O17414210   7.068   7.533   2.830  0.3051 -0.1331 -0.3585
   59MOL   C17514211   7.007   7.448   2.736 -0.1706 -0.2585 -0.7229
   59MOL   H17614212   7.209   7.493   3.086 -0.6811 -0.0828  1.2033
   59MOL   H17714213   7.110   7.634   3.109 -1.4041 -2.7324 -0.9463
   59MOL   H17814214   7.356   7.631   2.921  0.4036  1.9685 -0.7353
   59MOL   H17914215   7.070   7.367   2.698  0.0414  0.4972 -1.9918
   59MOL   H18014216   6.971   7.511   2.655  2.0130  1.1483 -0.6454
   59MOL   H18114217   6.923   7.398   2.784  1.7200 -1.8280  1.0805
   59MOL   C18214218   7.224   7.795   2.925 -0.3086  0.2424  0.0791
   59MOL   C18314219   7.252   7.853   2.787  0.2414  0.5935 -0.7541
   59MOL   C18414220   7.171   0.045   2.747 -0.0363 -0.2062  0.0227
   59MOL   O18514221   7.151   0.139   2.828  0.3068 -0.2744 -0.2162
   59MOL   O18614222   7.132   0.031   2.614 -0.2843  0.9511  0.4927
   59MOL   C18714223   7.056   0.144   2.559 -0.2504  0.0010  0.4910
   59MOL   H18814224   7.117   7.814   2.930 -0.5688 -0.2143 -2.9882
   59MOL   H18914225   7.282   7.850   2.999 -0.6072 -0.3811  0.7769
   59MOL   H19014226   7.208   7.777   2.722  1.1647  0.1564 -0.8858
   59MOL   H19114227   7.064   0.226   2.631  0.7897 -0.0093  0.3929
   59MOL   H19214228   6.954   0.119   2.528  0.4040 -0.1940 -1.5928
   59MOL   H19314229   7.111   0.192   2.478 -0.1481 -0.3106  0.3772
   59MOL   C19414230   7.398   7.861   2.743  0.8491 -0.2164 -0.2392
   59MOL   C19514231   7.471   0.048   2.799 -0.6494  0.3075 -0.4221
   59MOL   C19614232   7.556   0.016   2.922  0.6950 -0.6450 -0.0437
   59MOL   O19714233   7.519   0.052   3.034 -0.1397  0.3838 -0.3213
   59MOL   O19814234   7.668   7.887   2.897 -0.4464 -0.0975  0.0334
   59MOL   C19914235   7.766   7.870   2.994 -0.7058  0.9886  0.1303
   59MOL   H20014236   7.439   7.772   2.791  0.4863 -0.3440 -0.1593
   59MOL   H20114237   7.406   7.848   2.635  1.3712  1.0361 -0.3611
   59MOL   H20214238   7.401   0.120   2.842  0.6984  0.2938  1.8819
   59MOL   H20314239   7.806   0.032   3.030 -0.9310  0.6660  1.2629
   59MOL   H20414240   7.838   7.815   2.933 -0.9579  0.9143 -0.1001
   59MOL   H20514241   7.731   7.801   3.071  1.4191 -1.6735 -1.2147
   59MOL   C20614242   7.569   0.104   2.692 -0.1287 -0.2525 -0.8100
   59MOL   C20714243   7.505   0.159   2.561  0.7536 -0.0199  0.1962
   59MOL   C20814244   7.478   0.309   2.543  0.6868  0.3679  0.6948
   59MOL   O20914245   7.554   0.392   2.596 -0.0697  0.5240 -0.0066
   59MOL   O21014246   7.363   0.337   2.461 -0.2475 -0.2740  0.0801
   59MOL   C21114247   7.359   0.464   2.402  0.5566 -0.8789 -0.0738
   59MOL   H21214248   7.625   0.186   2.736  0.5635 -1.0787 -0.1197
   59MOL   H21314249   7.649   0.033   2.671 -2.4665 -2.9116 -1.1270
   59MOL   H21414250   7.409   0.109   2.551  1.4811 -0.8162 -3.3017
   59MOL   H21514251   7.277   0.485   2.334  0.2691  0.3899  0.6587
   59MOL   H21614252   7.442   0.460   2.331  1.0477  1.3080  0.3286
   59MOL   H21714253   7.378   0.540   2.477 -0.0128 -0.7047 -0.1056
   59MOL   C21814254   7.586   0.108   2.435 -0.3132  0.4395  0.2148
   59MOL   C21914255   7.500   0.099   2.309 -0.3608 -0.2326 -0.2405
   59MOL   C22014256   7.583   0.133   2.182  0.0528  0.2583 -0.0511
   59MOL   O22114257   7.557   0.214   2.096 -1.0482  0.2864 -0.2342
   59MOL   O22214258   7.693   0.046   2.179 -0.0645 -0.0601 -0.2493
   59MOL   C22314259   7.767   0.033   2.057 -0.2178 -0.5739 -0.3203
   59MOL   H22414260   7.666   0.178   2.413  1.1354 -1.3827 -0.4780
   59MOL   H22514261   7.630   0.012   2.461 -0.3096 -0.1500 -1.8547
   59MOL   H22614262   7.416   0.169   2.303 -0.5473 -0.5033 -0.9500
   59MOL   H22714263   7.795   7.861   2.043  2.6121 -0.1747  1.7497
   59MOL   H22814264   7.864   0.083   2.064  0.0687 -0.9492 -1.4976
   59MOL   H22914265   7.713   0.078   1.974  1.2739  0.6033 -0.6749
   59MOL   C23014266   7.438   7.886   2.305 -0.0781  0.0494  0.2792
   59MOL   C23114267   7.284   7.872   2.291  0.4085 -0.0370 -0.2770
   59MOL   C23214268   7.252   7.741   2.219 -0.2378 -0.2001 -0.1919
   59MOL   O23314269   7.216   7.745   2.103  0.3550  0.3928  0.3377
   59MOL   O23414270   7.280   7.623   2.287 -0.6049 -0.0447 -0.4414
   59MOL   C23514271   7.326   7.606   2.426 -0.2113  0.0802 -0.4528
   59MOL   H23614272   7.484   7.832   2.222 -3.4655 -0.2664 -1.4800
   59MOL   H23714273   7.470   7.822   2.388 -2.7000 -0.0651  1.2266
   59MOL   H23814274   7.244   0.027   2.239 -0.8455 -1.3321 -1.5495
   59MOL   H23914275   7.435   7.601   2.432 -0.1323  0.5287 -1.5069
   59MOL   H24014276   7.288   7.513   2.469  3.0107 -1.3021 -0.4791
   59MOL   H24114277   7.286   7.688   2.485 -0.3897  1.3172 -2.2577
   59MOL   H24214278   7.242   7.879   2.391 -1.3916  1.1913 -1.0891
   60MOL     C114279   6.202   2.313   6.521  0.1342 -0.0464  1.8412
   60MOL     C214280   6.114   2.274   6.641  0.8230 -0.2449  0.9618
   60MOL     C314281   5.987   2.360   6.646  0.1305 -0.0421 -0.5259
   60MOL     O414282   5.976   2.437   6.740 -0.7256  0.2963 -0.7614
   60MOL     O514283   5.888   2.332   6.563 -0.2824 -0.3084  0.0095
   60MOL     C614284   5.765   2.402   6.591  0.0607  0.4568  0.0561
   60MOL     H714285   6.149   2.287   6.430  3.2075  1.5701 -0.4735
   60MOL     H814286   6.305   2.278   6.519 -0.7693 -2.7998  1.4907
   60MOL     H914287   6.174   2.313   6.724 -0.6364  2.8746  0.6190
   60MOL    H1014288   5.730   2.373   6.690 -2.7344  2.3927 -0.2912
   60MOL    H1114289   5.690   2.370   6.518 -0.4411  1.3425  0.1816
   60MOL    H1214290   5.779   2.510   6.591 -2.7070  0.8657 -0.2441
   60MOL    H1314291   6.207   2.422   6.526  0.9678  0.0114  0.1155
   60MOL    C1414292   6.085   2.121   6.630  0.5630  0.6309 -0.6900
   60MOL    C1514293   6.140   2.045   6.757 -0.5290 -0.1587 -0.2900
   60MOL    C1614294   6.074   2.093   6.886 -0.1688 -0.7194 -0.1228
   60MOL    O1714295   5.959   2.123   6.889 -0.2497  0.2253 -0.3933
   60MOL    O1814296   6.163   2.101   6.991 -0.2006  0.1702  0.4325
   60MOL    C1914297   6.113   2.160   7.110 -0.1068  0.5204  0.2065
   60MOL    H2014298   5.979   2.096   6.620  1.2087 -2.7712  0.1717
   60MOL    H2114299   6.135   2.076   6.544  1.5876 -0.1221  0.2855
   60MOL    H2214300   6.243   2.079   6.766 -1.2799  1.6819  1.9121
   60MOL    H2314301   6.056   2.082   7.161  3.4676 -2.6024 -0.3295
   60MOL    H2414302   6.045   2.245   7.100 -0.0737  0.6053  0.6777
   60MOL    H2514303   6.198   2.180   7.175  0.3847 -0.2851 -0.1829
   60MOL    C2614304   6.135   1.894   6.734  0.1626 -0.0297  0.0368
   60MOL    C2714305   6.177   1.811   6.855  0.9098 -0.4292  0.8643
   60MOL    C2814306   6.124   1.669   6.843  0.8463 -0.4471 -0.1171
   60MOL    O2914307   6.089   1.613   6.744  0.1176  0.2394  0.1127
   60MOL    O3014308   6.112   1.612   6.972 -0.0440  0.2264 -0.0332
   60MOL    C3114309   6.057   1.483   6.990 -0.1249 -0.4432 -0.9232
   60MOL    H3214310   6.027   1.881   6.741  0.0163  1.0257 -0.1914
   60MOL    H3314311   6.162   1.849   6.639 -0.5248 -0.5530  0.0809
   60MOL    H3414312   6.145   1.851   6.951  0.3034 -2.8163  1.6902
   60MOL    H3514313   6.080   1.440   7.088 -1.0331 -1.0711 -0.9802
   60MOL    H3614314   6.092   1.409   6.918  2.2046  0.1880 -0.4806
   60MOL    H3714315   5.951   1.501   6.971  0.2366  0.9065 -1.7073
   60MOL    C3814316   6.329   1.803   6.857 -0.7718 -0.0118  0.4672
   60MOL    C3914317   6.408   1.739   6.983 -0.0740 -0.5799  1.1860
   60MOL    C4014318   6.556   1.707   6.944  0.4339 -0.2680  0.4891
   60MOL    O4114319   6.577   1.603   6.876 -0.7912  0.1337 -0.4385
   60MOL    O4214320   6.644   1.804   6.981  0.1711  0.0622  0.5617
   60MOL    C4314321   6.778   1.769   6.977  0.2105 -0.6681  0.0994
   60MOL    H4414322   6.378   1.776   6.764 -1.1296 -0.2978  0.3644
   60MOL    H4514323   6.348   1.910   6.859 -0.7045 -0.0222  0.3307
   60MOL    H4614324   6.371   1.644   7.023 -2.8679 -0.2378 -0.4183
   60MOL    H4714325   6.829   1.857   7.015 -0.1929 -1.0948  1.6679
   60MOL    H4814326   6.814   1.744   6.877 -1.9125 -0.4843 -0.7352
   60MOL    H4914327   6.803   1.695   7.054  1.4767 -0.6981 -0.3290
   60MOL    C5014328   6.389   1.837   7.097  0.5654  0.0297  0.4238
   60MOL    C5114329   6.458   1.811   7.230 -0.2470  0.1350 -0.3139
   60MOL    C5214330   6.463   1.941   7.311  0.2016  0.2947  0.5740
   60MOL    O5314331   6.568   1.969   7.369  0.3847  0.0113 -0.0596
   60MOL    O5414332   6.339   2.006   7.321 -0.3722  0.5628  0.4849
   60MOL    C5514333   6.319   2.092   7.429  0.4022 -0.2538 -0.4869
   60MOL    H5614334   6.421   1.934   7.059 -3.3401  0.9561 -0.6482
   60MOL    H5714335   6.283   1.848   7.118  0.0251 -1.0085 -1.6087
   60MOL    H5814336   6.562   1.778   7.219  0.2262  2.5023 -3.6864
   60MOL    H5914337   6.397   2.168   7.426  1.1953 -1.1151 -2.0131
   60MOL    H6014338   6.307   2.031   7.519  0.6146 -1.9408 -1.5960
   60MOL    H6114339   6.221   2.136   7.411  0.7826  0.6642 -0.3317
   60MOL    C6214340   6.379   1.710   7.316 -0.3900 -0.1225 -0.0963
   60MOL    C6314341   6.456   1.581   7.371 -0.0550 -0.2216 -0.2053
   60MOL    C6414342   6.511   1.491   7.254 -0.0649  0.4586 -0.4119
   60MOL    O6514343   6.628   1.485   7.222  0.8376 -0.2013  0.1597
   60MOL    O6614344   6.409   1.426   7.188  0.0553 -0.2796  0.4358
   60MOL    C6714345   6.434   1.330   7.082  0.5495  0.0486 -0.6583
   60MOL    H6814346   6.341   1.754   7.408  0.9533  0.4779  0.1797
   60MOL    H6914347   6.292   1.674   7.260  0.3838 -1.9925 -0.1427
   60MOL    H7014348   6.384   1.512   7.416 -0.7559  1.5347  1.4432
   60MOL    H7114349   6.346   1.266   7.074  1.5535 -1.6089  1.2235
   60MOL    H7214350   6.531   1.281   7.093  0.0004 -0.9113 -0.0768
   60MOL    H7314351   6.447   1.389   6.991  0.1911  1.3535  0.1228
   60MOL    C7414352   6.561   1.620   7.473 -0.3409 -0.0434 -0.1935
   60MOL    C7514353   6.531   1.574   7.615 -0.5221  0.0036 -0.4572
   60MOL    C7614354   6.588   1.431   7.656 -0.4245 -0.0062  0.1336
   60MOL    O7714355   6.517   1.335   7.684  0.3330  0.0300 -0.5024
   60MOL    O7814356   6.726   1.432   7.654 -0.0754  0.3499 -0.5023
   60MOL    C7914357   6.797   1.313   7.697 -0.4056 -0.2293 -0.8108
   60MOL    H8014358   6.654   1.571   7.444 -0.8044 -0.4775 -0.9466
   60MOL    H8114359   6.579   1.727   7.466  2.7918 -0.5592 -0.7769
   60MOL    H8214360   6.423   1.561   7.615 -0.4590 -0.5559 -0.8156
   60MOL    H8314361   6.828   1.307   7.802 -1.5222 -0.1413 -0.4752
   60MOL    H8414362   6.886   1.307   7.634  0.0049  0.0509 -0.2651
   60MOL    H8514363   6.749   1.223   7.659  0.9403 -0.8291 -1.1332
   60MOL    C8614364   6.578   1.677   7.728  0.4537 -0.3314  0.4875
   60MOL    C8714365   6.499   1.809   7.729 -0.3113 -1.1001 -0.5835
   60MOL    C8814366   6.347   1.773   7.735 -1.3690  0.3819  0.1401
   60MOL    O8914367   6.279   1.788   7.635  0.2182 -0.7443 -0.2733
   60MOL    O9014368   6.307   1.713   7.851 -0.1685  0.8653 -0.0969
   60MOL    C9114369   6.171   1.668   7.863 -0.1085  0.0097  0.2701
   60MOL    H9214370   6.551   1.639   7.826  0.8386 -3.0995 -0.4454
   60MOL    H9314371   6.682   1.708   7.723 -0.2417  2.6967  2.8855
   60MOL    H9414372   6.519   1.860   7.634  1.2365 -0.9278 -0.1710
   60MOL    H9514373   6.152   1.592   7.788  3.0001  0.4449 -1.0395
   60MOL    H9614374   6.105   1.751   7.838 -2.3798 -1.6196  0.7204
   60MOL    H9714375   6.139   1.635   0.030 -0.5156 -0.3242  0.0310
   60MOL    C9814376   6.538   1.903   7.844 -0.2586  0.5068  0.4321
   60MOL    C9914377   6.538   2.053   7.804  0.5448 -0.1776 -0.8697
   60MOL   C10014378   6.394   2.108   7.802 -0.4670 -0.7183  0.3636
   60MOL   O10114379   6.364   2.206   7.731 -0.2112  0.4273 -0.4974
   60MOL   O10214380   6.319   2.064   7.904  0.1212  0.3270 -0.1194
   60MOL   C10314381   6.183   2.110   7.912 -0.2437 -0.2623 -0.1936
   60MOL   H10414382   6.470   1.885   7.927 -1.8155  0.0567 -0.9237
   60MOL   H10514383   6.638   1.874   7.878 -0.1866  0.9127  0.5692
   60MOL   H10614384   6.565   2.050   7.698 -1.4013  1.2708 -1.4311
   60MOL   H10714385   6.102   2.054   7.865 -2.6109  3.1918 -0.3971
   60MOL   H10814386   6.179   2.216   7.888 -0.1468 -0.1877  0.1263
   60MOL   H10914387   6.149   2.103   0.082 -0.4701 -1.2666 -0.3226
   60MOL   C11014388   6.630   2.153   7.877 -0.0189  0.0580  0.9290
   60MOL   C11114389   6.608   2.164   0.104  0.4163 -0.0056 -0.5112
   60MOL   C11214390   6.676   2.042   0.167 -0.4924  0.6696 -0.3255
   60MOL   O11314391   6.607   1.959   0.225 -0.1304 -0.0979 -0.2105
   60MOL   O11414392   6.805   2.039   0.141  0.0442 -0.0846  0.2761
   60MOL   C11514393   6.874   1.925   0.178  0.2841 -0.4772  0.0869
   60MOL   H11614394   6.733   2.122   7.855 -0.4076  0.2273 -1.2351
   60MOL   H11714395   6.627   2.252   7.832  0.1458  0.9267  2.7778
   60MOL   H11814396   6.504   2.150   0.135  0.6149  0.1967  0.2566
   60MOL   H11914397   6.841   1.838   0.121 -0.9412 -0.5625  0.9064
   60MOL   H12014398   6.846   1.908   0.282  0.7611  2.7758  0.7946
   60MOL   H12114399   6.981   1.934   0.164  0.8643 -3.4650  2.1005
   60MOL   C12214400   6.650   2.297   0.177 -0.2182 -0.4278  0.0448
   60MOL   C12314401   6.582   2.425   0.124 -0.6134  0.4987  0.1366
   60MOL   C12414402   6.443   2.454   0.178  0.0103 -0.6699 -0.1541
   60MOL   O12514403   6.405   2.561   0.224 -0.2554  0.4911 -0.6573
   60MOL   O12614404   6.372   2.343   0.180  0.3597 -0.8290  0.4700
   60MOL   C12714405   6.233   2.349   0.217  0.7147 -0.2589 -0.4670
   60MOL   H12814406   6.624   2.279   0.281  0.0766  0.1265  0.2115
   60MOL   H12914407   6.758   2.311   0.177 -0.3446  0.6328 -1.3578
   60MOL   H13014408   6.573   2.406   0.017  1.2123 -0.6604  0.1711
   60MOL   H13114409   6.189   2.444   0.246 -1.9223 -0.7374 -2.7013
   60MOL   H13214410   6.204   2.274   0.291 -0.2404 -0.9434 -1.5200
   60MOL   H13314411   6.177   2.332   0.124  1.1872 -0.9343 -0.6341
   60MOL   C13414412   6.674   2.547   0.138 -0.1632  0.2591  0.0097
   60MOL   C13514413   6.658   2.658   0.033 -0.0741 -1.1273  0.4726
   60MOL   C13614414   6.718   2.800   0.077  0.4136 -0.0745 -0.4391
   60MOL   O13714415   6.653   2.902   0.049 -0.5051 -0.2614 -0.1205
   60MOL   O13814416   6.833   2.782   0.153  0.6466  0.0819 -0.0856
   60MOL   C13914417   6.886   2.904   0.209  0.4410  0.3193 -0.8233
   60MOL   H14014418   6.648   2.600   0.230  0.6134 -2.9296  2.1703
   60MOL   H14114419   6.779   2.519   0.149  0.2514  1.0122 -1.9716
   60MOL   H14214420   6.551   2.678   0.035  0.0106 -0.1120 -2.9078
   60MOL   H14314421   6.795   2.958   0.234  0.9525  0.4707  0.7368
   60MOL   H14414422   6.941   2.969   0.141 -2.3011  1.8381 -1.6945
   60MOL   H14514423   6.942   2.883   0.299 -0.7359 -2.7203 -0.7261
   60MOL   C14614424   6.715   2.615   7.826  0.2819 -0.2466  0.0332
   60MOL   C14714425   6.870   2.629   7.801 -0.2484 -0.1025  0.1160
   60MOL   C14814426   6.954   2.507   7.828 -0.2227  0.8361 -0.6327
   60MOL   O14914427   7.068   2.528   7.879  0.1816  0.3719 -0.2693
   60MOL   O15014428   6.897   2.390   7.791  0.2727  0.2646 -0.4757
   60MOL   C15114429   6.977   2.274   7.793  0.0372  0.1127  0.5286
   60MOL   H15214430   6.686   2.511   7.813 -0.6713  0.1288 -0.8855
   60MOL   H15314431   6.656   2.669   7.752  0.4519  2.6183  1.8854
   60MOL   H15414432   6.907   2.717   7.855 -0.5160 -0.7498  1.3705
   60MOL   H15514433   6.998   2.243   7.896  0.2124  3.2288  1.4618
   60MOL   H15614434   7.078   2.296   7.758  0.0063 -0.7777 -0.1589
   60MOL   H15714435   6.948   2.180   7.745 -0.3633  0.2024  0.5982
   60MOL   C15814436   6.901   2.670   7.650  0.4642 -0.1052 -0.8490
   60MOL   C15914437   7.031   2.743   7.628 -0.8554 -0.3379 -0.4924
   60MOL   C16014438   7.094   2.711   7.489  0.6272  0.7195  0.5817
   60MOL   O16114439   7.185   2.630   7.473  0.3438 -0.0683 -0.4134
   60MOL   O16214440   7.023   2.771   7.389  0.1072 -0.4790 -0.1706
   60MOL   C16314441   7.062   2.774   7.252  0.5984 -0.1989 -0.3186
   60MOL   H16414442   6.891   2.579   7.590 -1.1610 -1.1391  0.9071
   60MOL   H16514443   6.816   2.732   7.620  0.6481  0.7825  0.4012
   60MOL   H16614444   7.109   2.711   7.698 -1.3375 -2.1079 -0.7201
   60MOL   H16714445   6.986   2.824   7.191  1.2622  0.7545 -0.3733
   60MOL   H16814446   7.067   2.678   7.201  0.1755  1.5736 -3.9210
   60MOL   H16914447   7.158   2.823   7.237  1.1380 -0.0136  3.3048
   60MOL   C17014448   7.015   2.898   7.651 -0.3966  0.1392  0.2560
   60MOL   C17114449   7.148   2.989   7.638  0.0261 -0.2857 -0.7962
   60MOL   C17214450   7.137   3.089   7.526  0.4301  0.3495 -0.0849
   60MOL   O17314451   7.221   3.093   7.439 -0.6061  0.4335  0.3465
   60MOL   O17414452   7.030   3.167   7.546  0.2408 -0.2165 -0.1409
   60MOL   C17514453   6.997   3.271   7.455  0.2363 -0.3760 -0.1336
   60MOL   H17614454   6.935   2.940   7.592 -0.9052 -2.4086 -0.9633
   60MOL   H17714455   6.977   2.922   7.750 -0.6134 -2.1985  0.7663
   60MOL   H17814456   7.221   2.916   7.602 -1.0250 -1.1648 -1.1666
   60MOL   H17914457   6.937   3.355   7.491 -0.5696 -0.8663 -0.3028
   60MOL   H18014458   6.941   3.231   7.370  1.4932  2.5180 -2.4248
   60MOL   H18114459   7.083   3.305   7.398  0.9956 -0.0413  1.2049
   60MOL   C18214460   7.208   3.053   7.764  0.0557 -0.0483  0.4828
   60MOL   C18314461   7.174   2.998   7.909  0.3731  0.0877  0.1171
   60MOL   C18414462   7.221   2.859   0.002 -1.4537  0.3873  0.4746
   60MOL   O18514463   7.297   2.810   7.852 -0.8748 -0.1066  0.2181
   60MOL   O18614464   7.187   2.800   0.114  0.5318 -0.2894 -0.4081
   60MOL   C18714465   7.269   2.693   0.173 -0.3016  0.0112  0.4132
   60MOL   H18814466   7.311   3.082   7.743 -0.9137  2.7733 -0.7096
   60MOL   H18914467   7.154   3.148   7.760 -1.0491 -0.7020 -0.4456
   60MOL   H19014468   7.065   2.994   7.915  0.3144  0.7691 -0.3976
   60MOL   H19114469   7.241   2.598   0.126  0.0907 -0.1918  0.5857
   60MOL   H19214470   7.256   2.687   0.281  1.7031 -0.2947  0.6553
   60MOL   H19314471   7.373   2.703   0.143 -1.0354  0.5845 -2.0811
   60MOL   C19414472   7.212   3.101   0.091 -0.0042 -0.4304 -0.0297
   60MOL   C19514473   7.348   3.082   0.161 -0.5801  0.0026 -0.2415
   60MOL   C19614474   7.464   3.067   0.067 -0.1683  0.0874 -0.0162
   60MOL   O19714475   7.472   3.131   7.893  0.1184 -0.3663 -0.5292
   60MOL   O19814476   7.529   2.953   0.094 -0.1569 -0.3593 -0.2505
   60MOL   C19914477   7.623   2.900   0.007  0.1484 -0.4842 -0.2281
   60MOL   H20014478   7.208   3.196   0.039  2.6812 -0.6792 -0.7794
   60MOL   H20114479   7.132   3.104   0.166  1.3967  0.8384  1.4586
   60MOL   H20214480   7.342   2.993   0.223  0.3252  0.5815  0.7100
   60MOL   H20314481   7.681   2.966   7.876 -1.6085 -1.6466 -3.1951
   60MOL   H20414482   7.559   2.842   7.872 -0.3894  0.6466 -0.7098
   60MOL   H20514483   7.695   2.837   0.059 -0.4772  0.0543  1.2958
   60MOL   C20614484   7.365   3.198   0.268  0.4838  0.0580  0.8359
   60MOL   C20714485   7.473   3.180   0.373  0.4669 -0.4668 -0.8260
   60MOL   C20814486   7.510   3.316   0.437 -0.3081 -0.7780 -0.0059
   60MOL   O20914487   7.492   3.338   0.557  0.5341  0.5918 -0.2315
   60MOL   O21014488   7.549   3.409   0.352 -0.3481 -0.0068  0.2105
   60MOL   C21114489   7.592   3.532   0.403 -0.0293  0.4527 -0.1306
   60MOL   H21214490   7.373   3.291   0.213  4.0421 -1.9490 -2.2716
   60MOL   H21314491   7.269   3.199   0.320  0.7279 -1.0537  1.3300
   60MOL   H21414492   7.555   3.164   0.303  1.8522  0.5682  0.5144
   60MOL   H21514493   7.498   3.579   0.432 -1.7011 -1.0825 -2.8277
   60MOL   H21614494   7.647   3.594   0.333 -0.8089  0.8598 -0.3911
   60MOL   H21714495   7.657   3.500   0.485  1.3138  2.3908 -0.4193
   60MOL   C21814496   7.454   3.062   0.470  0.3057 -0.0154  0.0244
   60MOL   C21914497   7.567   2.951   0.469  0.7802  0.1627 -0.3541
   60MOL   C22014498   7.695   3.008   0.532  0.0680 -0.0002  0.0611
   60MOL   O22114499   7.796   3.017   0.461 -0.2821  0.0852  0.1215
   60MOL   O22214500   7.675   3.028   0.659 -0.1736 -0.2067  0.2335
   60MOL   C22314501   7.789   3.056   0.738  0.1474 -0.2548 -0.1337
   60MOL   H22414502   7.447   3.090   0.575  0.9288 -0.4172  0.1824
   60MOL   H22514503   7.361   3.012   0.442  0.8852  0.1224 -2.2954
   60MOL   H22614504   7.594   2.936   0.365  3.5332 -0.8510  0.4827
   60MOL   H22714505   7.822   3.159   0.741 -2.2932  0.5410  0.3834
   60MOL   H22814506   7.871   2.989   0.712 -0.5863 -1.2033 -0.0578
   60MOL   H22914507   7.762   3.034   0.842  1.5481 -0.9891  0.0879
   60MOL   C23014508   7.510   2.820   0.527  0.3958  0.1415 -0.4370
   60MOL   C23114509   7.610   2.703   0.518 -0.6570 -0.0388  0.6786
   60MOL   C23214510   7.607   2.637   0.378 -0.4129 -0.1068 -0.7810
   60MOL   O23314511   7.588   2.693   0.277  0.3438 -0.0728 -0.1145
   60MOL   O23414512   7.634   2.504   0.382 -1.2336 -0.3152 -0.3338
   60MOL   C23514513   7.630   2.430   0.256 -0.0641 -0.3356 -0.1382
   60MOL   H23614514   7.475   2.824   0.630 -1.8371  1.1855 -1.1966
   60MOL   H23714515   7.425   2.787   0.468  0.2786 -0.6118  0.1445
   60MOL   H23814516   7.595   2.622   0.589 -1.6529 -0.7943 -0.3761
   60MOL   H23914517   7.716   2.470   0.201  1.0561 -1.5573  0.6959
   60MOL   H24014518   7.541   2.445   0.195  0.2774  0.8352 -0.3798
   60MOL   H24114519   7.640   2.322   0.262  1.1055 -0.2554 -0.5091
   60MOL   H24214520   7.712   2.733   0.544  0.1420 -1.1081 -1.1360
   61MOL     C114521   5.035   3.696   5.877 -0.0633 -0.0802  0.3132
   61MOL     C214522   5.019   3.748   6.019 -0.0542  0.0207 -0.0071
   61MOL     C314523   4.912   3.858   6.038 -0.0451  0.1855  0.1932
   61MOL     O414524   4.939   3.966   6.090  0.5489 -0.3234 -0.1672
   61MOL     O514525   4.792   3.813   6.005 -0.1725  0.1381 -0.4935
   61MOL     C614526   4.678   3.887   6.049  0.8098  0.2682 -0.0754
   61MOL     H714527   4.942   3.654   5.840 -0.6440 -0.1046  1.7849
   61MOL     H814528   5.109   3.617   5.860  2.2570  1.9793  0.4651
   61MOL     H914529   5.119   3.787   6.038  0.2604 -1.3015  1.1540
   61MOL    H1014530   4.698   3.993   6.030  0.5171  0.3197 -0.1042
   61MOL    H1114531   4.676   3.874   6.157 -1.3226  0.2680 -0.0883
   61MOL    H1214532   4.585   3.844   6.012  0.7578  1.3406 -1.2261
   61MOL    H1314533   5.067   3.777   5.811 -0.8941 -1.4337 -1.8117
   61MOL    C1414534   5.007   3.632   6.118  0.4340  0.1888 -0.5981
   61MOL    C1514535   5.037   3.665   6.272  0.0002  0.8281  0.3016
   61MOL    C1614536   4.906   3.691   6.349  0.1759 -0.4376 -0.2619
   61MOL    O1714537   4.797   3.662   6.298 -0.2411 -0.1738  0.2881
   61MOL    O1814538   4.924   3.746   6.471  0.1674  0.5692  0.0493
   61MOL    C1914539   4.817   3.730   6.562  0.3159  0.2725  0.0666
   61MOL    H2014540   4.910   3.585   6.104  0.0439  0.2753  1.5889
   61MOL    H2114541   5.079   3.556   6.087 -0.7959 -0.1845 -2.6430
   61MOL    H2214542   5.091   3.759   6.281  1.6969 -0.0273 -0.8245
   61MOL    H2314543   4.732   3.792   6.535  0.5312 -0.3736 -2.1916
   61MOL    H2414544   4.850   3.739   6.666  1.6039 -0.1632 -0.2845
   61MOL    H2514545   4.777   3.629   6.552  0.0910  0.3159  0.4956
   61MOL    C2614546   5.118   3.555   6.342 -0.2354 -0.0243  0.5522
   61MOL    C2714547   5.221   3.618   6.439  0.2045  0.0343  0.7017
   61MOL    C2814548   5.200   3.594   6.589  0.2967 -0.0720 -0.4704
   61MOL    O2914549   5.121   3.513   6.628 -0.1075  0.0436  1.1971
   61MOL    O3014550   5.270   3.674   6.664 -0.3169 -0.0977  0.7992
   61MOL    C3114551   5.236   3.696   6.804 -0.1927  0.0597  0.4988
   61MOL    H3214552   5.062   3.467   6.375  0.2298 -1.2094 -1.6829
   61MOL    H3314553   5.181   3.512   6.264 -0.6319 -0.4985  0.4901
   61MOL    H3414554   5.192   3.722   6.433  1.7148  0.3820 -1.1685
   61MOL    H3514555   5.182   3.787   6.828 -2.2152 -0.7292 -0.8889
   61MOL    H3614556   5.326   3.704   6.864 -0.4326 -0.2193  0.8981
   61MOL    H3714557   5.185   3.608   6.842 -0.1080 -1.3474 -2.4918
   61MOL    C3814558   5.373   3.596   6.396 -0.0775  0.0549 -0.3438
   61MOL    C3914559   5.408   3.661   6.263 -0.3012 -0.1505 -0.3233
   61MOL    C4014560   5.412   3.816   6.280  0.3171  0.7591  0.4680
   61MOL    O4114561   5.479   3.869   6.373 -0.0959  0.1345  0.4453
   61MOL    O4214562   5.340   3.876   6.184  0.8198  0.2607  0.6260
   61MOL    C4314563   5.304   4.014   6.191  0.1204  0.3571 -0.9425
   61MOL    H4414564   5.443   3.627   6.473  1.5130 -0.2010 -1.6795
   61MOL    H4514565   5.398   3.490   6.383  1.7210  0.4618 -0.2926
   61MOL    H4614566   5.331   3.635   6.190 -1.5553 -0.8446  1.2103
   61MOL    H4714567   5.391   4.070   6.156 -0.2682  1.4426 -0.1961
   61MOL    H4814568   5.283   4.037   6.295 -0.9996 -3.3325 -0.2797
   61MOL    H4914569   5.215   4.039   6.134 -1.3598 -1.6115  0.4720
   61MOL    C5014570   5.552   3.621   6.216  0.5710 -0.1357 -0.5119
   61MOL    C5114571   5.552   3.490   6.134  0.4714  0.5393  0.0957
   61MOL    C5214572   5.466   3.485   6.005 -1.0538  0.5960  0.3314
   61MOL    O5314573   5.446   3.590   5.941  0.1121  0.3636 -0.4788
   61MOL    O5414574   5.419   3.373   5.970 -0.6414  0.1357 -0.0510
   61MOL    C5514575   5.342   3.350   5.854  0.0521 -0.2777 -0.0197
   61MOL    H5614576   5.592   3.701   6.153 -2.5870  0.7278 -1.5183
   61MOL    H5714577   5.612   3.610   6.306 -0.2703  0.5573  0.1489
   61MOL    H5814578   5.495   3.431   6.205 -1.1910  1.0143 -0.8021
   61MOL    H5914579   5.402   3.379   5.767  1.3166  0.6235  1.1248
   61MOL    H6014580   5.257   3.417   5.846  0.1559 -0.2586 -1.0324
   61MOL    H6114581   5.311   3.245   5.852  0.6604 -0.4654  0.1395
   61MOL    C6214582   5.692   3.422   6.130 -0.0587  0.7649 -0.8393
   61MOL    C6314583   5.779   3.457   6.003  0.1814  0.3352  0.0768
   61MOL    C6414584   5.829   3.599   6.010 -0.1313  0.3973 -0.0216
   61MOL    O6514585   5.815   3.681   5.917  0.4490 -0.0406  0.0001
   61MOL    O6614586   5.879   3.635   6.128 -0.7825 -0.3681 -0.3438
   61MOL    C6714587   5.925   3.765   6.154 -0.5849  0.5629  0.0362
   61MOL    H6814588   5.750   3.433   6.222  0.5932 -3.1924 -0.6937
   61MOL    H6914589   5.657   3.319   6.130 -1.6092  1.2227  2.1376
   61MOL    H7014590   5.710   3.438   5.921 -1.3552  0.1051  1.4004
   61MOL    H7114591   6.002   3.756   6.231 -0.8926 -0.0064  0.2719
   61MOL    H7214592   5.849   3.829   6.199 -2.1687 -1.6287  0.5283
   61MOL    H7314593   5.966   3.814   6.065  0.6956  0.2820  0.4584
   61MOL    C7414594   5.898   3.359   5.993 -0.0514 -0.9961  0.2409
   61MOL    C7514595   5.863   3.214   5.961 -0.0419 -0.3626  0.2109
   61MOL    C7614596   5.780   3.213   5.829 -0.1359  0.6182  0.1305
   61MOL    O7714597   5.674   3.152   5.819 -0.1453  0.2003 -0.3162
   61MOL    O7814598   5.837   3.265   5.715  0.1092 -0.3401 -0.2475
   61MOL    C7914599   5.792   3.236   5.582  0.1261  0.2367 -0.0945
   61MOL    H8014600   5.974   3.399   5.925  1.7266  1.2197  3.4226
   61MOL    H8114601   5.956   3.363   6.085  0.6116 -0.4131 -0.1986
   61MOL    H8214602   5.792   3.167   6.030  0.1131 -0.4765  0.2942
   61MOL    H8314603   5.804   3.130   5.558 -2.3539 -0.6346  2.3285
   61MOL    H8414604   5.844   3.310   5.521 -2.0992  1.4682 -0.5659
   61MOL    H8514605   5.691   3.271   5.564 -0.7157 -1.3167  1.5031
   61MOL    C8614606   5.998   3.138   5.955 -0.9873 -0.0661 -0.7050
   61MOL    C8714607   5.981   2.994   5.990 -0.7037  0.6637  0.2594
   61MOL    C8814608   5.977   2.904   5.867  0.8434 -0.1816 -0.1095
   61MOL    O8914609   6.076   2.853   5.823 -0.1937  0.5757 -0.5028
   61MOL    O9014610   5.858   2.878   5.816  0.3143  0.0174 -0.3698
   61MOL    C9114611   5.848   2.784   5.712  0.0819  0.1147 -0.2270
   61MOL    H9214612   6.030   3.144   5.851 -1.2752 -1.7635 -0.8937
   61MOL    H9314613   6.084   3.178   6.010 -1.9024 -0.7537  1.2655
   61MOL    H9414614   5.882   2.972   6.032  1.4362 -2.2802  4.0701
   61MOL    H9514615   5.744   2.781   5.679  0.4828  0.4157 -1.5744
   61MOL    H9614616   5.863   2.680   5.738  2.9943  0.8875  1.3591
   61MOL    H9714617   5.915   2.806   5.629 -1.1717 -1.7601 -1.7769
   61MOL    C9814618   6.091   2.957   6.092  0.3691 -0.1688  0.1771
   61MOL    C9914619   6.085   3.030   6.236  0.0585  0.7671 -0.5416
   61MOL   C10014620   5.944   3.027   6.290 -0.0063  0.1746  0.2787
   61MOL   O10114621   5.879   3.130   6.289 -0.5826 -0.2073  0.1411
   61MOL   O10214622   5.909   2.910   6.338 -0.0823  0.3820  0.1064
   61MOL   C10314623   5.793   2.905   6.411 -0.5503 -0.1180 -0.8231
   61MOL   H10414624   6.087   2.849   6.109  0.2839 -0.0210  1.1361
   61MOL   H10514625   6.190   2.981   6.052 -0.0318  0.6154 -0.3509
   61MOL   H10614626   6.106   3.136   6.221  0.0127  1.0469  1.2643
   61MOL   H10714627   5.773   3.001   6.458  0.6057  0.5885 -1.7549
   61MOL   H10814628   5.796   2.829   6.489  1.2552  0.2913 -0.4612
   61MOL   H10914629   5.712   2.886   6.341  0.2125  0.8918 -1.9888
   61MOL   C11014630   6.194   2.978   6.339 -0.0269  0.2424  0.0283
   61MOL   C11114631   6.196   3.032   6.487 -0.6187 -0.5955 -0.0302
   61MOL   C11214632   6.235   2.920   6.581 -0.0901 -0.4858  0.5552
   61MOL   O11314633   6.337   2.929   6.650  0.7229  0.5567  0.4959
   61MOL   O11414634   6.141   2.826   6.594  0.1302  0.0137  0.5995
   61MOL   C11514635   6.153   2.726   6.697 -0.4429 -0.3900 -0.5033
   61MOL   H11614636   6.166   2.872   6.344  1.1695 -0.0158  1.7671
   61MOL   H11714637   6.294   2.977   6.293  0.1300 -0.6187  0.3827
   61MOL   H11814638   6.092   3.044   6.517 -0.8479  0.1632 -1.1011
   61MOL   H11914639   6.103   2.633   6.668  1.2730 -1.7410  0.8205
   61MOL   H12014640   6.123   2.757   6.797  1.5287  1.7811 -0.5398
   61MOL   H12114641   6.253   2.691   6.720  0.5028  3.5136  1.8650
   61MOL   C12214642   6.276   3.165   6.507 -0.2173 -0.4187  0.0707
   61MOL   C12314643   6.208   3.293   6.438 -0.0367 -0.4139  0.1575
   61MOL   C12414644   6.070   3.328   6.508 -0.4851 -0.9173  0.0829
   61MOL   O12514645   6.035   3.285   6.616  0.5633 -0.1159 -0.4255
   61MOL   O12614646   6.009   3.420   6.448 -0.3953 -0.1038 -0.2353
   61MOL   C12714647   5.888   3.476   6.500  0.7591 -0.5651  0.6190
   61MOL   H12814648   6.300   3.185   6.611  1.9304  1.1724 -0.7080
   61MOL   H12914649   6.371   3.133   6.464  0.0364 -0.0070  0.3250
   61MOL   H13014650   6.201   3.278   6.330  2.1911  3.0534 -0.5362
   61MOL   H13114651   5.912   3.573   6.541 -1.7149  0.7198 -0.8604
   61MOL   H13214652   5.828   3.419   6.571 -1.1564 -0.5181 -0.9036
   61MOL   H13314653   5.819   3.499   6.419  0.8314  0.9431  0.9757
   61MOL   C13414654   6.302   3.410   6.465 -0.4428  0.1904  0.2857
   61MOL   C13514655   6.443   3.404   6.400 -0.3115  0.1598 -0.4019
   61MOL   C13614656   6.442   3.388   6.243 -0.4439 -0.6138 -0.4042
   61MOL   O13714657   6.473   3.281   6.186  0.3212  0.3084 -0.8738
   61MOL   O13814658   6.377   3.490   6.182 -0.1976 -0.6759 -0.1397
   61MOL   C13914659   6.325   3.477   6.053  0.5508  0.6001  0.0899
   61MOL   H14014660   6.254   3.502   6.432  1.3289  0.7569 -0.7662
   61MOL   H14114661   6.322   3.423   6.572  0.6826  4.9550 -0.3766
   61MOL   H14214662   6.496   3.317   6.439  2.0236  0.9154 -1.8086
   61MOL   H14314663   6.306   3.583   6.039  1.7857  0.9522  0.9730
   61MOL   H14414664   6.225   3.434   6.057  0.6022  0.5581  1.3478
   61MOL   H14514665   6.397   3.430   5.986  0.7490 -1.3521  1.6018
   61MOL   C14614666   6.522   3.526   6.452  0.3198  0.3985  0.1296
   61MOL   C14714667   6.664   3.535   6.387 -0.1251  0.2496  0.6954
   61MOL   C14814668   6.722   3.673   6.405 -0.2566  0.6835  0.4652
   61MOL   O14914669   6.737   3.717   6.522  0.2436 -0.1116  0.9569
   61MOL   O15014670   6.761   3.733   6.298  0.0033 -0.2132  0.2694
   61MOL   C15114671   6.818   3.860   6.295  0.4695 -0.6182  0.4532
   61MOL   H15214672   6.460   3.615   6.438 -2.0966 -1.2782 -0.1623
   61MOL   H15314673   6.527   3.517   6.561 -0.8634  0.9808  0.2419
   61MOL   H15414674   6.664   3.518   6.280 -1.3389 -1.0230  0.8833
   61MOL   H15514675   6.741   3.935   6.312 -2.4005 -2.9226 -1.8489
   61MOL   H15614676   6.865   3.876   6.198 -0.8996  1.4559  0.0914
   61MOL   H15714677   6.890   3.862   6.377 -2.0240  0.0236  2.7023
   61MOL   C15814678   6.746   3.424   6.449  0.8995  0.5320  0.1065
   61MOL   C15914679   6.858   3.362   6.368 -0.6801  0.4080 -0.0609
   61MOL   C16014680   6.951   3.463   6.300  0.4743 -0.0935 -0.1296
   61MOL   O16114681   6.926   3.488   6.184  0.8014  0.2202  0.1118
   61MOL   O16214682   7.042   3.522   6.374 -0.4767 -0.7154 -0.3945
   61MOL   C16314683   7.117   3.628   6.324  0.5042 -0.5648  0.4270
   61MOL   H16414684   6.780   3.451   6.549 -0.2523  0.7579  0.4464
   61MOL   H16514685   6.674   3.343   6.464  1.3528  0.2073  0.5643
   61MOL   H16614686   6.828   3.306   6.279  0.4136 -1.3687  0.6588
   61MOL   H16714687   7.224   3.607   6.314 -0.0084 -2.1758 -2.0611
   61MOL   H16814688   7.125   3.714   6.390 -3.2467  0.5381 -0.4854
   61MOL   H16914689   7.074   3.664   6.231  3.9916  1.0171 -0.6791
   61MOL   C17014690   6.941   3.264   6.449 -0.6402  0.2361 -0.6630
   61MOL   C17114691   6.854   3.145   6.507 -0.6539 -0.1498 -0.5455
   61MOL   C17214692   6.775   3.074   6.394  0.3453 -0.0051 -0.3738
   61MOL   O17314693   6.804   3.078   6.273  0.5917  0.1953 -0.5417
   61MOL   O17414694   6.665   3.011   6.449  0.3954  0.0121 -0.1921
   61MOL   C17514695   6.589   2.926   6.363 -0.3086  0.6153 -0.0274
   61MOL   H17614696   7.025   3.226   6.391  1.4224  0.1722  2.2569
   61MOL   H17714697   6.980   3.309   6.540 -2.0800  0.6614 -0.2361
   61MOL   H17814698   6.774   3.184   6.570 -0.1063  0.8750 -0.4725
   61MOL   H17914699   6.637   2.889   6.272 -0.9554 -2.3569  0.7985
   61MOL   H18014700   6.502   2.979   6.323  0.0919 -0.0963 -1.8847
   61MOL   H18114701   6.558   2.835   6.414  3.0547 -0.1281  0.7696
   61MOL   C18214702   6.943   3.049   6.591  0.2938 -0.6831 -0.8980
   61MOL   C18314703   6.980   3.097   6.734 -0.5839 -0.6076  0.3990
   61MOL   C18414704   6.853   3.128   6.819 -0.0689 -0.1004  0.3480
   61MOL   O18514705   6.827   3.238   6.867  0.2872  0.4118 -0.3794
   61MOL   O18614706   6.778   3.023   6.845 -0.0411 -0.1365  0.2717
   61MOL   C18714707   6.657   3.039   6.919  0.5113  0.3654  0.2910
   61MOL   H18814708   6.904   2.949   6.609 -1.0194  0.2524  1.7837
   61MOL   H18914709   7.037   3.027   6.542  0.6441 -2.4636  0.5071
   61MOL   H19014710   7.036   3.191   6.738 -1.1063 -0.3128  0.8448
   61MOL   H19114711   6.586   3.104   6.867  0.9697 -1.6245 -2.9529
   61MOL   H19214712   6.679   3.098   7.008 -0.9951  2.5670 -0.7500
   61MOL   H19314713   6.611   2.943   6.939 -1.2297  0.4750 -2.8063
   61MOL   C19414714   7.074   2.993   6.803 -0.2360 -0.2578 -0.2533
   61MOL   C19514715   7.171   3.045   6.916 -0.6631 -0.1255  0.2432
   61MOL   C19614716   7.262   2.932   6.969  0.4464  0.3445 -0.4342
   61MOL   O19714717   7.290   2.831   6.903  0.1009  0.2448  0.0156
   61MOL   O19814718   7.311   2.961   7.087 -0.3119  0.2306  0.3067
   61MOL   C19914719   7.397   2.869   7.154 -0.0690 -0.0085 -0.6181
   61MOL   H20014720   6.999   2.930   6.853  0.0924 -0.7289 -0.3593
   61MOL   H20114721   7.132   2.931   6.735  1.7074  0.6292  0.5562
   61MOL   H20214722   7.118   3.087   7.001  1.8715  1.8915  0.8834
   61MOL   H20314723   7.380   2.761   7.154 -0.8345  0.0949  1.0391
   61MOL   H20414724   7.390   2.896   7.259 -0.4310 -1.3286 -0.2857
   61MOL   H20514725   7.498   2.891   7.120 -0.2754 -0.0816 -1.2901
   61MOL   C20614726   7.258   3.159   6.871 -0.1944  0.3855  0.9369
   61MOL   C20714727   7.232   3.296   6.944  0.2465  0.8593 -0.2795
   61MOL   C20814728   7.282   3.293   7.088  0.3868 -0.2011  0.0439
   61MOL   O20914729   7.196   3.284   7.175 -0.2908 -0.3681  0.4437
   61MOL   O21014730   7.410   3.291   7.093  0.3520  0.3572 -0.0557
   61MOL   C21114731   7.469   3.235   7.209  0.5162  0.4399 -0.4854
   61MOL   H21214732   7.363   3.132   6.880  0.0713  0.9990 -0.1719
   61MOL   H21314733   7.246   3.160   6.763 -2.2294  1.5635  1.1483
   61MOL   H21414734   7.126   3.317   6.960  0.4181  1.8114 -0.4064
   61MOL   H21514735   7.577   3.218   7.205  0.8147  1.4067  2.2890
   61MOL   H21614736   7.413   3.145   7.236  0.0337  1.0696  0.6448
   61MOL   H21714737   7.462   3.297   7.298  1.0480  0.8070 -0.6981
   61MOL   C21814738   7.297   3.411   6.868 -0.0145  0.3335 -0.5407
   61MOL   C21914739   7.203   3.465   6.758 -0.0106 -0.0532  0.0341
   61MOL   C22014740   7.076   3.538   6.809 -0.1426  0.0319  0.3862
   61MOL   O22114741   7.078   3.632   6.889 -0.5055  0.3545  0.1667
   61MOL   O22214742   6.957   3.480   6.758 -0.3342 -0.4013 -0.7825
   61MOL   C22314743   6.835   3.543   6.794 -0.0868  0.0005 -0.0271
   61MOL   H22414744   7.317   3.491   6.940 -2.2410  0.2335  0.2380
   61MOL   H22514745   7.391   3.375   6.827 -0.6680 -2.6287  0.4675
   61MOL   H22614746   7.177   3.376   6.701 -1.3219 -0.1048  0.6925
   61MOL   H22714747   6.759   3.473   6.759  0.9978 -0.4981 -1.3754
   61MOL   H22814748   6.814   3.640   6.748 -0.7577 -0.6181 -1.0356
   61MOL   H22914749   6.822   3.543   6.903 -1.6956 -0.1053 -0.2013
   61MOL   C23014750   7.267   3.566   6.659  0.2744 -0.3723  0.1584
   61MOL   C23114751   7.336   3.687   6.723  0.2661  0.1497 -0.4789
   61MOL   C23214752   7.421   3.762   6.621 -0.6018  0.9270 -0.2428
   61MOL   O23314753   7.530   3.812   6.653  0.3250  0.2047  0.3120
   61MOL   O23414754   7.358   3.773   6.504 -0.0427  0.1868 -0.0101
   61MOL   C23514755   7.426   3.838   6.397 -0.5616  0.4592 -0.4785
   61MOL   H23614756   7.335   3.514   6.593  2.3976  0.9098  1.2876
   61MOL   H23714757   7.185   3.594   6.592  0.8423  1.3313  0.1494
   61MOL   H23814758   7.409   3.663   6.801 -0.3610  0.0432  0.0794
   61MOL   H23914759   7.532   3.813   6.389 -0.2715  1.1021  1.1167
   61MOL   H24014760   7.427   3.944   6.420  1.5223  0.7281 -1.7145
   61MOL   H24114761   7.382   3.812   6.301 -1.6363  2.3454 -0.5189
   61MOL   H24214762   7.276   3.767   6.766 -1.2189 -0.1519 -1.9302
   62MOL     C114763   5.013   7.232   4.834  0.5502 -0.3870  0.4429
   62MOL     C214764   5.022   7.351   4.929  0.4873  0.0347  0.0474
   62MOL     C314765   5.132   7.462   4.891 -0.0540  0.2805  0.0165
   62MOL     O414766   5.215   7.497   4.973 -0.2472 -0.5955 -0.3382
   62MOL     O514767   5.122   7.510   4.770  0.3826 -0.4099 -0.1848
   62MOL     C614768   5.246   7.570   4.716  0.3662 -0.1003 -0.3068
   62MOL     H714769   5.115   7.211   4.801  0.2335  0.0048 -0.8232
   62MOL     H814770   4.953   7.260   4.747  2.2046 -0.0845 -0.6323
   62MOL     H914771   5.064   7.308   5.020  0.1765  1.4292  0.8581
   62MOL    H1014772   5.309   7.611   4.795 -0.8002 -1.2183  1.2419
   62MOL    H1114773   5.229   7.644   4.638 -2.4355 -1.4263 -1.0240
   62MOL    H1214774   5.301   7.483   4.680  2.4823 -0.1048  2.6918
   62MOL    H1314775   4.967   7.144   4.878  1.7457 -1.0471  0.4064
   62MOL    C1414776   4.887   7.397   4.969 -0.2200 -0.1388 -0.1966
   62MOL    C1514777   4.804   7.490   4.880 -0.4341 -0.0780 -0.0393
   62MOL    C1614778   4.751   7.414   4.763 -0.3310 -0.9600  0.1649
   62MOL    O1714779   4.706   7.300   4.772  0.2346  0.4509 -0.1323
   62MOL    O1814780   4.737   7.495   4.653  0.2733  0.4306  0.0786
   62MOL    C1914781   4.675   7.453   4.538  0.5668 -0.4967 -0.8213
   62MOL    H2014782   4.823   7.316   5.005 -0.8979  0.4065 -0.1675
   62MOL    H2114783   4.913   7.450   5.061  0.8360 -3.3586  1.4720
   62MOL    H2214784   4.881   7.563   4.855 -0.0704  0.4939  2.6322
   62MOL    H2314785   4.740   7.432   4.453  1.0253 -0.0179 -0.5963
   62MOL    H2414786   4.605   7.532   4.513  0.4300 -0.8243 -1.4829
   62MOL    H2514787   4.620   7.361   4.554  0.7835 -0.2953  1.1267
   62MOL    C2614788   4.686   7.556   4.957  0.6040  0.0128 -0.2787
   62MOL    C2714789   4.573   7.637   4.882 -0.3887 -0.2567  0.8322
   62MOL    C2814790   4.453   7.657   4.974  0.0041  0.2309 -0.5440
   62MOL    O2914791   4.474   7.693   5.088  0.5317 -0.1010 -0.8529
   62MOL    O3014792   4.331   7.634   4.920 -0.1453  0.0344  0.2580
   62MOL    C3114793   4.212   7.643   4.994  0.0375  0.0665 -0.3298
   62MOL    H3214794   4.639   7.474   5.011  4.3939 -0.5372  2.4062
   62MOL    H3314795   4.733   7.627   5.025  2.2615 -1.5979  0.3022
   62MOL    H3414796   4.540   7.574   4.799  1.1813  0.2643 -0.2062
   62MOL    H3514797   4.170   7.742   4.976  1.6414  0.4401 -2.2008
   62MOL    H3614798   4.232   7.621   5.098  0.5904 -0.6097 -0.5769
   62MOL    H3714799   4.139   7.568   4.963  1.7860 -2.0047  0.4901
   62MOL    C3814800   4.644   7.767   4.824 -0.8913 -0.1159  0.1383
   62MOL    C3914801   4.559   7.861   4.739  0.7915  0.2740  0.7351
   62MOL    C4014802   4.622   0.074   4.742  0.3186  0.5242  0.3182
   62MOL    O4114803   4.721   0.104   4.666 -0.3450  0.0107 -0.0428
   62MOL    O4214804   4.577   0.149   4.849  0.1614 -0.0422  0.0968
   62MOL    C4314805   4.643   0.267   4.875  0.4744 -0.1529  0.5611
   62MOL    H4414806   4.680   7.815   4.915  0.4476 -2.1244  0.6994
   62MOL    H4514807   4.729   7.736   4.765 -1.5394 -1.0987 -0.2906
   62MOL    H4614808   4.460   7.853   4.784  0.8868  0.3438  0.9576
   62MOL    H4714809   4.730   0.254   4.940  0.7449  1.4600  0.5506
   62MOL    H4814810   4.569   0.332   4.922 -0.1331  0.3401 -1.0305
   62MOL    H4914811   4.691   0.314   4.789  1.9188 -0.4496  1.1793
   62MOL    C5014812   4.549   7.810   4.592 -0.7148  0.0320  0.4342
   62MOL    C5114813   4.460   7.895   4.495 -0.0738  0.7448  0.2284
   62MOL    C5214814   4.473   7.840   4.345  0.3006  0.4251 -0.3954
   62MOL    O5314815   4.493   7.913   4.250 -0.0712  0.2301  0.2343
   62MOL    O5414816   4.452   7.706   4.333 -0.3126  0.0370 -0.1753
   62MOL    C5514817   4.489   7.640   4.207  0.1237  0.0826 -0.2959
   62MOL    H5614818   4.644   7.814   4.539  0.0083  1.1460  1.7610
   62MOL    H5714819   4.515   7.707   4.594 -1.5682  0.3245  2.6095
   62MOL    H5814820   4.504   0.062   4.501  0.8595  0.4298 -1.1041
   62MOL    H5914821   4.502   7.533   4.225  1.9107  0.2061 -0.7019
   62MOL    H6014822   4.585   7.679   4.173 -0.7236  3.2100  0.7972
   62MOL    H6114823   4.424   7.662   4.122 -0.1236  0.5392  0.0151
   62MOL    C6214824   4.321   7.913   4.544  0.0011 -0.3369 -0.2955
   62MOL    C6314825   4.232   0.078   4.459 -0.3826  0.7481  0.6050
   62MOL    C6414826   4.137   0.019   4.348 -0.0214  0.5512 -0.0151
   62MOL    O6514827   4.021   0.010   4.373 -0.6622 -0.1987 -0.3392
   62MOL    O6614828   4.191   7.912   4.230  0.1473  0.3267  0.1107
   62MOL    C6714829   4.098   7.877   4.128 -0.4165 -0.0740  0.4938
   62MOL    H6814830   4.276   7.818   4.515 -0.8649  0.6996 -2.4389
   62MOL    H6914831   4.312   7.923   4.652 -1.5198  1.6096 -0.5838
   62MOL    H7014832   4.303   0.146   4.412  0.9405 -0.5233  0.7396
   62MOL    H7114833   4.027   0.026   4.118  1.6321  1.7862  0.6677
   62MOL    H7214834   4.034   7.794   4.158 -1.4808  0.4010 -0.4346
   62MOL    H7314835   4.139   7.852   4.030  1.5904  0.5568  1.1449
   62MOL    C7414836   4.147   0.172   4.546  0.2654  0.3295 -0.0546
   62MOL    C7514837   4.222   0.271   4.632  0.0252  0.4794 -0.3015
   62MOL    C7614838   4.298   0.375   4.551 -0.1998 -0.1522  0.0234
   62MOL    O7714839   4.247   0.430   4.448  0.4255  0.2587  0.7432
   62MOL    O7814840   4.411   0.400   4.613  0.0684 -0.9739 -0.8300
   62MOL    C7914841   4.497   0.502   4.578  0.2301 -0.1227  0.1379
   62MOL    H8014842   4.071   0.223   4.487 -0.7871 -2.1277 -0.8850
   62MOL    H8114843   4.076   0.113   4.604 -0.4399  0.4528 -0.7845
   62MOL    H8214844   4.288   0.209   4.692 -1.4239 -1.0477 -0.2449
   62MOL    H8314845   4.508   0.503   4.470  1.1506  0.9708  0.2269
   62MOL    H8414846   4.594   0.490   4.627 -0.5712 -3.0246  1.0894
   62MOL    H8514847   4.449   0.596   4.604 -1.4684 -0.6669 -0.9897
   62MOL    C8614848   4.123   0.343   4.736 -0.2016 -0.7783 -0.1923
   62MOL    C8714849   4.187   0.405   4.865 -0.1751  0.2690  0.4756
   62MOL    C8814850   4.240   0.554   4.840  0.0194 -0.8805  0.1302
   62MOL    O8914851   4.362   0.577   4.858 -0.1176 -0.1508  0.6922
   62MOL    O9014852   4.157   0.642   4.787 -0.3552  0.1109  0.1055
   62MOL    C9114853   4.207   0.771   4.756 -0.6570  0.1144  0.1857
   62MOL    H9214854   4.067   0.416   4.679 -0.0060 -2.6681 -2.8856
   62MOL    H9314855   4.056   0.265   4.773  0.7136 -1.3981  0.1999
   62MOL    H9414856   4.271   0.343   4.897 -0.4857 -0.2666  0.2594
   62MOL    H9514857   4.298   0.761   4.697 -0.6495  2.1852 -0.1884
   62MOL    H9614858   4.240   0.817   4.850  2.7055  0.3327 -1.0296
   62MOL    H9714859   4.141   0.842   4.708 -0.0117  2.1511  2.1987
   62MOL    C9814860   4.090   0.400   4.988  0.4570 -0.0244  0.4563
   62MOL    C9914861   4.060   0.262   5.059 -0.0580  0.2356  0.4312
   62MOL   C10014862   4.184   0.208   5.141 -0.4774  0.2526  0.1670
   62MOL   O10114863   4.224   0.257   5.252  0.1030 -0.2636 -0.2274
   62MOL   O10214864   4.246   0.111   5.071 -0.2238  0.4823 -0.2254
   62MOL   C10314865   4.370   0.061   5.120  0.2003  0.1907 -0.6838
   62MOL   H10414866   4.118   0.473   5.064  0.6213  2.6368 -2.0684
   62MOL   H10514867   3.988   0.428   4.960  1.4424  3.4529  0.1092
   62MOL   H10614868   4.028   0.185   4.989 -0.9608 -0.2032  1.3201
   62MOL   H10714869   4.441   0.032   5.042  2.4327 -0.5247  1.5734
   62MOL   H10814870   4.361   7.915   5.194  0.2565  0.9025  0.0813
   62MOL   H10914871   4.420   0.139   5.176 -1.1297  0.3110  0.3551
   62MOL   C11014872   3.938   0.277   5.155  0.6585 -0.4573  0.0683
   62MOL   C11114873   3.814   0.185   5.112  0.4950  0.3770  0.2769
   62MOL   C11214874   3.849   0.037   5.113 -0.6317 -0.1413  0.2506
   62MOL   O11314875   3.965   7.921   5.139 -0.1615  0.3532 -0.1584
   62MOL   O11414876   3.741   7.895   5.100 -0.1460  0.2866  0.0009
   62MOL   C11514877   3.765   7.756   5.092 -0.8647  0.5217 -0.3480
   62MOL   H11614878   3.955   0.237   5.255 -2.0937  0.3195  0.8710
   62MOL   H11714879   3.911   0.381   5.169  1.8812 -0.1183 -0.0674
   62MOL   H11814880   3.785   0.210   5.009 -0.4737 -1.2043  0.1475
   62MOL   H11914881   3.769   7.702   5.186  1.6068 -0.3107 -0.8853
   62MOL   H12014882   3.853   7.729   5.034 -0.9383  0.8411 -0.6070
   62MOL   H12114883   3.687   7.696   5.044  0.2998 -0.1272 -1.4675
   62MOL   C12214884   3.691   0.210   5.212  0.0657  0.0929  0.0011
   62MOL   C12314885   3.548   0.212   5.146 -0.3850  0.3399 -0.3717
   62MOL   C12414886   3.437   0.177   5.247  0.5545  0.1059  0.4060
   62MOL   O12514887   3.389   0.064   5.246 -0.2216  0.2332  0.0946
   62MOL   O12614888   3.409   0.277   5.329 -0.2517  0.7541  0.6068
   62MOL   C12714889   3.326   0.244   5.446 -0.6434 -0.4638 -0.1677
   62MOL   H12814890   3.700   0.126   5.281  1.9115 -0.1809 -0.5490
   62MOL   H12914891   3.708   0.298   5.275 -1.8084  0.6456 -0.2182
   62MOL   H13014892   3.554   0.131   5.073  0.4841  0.4082 -0.3727
   62MOL   H13114893   3.247   0.178   5.412  0.1225 -0.7306 -1.4467
   62MOL   H13214894   3.280   0.330   5.494 -1.4178 -0.9635 -0.0133
   62MOL   H13314895   3.383   0.189   5.522 -0.0447 -1.6714 -1.4477
   62MOL   C13414896   3.518   0.345   5.069 -0.6827  0.3849  0.0213
   62MOL   C13514897   3.451   0.346   4.928  0.0031 -0.2901  0.3382
   62MOL   C13614898   3.309   0.298   4.931 -0.1946  0.0298  0.2356
   62MOL   O13714899   3.228   0.343   5.008  0.4363 -0.4469  0.1620
   62MOL   O13814900   3.281   0.207   4.839  0.1507  0.2390 -0.4280
   62MOL   C13914901   3.147   0.165   4.821  0.4900  0.3524 -0.3770
   62MOL   H14014902   3.457   0.413   5.128  0.7339  2.9164 -1.3676
   62MOL   H14114903   3.613   0.397   5.063 -0.6058  0.2418 -0.0114
   62MOL   H14214904   3.501   0.268   4.870  0.6394 -0.2338  0.8097
   62MOL   H14314905   3.080   0.251   4.811 -0.9594 -0.7755 -0.6001
   62MOL   H14414906   3.109   0.104   4.903  0.5590  1.3464  0.3998
   62MOL   H14514907   3.133   0.108   4.729 -0.7893 -1.1627  0.7364
   62MOL   C14614908   3.490   0.471   4.841  0.5467 -0.6498  0.2538
   62MOL   C14714909   3.438   0.607   4.891  0.5355 -0.3764  0.0800
   62MOL   C14814910   3.537   0.661   4.994  0.0485  0.2984 -0.7367
   62MOL   O14914911   3.643   0.711   4.961  0.4960 -0.1538 -0.5719
   62MOL   O15014912   3.490   0.661   5.119 -1.3731 -0.3469  0.1857
   62MOL   C15114913   3.571   0.723   5.218 -0.5325 -0.2032 -0.0658
   62MOL   H15214914   3.597   0.472   4.820  0.5644  1.6455  0.4266
   62MOL   H15314915   3.442   0.457   4.744  0.9992  0.0880 -0.0827
   62MOL   H15414916   3.338   0.608   4.935  0.4630  2.7950 -0.0207
   62MOL   H15514917   3.557   0.831   5.229 -0.8003 -0.4722  2.3684
   62MOL   H15614918   3.678   0.716   5.197 -0.8644 -1.6800 -1.3748
   62MOL   H15714919   3.548   0.674   5.312  4.1009 -0.4422  1.0990
   62MOL   C15814920   3.431   0.703   4.769 -0.1624 -0.4797 -0.3203
   62MOL   C15914921   3.393   0.855   4.798  0.3590  0.0758  0.0511
   62MOL   C16014922   3.410   0.938   4.669 -0.5151 -1.0038 -0.2827
   62MOL   O16114923   3.417   0.890   4.553 -0.2382  0.0598  0.2203
   62MOL   O16214924   3.415   1.077   4.695  0.1109  0.1295 -0.0007
   62MOL   C16314925   3.443   1.155   4.586 -0.0647 -0.0651  0.9461
   62MOL   H16414926   3.517   0.704   4.703  0.1489  0.6163  0.0925
   62MOL   H16514927   3.350   0.669   4.704  1.7166 -3.4247 -1.2010
   62MOL   H16614928   3.473   0.892   4.862 -0.6566  0.2617  1.2272
   62MOL   H16714929   3.357   1.176   4.523 -0.5784 -0.2041  1.5994
   62MOL   H16814930   3.521   1.117   4.520 -0.6485 -1.2576  0.9369
   62MOL   H16914931   3.481   1.253   4.618 -1.6211  0.5148  1.0419
   62MOL   C17014932   3.252   0.866   4.857 -0.5144 -0.0962  0.4308
   62MOL   C17114933   3.244   0.938   4.993 -0.2930 -0.0884  0.3437
   62MOL   C17214934   3.259   1.091   4.982  0.3133  0.6163 -0.5511
   62MOL   O17314935   3.180   1.159   4.915 -0.5166  0.1782 -0.3043
   62MOL   O17414936   3.370   1.138   5.049  0.4658  0.2786  0.1113
   62MOL   C17514937   3.421   1.262   5.014 -0.1214  0.3186 -0.1806
   62MOL   H17614938   3.204   0.933   4.785 -3.1896 -1.5756  0.7613
   62MOL   H17714939   3.193   0.774   4.851 -1.1928  0.2457  1.7104
   62MOL   H17814940   3.314   0.890   5.061  0.1113 -3.0138 -1.9822
   62MOL   H17914941   3.405   1.288   4.909  1.4582 -2.1314 -1.0549
   62MOL   H18014942   3.528   1.265   5.031  0.7879 -3.1503 -4.2896
   62MOL   H18114943   3.372   1.339   5.074 -0.3752 -0.5386  0.7259
   62MOL   C18214944   3.104   0.896   5.063 -0.1341  0.4970  0.2162
   62MOL   C18314945   3.098   0.921   5.212  0.6431  0.1147  0.4053
   62MOL   C18414946   3.186   0.810   5.275  0.8228  0.2494 -0.3609
   62MOL   O18514947   3.299   0.843   5.317 -0.0596 -0.9614  0.3457
   62MOL   O18614948   3.146   0.684   5.261  0.6615  0.5070  0.1623
   62MOL   C18714949   3.227   0.571   5.279 -0.5070  0.1177 -0.2645
   62MOL   H18814950   3.023   0.957   5.023 -0.9314 -0.0453  0.9958
   62MOL   H18914951   3.079   0.792   5.043  1.0735  0.1444  0.4966
   62MOL   H19014952   2.998   0.884   5.239 -0.2286 -1.0548 -4.0183
   62MOL   H19114953   3.305   0.589   5.353 -1.5548 -0.1799  0.9235
   62MOL   H19214954   3.267   0.536   5.184  3.0008  3.0717  0.0020
   62MOL   H19314955   3.177   0.484   5.320 -0.1766  1.4466  3.0796
   62MOL   C19414956   3.110   1.061   5.263 -0.0426 -0.7939  0.1466
   62MOL   C19514957   3.004   1.100   5.371 -0.2455 -0.0952  0.0122
   62MOL   C19614958   2.865   1.110   5.308 -0.1238  0.2958 -0.7466
   62MOL   O19714959   2.773   1.030   5.334  0.1657 -0.6798 -0.4226
   62MOL   O19814960   2.856   1.214   5.225 -0.0655 -0.2756 -0.0789
   62MOL   C19914961   2.725   1.247   5.178 -0.3795  0.6443 -0.2641
   62MOL   H20014962   3.214   1.078   5.293 -0.2321 -0.2569  0.4918
   62MOL   H20114963   3.082   1.121   5.176 -0.8284 -0.7905  0.4023
   62MOL   H20214964   3.026   1.203   5.397 -0.1941  0.2936 -1.5325
   62MOL   H20314965   2.689   1.328   5.241  0.0945  1.1861 -0.6754
   62MOL   H20414966   2.663   1.158   5.172 -0.6258  0.7158  1.0935
   62MOL   H20514967   2.728   1.288   5.077  1.0109  0.1905 -0.4213
   62MOL   C20614968   3.006   1.019   5.500  0.5024  0.6043 -0.5703
   62MOL   C20714969   3.126   1.044   5.589  0.7299 -0.2697 -0.2523
   62MOL   C20814970   3.147   1.191   5.620 -0.1750 -0.5396 -0.5433
   62MOL   O20914971   3.256   1.246   5.610  0.6715  0.4602  0.3492
   62MOL   O21014972   3.032   1.258   5.663 -0.2513 -0.1520  0.0895
   62MOL   C21114973   3.033   1.394   5.694  0.6128  0.3823  0.0344
   62MOL   H21214974   2.918   1.038   5.561  1.2828  0.7113  0.5314
   62MOL   H21314975   2.998   0.914   5.474 -0.1939  0.3252  0.7427
   62MOL   H21414976   3.212   1.006   5.535  1.1975  0.9931 -0.4091
   62MOL   H21514977   2.947   1.428   5.751  0.6534 -2.0844  1.6415
   62MOL   H21614978   3.049   1.445   5.599  0.0009  2.0996  0.8344
   62MOL   H21714979   3.117   1.414   5.761  0.9019 -0.7536  0.0168
   62MOL   C21814980   3.120   0.948   5.709  0.2472 -1.0216 -0.0916
   62MOL   C21914981   3.258   0.937   5.779  0.1272  0.5869 -0.2897
   62MOL   C22014982   3.298   1.054   5.873  0.5735  0.2683  1.2189
   62MOL   O22114983   3.406   1.101   5.863  0.4268 -0.3894  0.4327
   62MOL   O22214984   3.194   1.102   5.949 -0.2987  0.2303 -0.6185
   62MOL   C22314985   3.206   1.205   6.042 -0.0875 -0.6697 -0.0013
   62MOL   H22414986   3.045   0.983   5.780 -0.6221 -2.4520 -0.2798
   62MOL   H22514987   3.095   0.846   5.679  2.4102 -1.3779 -0.8025
   62MOL   H22614988   3.333   0.935   5.700 -0.2888 -0.3114 -0.6649
   62MOL   H22714989   3.294   1.187   6.104 -0.5689  0.2078  0.9515
   62MOL   H22814990   3.113   1.216   6.097 -0.8872  0.9416 -1.6349
   62MOL   H22914991   3.231   1.299   5.992  0.5477 -0.3848  0.8429
   62MOL   C23014992   3.283   0.795   5.849  0.7496  0.3454  0.0102
   62MOL   C23114993   3.246   0.797   5.999 -0.2519  0.6410  0.0178
   62MOL   C23214994   3.240   0.658   6.069  0.3327 -0.0175 -0.0683
   62MOL   O23314995   3.153   0.574   6.038  0.7866  0.4672 -0.2082
   62MOL   O23414996   3.316   0.650   6.174 -0.1938  0.6322  0.2149
   62MOL   C23514997   3.357   0.521   6.220  0.0772 -0.1633  0.2686
   62MOL   H23614998   3.221   0.722   5.796 -1.4046  1.0613  1.4786
   62MOL   H23714999   3.385   0.761   5.837  0.0771 -1.6228 -0.3285
   62MOL   H23815000   3.143   0.830   6.003 -1.1725 -2.1882  0.6052
   62MOL   H23915001   3.274   0.451   6.209  0.7493 -1.1907  1.5672
   62MOL   H24015002   3.365   0.510   6.328 -3.0646 -0.4224  0.5365
   62MOL   H24115003   3.448   0.492   6.168  0.8663 -1.0077  2.0649
   62MOL   H24215004   3.300   0.869   6.061  1.6435  0.7823 -1.7410
   63MOL     C115005   0.805   1.775   3.585 -0.0751  0.0059 -0.5335
   63MOL     C215006   0.740   1.741   3.720  0.2221 -0.6338 -0.0632
   63MOL     C315007   0.765   1.597   3.754 -0.4240  0.0126 -0.4340
   63MOL     O415008   0.859   1.558   3.829 -0.1989 -0.2819  0.3571
   63MOL     O515009   0.684   1.519   3.689 -0.2802  0.1534 -0.2798
   63MOL     C615010   0.708   1.385   3.688  0.0079  0.0972 -0.0328
   63MOL     H715011   0.776   1.697   3.515  0.1366 -0.6256  0.0809
   63MOL     H815012   0.913   1.783   3.585 -0.2585  3.1322 -0.8812
   63MOL     H915013   0.634   1.762   3.720  0.0969 -1.1904  1.4722
   63MOL    H1015014   0.619   1.335   3.650 -0.8954  0.3593  1.7192
   63MOL    H1115015   0.733   1.339   3.784  0.1621 -1.9942 -1.0280
   63MOL    H1215016   0.784   1.369   3.611 -1.7127 -0.3085 -1.6960
   63MOL    H1315017   0.774   1.874   3.551  1.0009  0.2354 -0.8605
   63MOL    C1415018   0.784   1.836   3.831  0.2398 -0.3158 -0.3694
   63MOL    C1515019   0.755   1.986   3.817 -0.2619 -0.2795  0.7642
   63MOL    C1615020   0.604   2.015   3.829 -0.3820  0.0285  0.2516
   63MOL    O1715021   0.548   2.043   3.939  0.0838  1.4277  0.0685
   63MOL    O1815022   0.537   2.004   3.713  0.1802 -0.0840 -0.5793
   63MOL    C1915023   0.403   2.034   3.702  0.0308 -0.3147  0.6717
   63MOL    H2015024   0.746   1.804   3.928  0.3324  3.4270  0.9597
   63MOL    H2115025   0.893   1.826   3.835  0.3329  0.3920 -1.0765
   63MOL    H2215026   0.790   2.018   3.719  1.7191  0.3939  1.6665
   63MOL    H2315027   0.387   2.057   3.597  4.2853  0.6724  0.1360
   63MOL    H2415028   0.364   2.125   3.746 -0.6597 -0.5010  0.4519
   63MOL    H2515029   0.347   1.946   3.733 -0.3419 -0.5299 -0.5643
   63MOL    C2615030   0.825   2.062   3.929 -0.2883 -0.0261  0.3894
   63MOL    C2715031   0.975   2.074   3.916 -0.6972  0.3630  0.5695
   63MOL    C2815032   1.029   2.102   3.777 -0.1406 -0.4012 -0.4053
   63MOL    O2915033   1.022   2.215   3.732  0.4298  0.1965 -0.0330
   63MOL    O3015034   1.074   1.990   3.721  0.1241  0.7596 -0.6082
   63MOL    C3115035   1.111   1.991   3.587  0.0472  0.0419 -0.1250
   63MOL    H3215036   0.790   2.165   3.919  0.1701  0.1117  0.1895
   63MOL    H3315037   0.797   2.030   4.029  4.1815 -0.8082  1.5095
   63MOL    H3415038   1.015   1.974   3.935  0.7865  0.5904 -1.1679
   63MOL    H3515039   1.148   1.892   3.562 -1.6671 -0.3361 -1.2628
   63MOL    H3615040   1.197   2.057   3.571  1.1655 -0.8175  2.1366
   63MOL    H3715041   1.035   2.016   3.513 -1.4121 -0.7139  1.0964
   63MOL    C3815042   1.028   2.182   4.018 -0.2756 -0.6837  0.3852
   63MOL    C3915043   1.170   2.155   4.067 -0.2404 -0.5443 -0.0650
   63MOL    C4015044   1.267   2.276   4.039 -0.6401  0.6264  0.0984
   63MOL    O4115045   1.308   2.298   3.923 -0.3040 -0.2421  0.6192
   63MOL    O4215046   1.301   2.343   4.148 -0.3144 -0.2201 -1.1304
   63MOL    C4315047   1.406   2.440   4.158  0.3263  0.1375 -0.4429
   63MOL    H4415048   1.019   2.279   3.970  0.2695 -1.2602 -0.9017
   63MOL    H4515049   0.961   2.200   4.102 -0.2158  0.7137  0.1547
   63MOL    H4615050   1.213   2.083   3.998 -0.7728 -1.4498  0.5308
   63MOL    H4715051   1.443   2.441   4.261  0.3582 -1.3946 -0.4253
   63MOL    H4815052   1.368   2.539   4.134 -0.4672 -0.2060 -0.6232
   63MOL    H4915053   1.485   2.400   4.094  0.4651 -0.1883 -0.0739
   63MOL    C5015054   1.176   2.100   4.208  0.1299  0.5364  0.0799
   63MOL    C5115055   1.103   1.961   4.244 -0.0252 -0.3771  0.3528
   63MOL    C5215056   1.163   1.841   4.170 -0.0050  0.8988  0.0478
   63MOL    O5315057   1.096   1.761   4.111  0.1039 -0.2911 -0.3084
   63MOL    O5415058   1.294   1.822   4.199  0.2843  0.7084 -0.3106
   63MOL    C5515059   1.366   1.710   4.151  0.6601 -0.1124 -0.2361
   63MOL    H5615060   1.281   2.077   4.224 -0.1282 -1.1818 -0.6527
   63MOL    H5715061   1.132   2.167   4.282 -0.1285 -1.8946  2.1990
   63MOL    H5815062   1.000   1.974   4.210  0.2506  3.2515  0.7144
   63MOL    H5915063   1.459   1.688   4.203 -1.2756 -5.4345  1.3941
   63MOL    H6015064   1.382   1.713   4.043 -0.8602 -0.5292 -0.4912
   63MOL    H6115065   1.310   1.622   4.184 -0.0822 -0.5488 -2.5363
   63MOL    C6215066   1.113   1.934   4.399  0.0660  0.2116 -0.0394
   63MOL    C6315067   1.010   1.837   4.457  0.3724  0.3177 -0.2038
   63MOL    C6415068   1.042   1.688   4.427 -0.3955  0.0797 -0.3023
   63MOL    O6515069   0.954   1.600   4.418  0.2484  0.2826  0.4474
   63MOL    O6615070   1.178   1.657   4.428  0.0649  0.1654 -0.2983
   63MOL    C6715071   1.225   1.515   4.428  0.1635 -0.7310 -0.9461
   63MOL    H6815072   1.214   1.903   4.424 -0.2977 -1.5607 -0.6363
   63MOL    H6915073   1.104   2.022   4.462 -0.9548 -1.6809  2.5214
   63MOL    H7015074   0.915   1.848   4.405 -1.0021  0.3557  2.2267
   63MOL    H7115075   1.218   1.470   4.527 -0.5777  0.4602 -0.4465
   63MOL    H7215076   1.326   1.496   4.393 -0.2422 -1.5500 -1.7122
   63MOL    H7315077   1.160   1.460   4.360 -0.9956  0.0349 -0.4832
   63MOL    C7415078   0.984   1.855   4.610 -0.8202 -0.0384 -0.1648
   63MOL    C7515079   0.835   1.830   4.658  0.1404  0.5255 -0.0317
   63MOL    C7615080   0.836   1.811   4.811  0.2037 -0.3520 -0.2152
   63MOL    O7715081   0.825   1.705   4.863 -0.0872  0.4166  0.2523
   63MOL    O7815082   0.868   1.931   4.869  0.0451 -0.0651 -0.1597
   63MOL    C7915083   0.874   1.944   5.008  0.2992  0.0404  0.4943
   63MOL    H8015084   1.056   1.799   4.668 -2.7845 -0.7273  1.6669
   63MOL    H8115085   1.003   1.958   4.641  0.3446 -0.6035  1.0380
   63MOL    H8215086   0.798   1.736   4.616 -0.2280 -1.6952  4.8741
   63MOL    H8315087   0.859   2.047   5.041  2.2497  0.9030 -1.1503
   63MOL    H8415088   0.965   1.911   5.057 -0.4795 -0.3690  1.6847
   63MOL    H8515089   0.789   1.889   5.049  0.0087  0.4471  0.4426
   63MOL    C8615090   0.752   1.951   4.595 -0.1468  0.7553  0.3520
   63MOL    C8715091   0.616   1.930   4.530 -0.3937  0.6050  0.4524
   63MOL    C8815092   0.642   1.880   4.388  0.0395 -0.6747  0.4174
   63MOL    O8915093   0.650   1.956   4.290 -0.7472  0.0230  0.4542
   63MOL    O9015094   0.654   1.744   4.367 -0.6803  0.3226  0.3631
   63MOL    C9115095   0.659   1.696   4.232 -0.5469 -0.3315  0.0944
   63MOL    H9215096   0.762   2.042   4.655  2.5053 -0.0508  1.2116
   63MOL    H9315097   0.823   1.992   4.523 -1.0401  0.7496 -0.5416
   63MOL    H9415098   0.570   2.029   4.524 -0.5506  0.4585 -0.9099
   63MOL    H9515099   0.696   1.772   4.163  0.2436  1.7362  2.7099
   63MOL    H9615100   0.557   1.675   4.203 -0.1580 -0.5267 -1.1911
   63MOL    H9715101   0.724   1.609   4.228 -1.1116 -0.8679  2.2805
   63MOL    C9815102   0.515   1.846   4.615  0.0931  0.0169  0.0941
   63MOL    C9915103   0.474   1.928   4.741 -0.1960  0.9589 -0.0615
   63MOL   C10015104   0.374   2.043   4.722  0.2040  1.0458  0.5700
   63MOL   O10115105   0.343   2.119   4.817 -0.5249 -0.2747 -0.1430
   63MOL   O10215106   0.321   2.050   4.602  1.5133 -0.1654 -0.5251
   63MOL   C10315107   0.219   2.145   4.562 -0.1913 -0.2586 -0.3967
   63MOL   H10415108   0.431   1.805   4.557 -1.3375  0.3314  1.8870
   63MOL   H10515109   0.565   1.754   4.647  1.7258  0.3298 -1.4629
   63MOL   H10615110   0.567   1.974   4.773 -0.4936  1.5739 -0.0883
   63MOL   H10715111   0.121   2.110   4.596  0.2782 -1.2027 -0.0012
   63MOL   H10815112   0.206   2.150   4.454 -1.9138 -0.8584 -0.2362
   63MOL   H10915113   0.237   2.242   4.608  0.3459 -1.7518  2.6295
   63MOL   C11015114   0.430   1.840   4.853 -0.3691  0.4229 -0.2766
   63MOL   C11115115   0.305   1.754   4.837 -0.0325 -0.7292  0.3480
   63MOL   C11215116   0.320   1.624   4.755 -0.4646  0.7263  0.6399
   63MOL   O11315117   0.281   1.610   4.640  0.3999  0.7962 -0.6659
   63MOL   O11415118   0.379   1.527   4.828  0.3078  0.3912 -0.7597
   63MOL   C11515119   0.381   1.394   4.779 -0.0763 -0.6373 -0.3032
   63MOL   H11615120   0.522   1.787   4.875  0.5865  1.4746 -1.5908
   63MOL   H11715121   0.415   1.905   4.939  1.0364 -2.2032  2.0171
   63MOL   H11815122   0.238   1.822   4.784  1.7069  1.6491  1.0991
   63MOL   H11915123   0.290   1.346   4.743 -0.8714  0.6638 -0.0458
   63MOL   H12015124   0.429   1.332   4.855  1.6308  1.0789  0.0697
   63MOL   H12115125   0.452   1.378   4.698  0.2134 -0.7389 -0.0320
   63MOL   C12215126   0.236   1.737   4.981  0.5164  0.6608  0.1745
   63MOL   C12315127   0.105   1.819   5.004  0.2362  0.4594 -0.3043
   63MOL   C12415128   0.050   1.778   5.138  0.5883 -0.0795 -0.7090
   63MOL   O12515129   7.905   1.680   5.159 -0.0553  0.0033 -0.0820
   63MOL   O12615130   0.100   1.854   5.236  0.4508 -0.5383 -0.1827
   63MOL   C12715131   0.055   1.846   5.369 -0.4217 -0.2546 -0.3606
   63MOL   H12815132   0.203   1.634   4.991  1.1961  0.4144 -0.0877
   63MOL   H12915133   0.302   1.765   5.063 -0.6967  0.0691  1.3680
   63MOL   H13015134   0.035   1.787   4.927  0.1532  1.3087 -0.5902
   63MOL   H13115135   0.085   1.750   5.412  2.2536 -0.6450 -2.9663
   63MOL   H13215136   7.882   1.857   5.394 -0.4377 -0.3646 -0.3787
   63MOL   H13315137   0.104   1.920   5.432  0.5492 -0.6450 -0.6514
   63MOL   C13415138   0.117   1.971   4.993 -0.3060  0.2365 -0.0063
   63MOL   C13515139   7.915   2.048   4.998  0.3024 -0.3939  0.3313
   63MOL   C13615140   0.006   2.195   4.984 -0.1953  0.5848  0.6718
   63MOL   O13715141   7.917   2.275   5.074 -0.0165  0.1527  0.3599
   63MOL   O13815142   0.039   2.228   4.857  0.0121  0.7722 -0.1714
   63MOL   C13915143   0.106   2.356   4.848  0.0474 -0.3575  0.5281
   63MOL   H14015144   0.203   2.009   5.048  0.2262 -1.2907  0.2455
   63MOL   H14115145   0.136   1.977   4.885 -3.2219 -0.0543 -0.5887
   63MOL   H14215146   7.875   2.038   5.099  1.2160 -2.3215  0.5350
   63MOL   H14315147   0.059   2.433   4.910 -2.5079 -2.1876  0.9705
   63MOL   H14415148   0.074   2.391   4.749 -1.0728 -0.5258  0.8291
   63MOL   H14515149   0.214   2.347   4.853  0.0877 -1.5564 -1.7670
   63MOL   C14615150   7.804   1.980   4.905  0.6282  0.1185 -0.4010
   63MOL   C14715151   7.660   2.046   4.901 -0.1441  0.0495  0.0227
   63MOL   C14815152   7.576   1.989   4.785  0.5453  0.2390  0.0280
   63MOL   O14915153   7.515   2.057   4.703 -0.3692 -0.5433  0.3946
   63MOL   O15015154   7.562   1.858   4.794 -0.7216 -0.5312  0.0353
   63MOL   C15115155   7.505   1.784   4.682 -0.5405  0.1956  0.2693
   63MOL   H15215156   7.847   1.975   4.805 -0.7546 -0.3633 -0.9736
   63MOL   H15315157   7.793   1.881   4.949 -0.5503  1.4343  2.4273
   63MOL   H15415158   7.683   2.150   4.875 -0.7929 -0.3072 -2.0786
   63MOL   H15515159   7.400   1.813   4.680 -0.4080  0.6976  0.4793
   63MOL   H15615160   7.504   1.679   4.710  0.5814  0.3569  0.9401
   63MOL   H15715161   7.533   1.811   4.580  1.5909  0.8971  1.0190
   63MOL   C15815162   7.592   2.042   5.046  0.3300 -0.0173 -0.2306
   63MOL   C15915163   7.449   2.114   5.056  0.2127  0.2201  0.1341
   63MOL   C16015164   7.390   2.090   5.191  0.2718 -0.3983  0.0285
   63MOL   O16115165   7.454   2.105   5.293 -0.4926 -0.3350 -0.5712
   63MOL   O16215166   7.261   2.049   5.184  0.2664  0.1660 -0.3481
   63MOL   C16315167   7.189   2.011   5.302  0.2143 -0.2316 -0.1270
   63MOL   H16415168   7.574   1.942   5.084 -1.9644 -0.8946 -3.4166
   63MOL   H16515169   7.661   2.086   5.119 -0.2156 -1.3230  1.0827
   63MOL   H16615170   7.374   2.064   4.994 -0.2636  0.3678  0.5977
   63MOL   H16715171   7.258   1.965   5.372  0.8733 -0.2201 -0.7597
   63MOL   H16815172   7.115   1.934   5.281 -1.3917  1.1900  0.1828
   63MOL   H16915173   7.143   2.102   5.342 -0.1178  0.2255 -1.5130
   63MOL   C17015174   7.457   2.267   5.019  0.1106  0.0104 -0.1386
   63MOL   C17115175   7.324   2.350   5.002  0.3620  0.4521 -0.0107
   63MOL   C17215176   7.345   2.486   5.068 -0.9307 -0.2837 -0.1669
   63MOL   O17315177   7.247   2.535   5.122  0.4989 -0.2069 -0.0744
   63MOL   O17415178   7.460   2.547   5.046  0.2348  0.6773  0.0791
   63MOL   C17515179   7.486   2.668   5.113 -0.3884 -0.4472  0.6982
   63MOL   H17615180   7.525   2.309   5.093 -2.3169  0.6657  1.8006
   63MOL   H17715181   7.507   2.267   4.922 -0.4359 -2.2987 -0.4572
   63MOL   H17815182   7.244   2.312   5.065  1.6147 -1.2020  0.6252
   63MOL   H17915183   7.462   2.752   5.048 -0.4414 -0.5833  0.5408
   63MOL   H18015184   7.593   2.671   5.136 -0.5434  1.6242  1.2410
   63MOL   H18115185   7.431   2.679   5.206 -2.0812 -3.5292  0.1202
   63MOL   C18215186   7.268   2.354   4.858 -0.1240 -0.1972 -0.2080
   63MOL   C18315187   7.128   2.415   4.840  0.1921 -0.4875 -0.2958
   63MOL   C18415188   7.092   2.422   4.689  0.2573  0.0588 -0.1206
   63MOL   O18515189   6.988   2.368   4.646  0.3577 -0.1786  0.3343
   63MOL   O18615190   7.170   2.495   4.614 -0.4921 -0.0415  0.0219
   63MOL   C18715191   7.156   2.494   4.470 -0.3300 -0.7975 -0.3844
   63MOL   H18815192   7.342   2.406   4.798 -0.4180  0.7565  0.2438
   63MOL   H18915193   7.282   2.257   4.811  1.4432 -0.1477  0.1111
   63MOL   H19015194   7.131   2.515   4.885 -2.0379 -1.7660  2.9144
   63MOL   H19115195   7.250   2.529   4.427 -0.1391  1.3627  1.7243
   63MOL   H19215196   7.091   2.574   4.435  2.7072  1.7106 -0.4190
   63MOL   H19315197   7.131   2.395   4.430 -5.3374  0.3815 -0.4584
   63MOL   C19415198   7.004   2.356   4.926  0.1924  0.3595 -0.2319
   63MOL   C19515199   6.914   2.455   5.006 -0.4360 -0.4791  0.0751
   63MOL   C19615200   6.882   2.578   4.923 -0.0323  0.5768 -0.7356
   63MOL   O19715201   6.929   2.691   4.947  0.0177  0.6544 -0.0152
   63MOL   O19815202   6.787   2.554   4.831  0.4680  0.1494  0.0316
   63MOL   C19915203   6.758   2.661   4.740 -1.0063 -0.2393  0.3032
   63MOL   H20015204   6.936   2.304   4.858  0.1973 -0.0930  0.1050
   63MOL   H20115205   7.040   2.275   4.990 -1.7911 -1.5885 -1.4918
   63MOL   H20215206   6.970   2.489   5.094 -0.7751  1.0511 -0.2973
   63MOL   H20315207   6.839   2.663   4.668 -1.6319  1.7744 -0.3820
   63MOL   H20415208   6.748   2.757   4.789  0.2283 -0.8744  1.8284
   63MOL   H20515209   6.663   2.635   4.693 -0.0368 -1.5358 -0.9935
   63MOL   C20615210   6.789   2.396   5.060 -0.0383 -0.0676  0.1328
   63MOL   C20715211   6.812   2.292   5.178 -0.1480  0.7732  0.2145
   63MOL   C20815212   6.882   2.357   5.295 -0.4671 -0.2896 -0.0994
   63MOL   O20915213   6.865   2.479   5.320  0.1925 -0.3464  0.3495
   63MOL   O21015214   6.946   2.281   5.371 -0.3671 -0.1167  0.3500
   63MOL   C21115215   7.060   2.337   5.435  0.8768 -0.2591  0.4238
   63MOL   H21215216   6.730   2.482   5.092 -0.0620  0.1650 -0.5325
   63MOL   H21315217   6.723   2.349   4.988 -0.0357  0.5684 -0.2878
   63MOL   H21415218   6.885   2.213   5.158 -0.7441 -0.2927  2.1394
   63MOL   H21515219   7.134   2.363   5.359 -0.3603 -2.3007 -1.4971
   63MOL   H21615220   7.105   2.262   5.500  0.8793  0.9456  1.8497
   63MOL   H21715221   7.022   2.420   5.495 -0.1314 -0.5195  0.1411
   63MOL   C21815222   6.674   2.225   5.215 -0.1679 -0.1403 -0.6575
   63MOL   C21915223   6.647   2.096   5.142  0.6530  0.5985  0.4764
   63MOL   C22015224   6.666   1.976   5.231 -0.6367  0.1882  0.2146
   63MOL   O22115225   6.575   1.895   5.246  0.5519 -0.6858 -0.4300
   63MOL   O22215226   6.794   1.961   5.265  0.0553 -0.4186  0.0361
   63MOL   C22315227   6.824   1.861   5.360 -0.2086  0.3327  0.2194
   63MOL   H22415228   6.668   2.217   5.323  3.7583 -0.4385 -0.3805
   63MOL   H22515229   6.600   2.300   5.185 -0.6270 -1.4024 -2.7997
   63MOL   H22615230   6.723   2.087   5.064  0.2095 -0.4593  0.1417
   63MOL   H22715231   6.930   1.870   5.383  0.1615 -3.0949  0.0302
   63MOL   H22815232   6.810   1.761   5.318  3.7639 -1.5065  2.9514
   63MOL   H22915233   6.773   1.871   5.456 -0.3942 -1.0018  0.2624
   63MOL   C23015234   6.502   2.100   5.083 -0.4769 -0.6489 -0.5827
   63MOL   C23115235   6.494   2.021   4.950  0.3577 -0.3978 -0.0808
   63MOL   C23215236   6.597   2.046   4.835  0.8080 -0.0467  0.3941
   63MOL   O23315237   6.694   1.971   4.822  0.2253  0.6666 -0.4934
   63MOL   O23415238   6.561   2.142   4.753  0.3359  0.1693 -0.5209
   63MOL   C23515239   6.656   2.177   4.645 -0.3527  0.3332 -0.3430
   63MOL   H23615240   6.427   2.064   5.154  1.0510  2.1568  2.6281
   63MOL   H23715241   6.466   2.203   5.074 -4.2178 -1.8996 -0.9395
   63MOL   H23815242   6.400   2.059   4.909  0.8145  2.1376  1.1113
   63MOL   H23915243   6.599   2.244   4.581 -1.3175 -0.1657 -0.0026
   63MOL   H24015244   6.700   2.094   4.589 -1.4386 -1.3893  1.3286
   63MOL   H24115245   6.740   2.233   4.686 -0.5653  0.6890 -0.3964
   63MOL   H24215246   6.489   1.916   4.977 -1.3907 -0.1088  0.8167
   64MOL     C115247   7.187   0.564   4.785  0.2269  0.8826  0.4671
   64MOL     C215248   7.051   0.510   4.715  0.3967  0.2979 -0.4201
   64MOL     C315249   6.927   0.603   4.749 -0.1968  0.2469  0.2506
   64MOL     O415250   6.856   0.648   4.658  0.1895 -0.8102 -0.4680
   64MOL     O515251   6.905   0.620   4.882  0.1038  1.0011  0.3802
   64MOL     C615252   6.813   0.722   4.928  0.8386  0.1306  0.7557
   64MOL     H715253   7.282   0.529   4.745 -0.2463 -0.4107  0.4202
   64MOL     H815254   7.178   0.544   4.892 -0.4752  1.4259  0.5148
   64MOL     H915255   7.034   0.409   4.753  1.2360 -0.0505 -0.9600
   64MOL    H1015256   6.858   0.820   4.916 -2.7840  2.0190  1.7842
   64MOL    H1115257   6.771   0.713   5.028  0.0112  0.7653  0.4611
   64MOL    H1215258   6.727   0.733   4.863  1.5496 -0.4500 -0.3040
   64MOL    H1315259   7.196   0.672   4.785 -0.7334  0.9665 -0.2778
   64MOL    C1415260   7.074   0.509   4.558  0.1524  0.2152  0.0728
   64MOL    C1515261   7.148   0.382   4.508 -0.5298  0.4812 -0.6911
   64MOL    C1615262   7.051   0.258   4.521  0.1843  0.0123 -0.0074
   64MOL    O1715263   6.932   0.263   4.485  0.3627 -0.2897  0.2830
   64MOL    O1815264   7.110   0.153   4.580 -0.2611 -0.1680  0.1067
   64MOL    C1915265   7.043   0.027   4.586 -0.1219  0.2507  1.1807
   64MOL    H2015266   6.976   0.513   4.510  0.8416 -1.2625 -1.5355
   64MOL    H2115267   7.124   0.602   4.531 -0.0517  0.4661  0.5479
   64MOL    H2215268   7.224   0.347   4.578 -1.3580 -0.6927 -0.3563
   64MOL    H2315269   7.101   7.884   4.638  0.2704  0.1128  0.5522
   64MOL    H2415270   7.021   7.931   4.483 -0.7789  0.4462  1.2643
   64MOL    H2515271   6.951   0.035   4.644 -0.1727  1.9552  0.9048
   64MOL    C2615272   7.224   0.384   4.380  0.3000 -0.0089 -0.3810
   64MOL    C2715273   7.152   0.432   4.245  0.5674 -0.3783 -0.0786
   64MOL    C2815274   7.122   0.584   4.242  0.6286  0.3463  0.6504
   64MOL    O2915275   7.023   0.631   4.192  0.2574  0.7145 -0.2825
   64MOL    O3015276   7.227   0.644   4.286 -0.2303  0.0081 -0.1013
   64MOL    C3115277   7.224   0.783   4.291  1.0120 -0.6729  0.5658
   64MOL    H3215278   7.321   0.429   4.399  1.1090 -2.1762  0.7685
   64MOL    H3315279   7.264   0.287   4.351  0.6458 -0.9473  3.0986
   64MOL    H3415280   7.059   0.375   4.238  0.1129  0.2538  0.7636
   64MOL    H3515281   7.170   0.821   4.378 -0.4578 -0.5975 -0.3576
   64MOL    H3615282   7.178   0.830   4.204  2.3657 -0.8588 -0.2693
   64MOL    H3715283   7.326   0.823   4.295  0.0441  1.8061  1.5570
   64MOL    C3815284   7.236   0.405   4.123  0.0221 -0.3462 -0.1882
   64MOL    C3915285   7.240   0.270   4.051  0.1777 -0.4529  0.2309
   64MOL    C4015286   7.104   0.202   4.035 -0.2261  0.0926  1.0578
   64MOL    O4115287   7.098   0.082   4.059  0.0997  0.3148  0.3930
   64MOL    O4215288   7.008   0.274   3.976  0.0263  0.0156  0.7370
   64MOL    C4315289   6.899   0.208   3.921  0.9072 -0.3980  0.4066
   64MOL    H4415290   7.205   0.466   4.037 -0.5017  0.6392  0.6906
   64MOL    H4515291   7.338   0.441   4.136 -0.4268  1.9046 -2.3916
   64MOL    H4615292   7.306   0.209   4.113  0.9177 -0.3408 -0.4414
   64MOL    H4715293   6.833   0.180   4.003  0.7629  1.9890  1.1671
   64MOL    H4815294   6.929   0.112   3.879  0.4228 -0.3980  0.0543
   64MOL    H4915295   6.841   0.272   3.853  0.2084 -1.0271  0.4106
   64MOL    C5015296   7.323   0.279   3.915 -0.0105 -1.3347  0.8608
   64MOL    C5115297   7.262   0.356   3.791  0.5539 -0.6913  0.6749
   64MOL    C5215298   7.324   0.496   3.787 -0.8265  0.3813 -0.0262
   64MOL    O5315299   7.444   0.510   3.758  0.1639  0.3172 -0.6772
   64MOL    O5415300   7.237   0.600   3.811 -0.1198  0.6362 -0.1545
   64MOL    C5515301   7.286   0.732   3.805  0.2562  1.2337  0.5769
   64MOL    H5615302   7.424   0.314   3.936 -0.6114  0.0095  1.5431
   64MOL    H5715303   7.336   0.177   3.878  0.6469 -0.5512 -1.1782
   64MOL    H5815304   7.154   0.361   3.806  0.5210  0.7940  0.0430
   64MOL    H5915305   7.200   0.796   3.825 -0.2984  1.4418 -2.2204
   64MOL    H6015306   7.324   0.759   3.706 -2.3115 -0.2523 -0.8717
   64MOL    H6115307   7.362   0.765   3.875  1.9941 -1.0624 -0.1596
   64MOL    C6215308   7.283   0.281   3.665 -0.4434  0.6483 -0.2742
   64MOL    C6315309   7.222   0.342   3.537  0.4550  0.0256  0.1865
   64MOL    C6415310   7.276   0.284   3.406 -0.6567  0.1642  0.0429
   64MOL    O6515311   7.318   0.365   3.327 -0.2097  0.5464  0.1580
   64MOL    O6615312   7.255   0.153   3.388  0.7120 -0.0646  0.6102
   64MOL    C6715313   7.317   0.091   3.274 -0.1532  0.0915  0.3210
   64MOL    H6815314   7.390   0.268   3.652 -0.0964  1.3349  1.6717
   64MOL    H6915315   7.233   0.186   3.683  1.7525 -0.3740  0.5246
   64MOL    H7015316   7.264   0.443   3.536  1.2150 -0.2852  0.5025
   64MOL    H7115317   7.275   0.124   3.179  1.0845  1.9191  0.3790
   64MOL    H7215318   7.305   7.916   3.287  0.8972 -0.3119 -1.8819
   64MOL    H7315319   7.421   0.123   3.278 -0.0648 -0.4389  3.0895
   64MOL    C7415320   7.062   0.359   3.538 -0.2447  0.0438  0.7279
   64MOL    C7515321   7.004   0.490   3.468  0.1021  0.4133 -0.1086
   64MOL    C7615322   7.011   0.475   3.314  0.3646 -0.2078 -0.2949
   64MOL    O7715323   6.982   0.372   3.251 -0.1331  0.2715  0.2501
   64MOL    O7815324   7.061   0.592   3.259  0.0100 -0.2469 -0.3775
   64MOL    C7915325   7.097   0.608   3.124  0.1457  0.2353 -0.7223
   64MOL    H8015326   7.027   0.276   3.477  2.0154  0.3274 -1.0219
   64MOL    H8115327   7.011   0.351   3.634 -1.1391 -0.7778  0.1928
   64MOL    H8215328   7.076   0.566   3.498 -1.0173  1.5185 -0.1803
   64MOL    H8315329   7.043   0.529   3.073  0.1804 -0.6930  0.6506
   64MOL    H8415330   7.202   0.595   3.098 -0.6443 -1.2917 -3.3325
   64MOL    H8515331   7.055   0.705   3.100 -0.5768  0.2617  0.6135
   64MOL    C8615332   6.852   0.523   3.499  0.4580 -0.0856 -0.2306
   64MOL    C8715333   6.825   0.675   3.530 -0.2767 -0.3193  0.8966
   64MOL    C8815334   6.895   0.727   3.650 -0.1476  0.0188 -1.0364
   64MOL    O8915335   7.019   0.753   3.659 -0.5001  0.1980 -0.0312
   64MOL    O9015336   6.805   0.755   3.755  0.2184 -0.0353 -0.1067
   64MOL    C9115337   6.863   0.797   3.881 -0.0015  0.3156  0.0450
   64MOL    H9215338   6.790   0.494   3.415 -0.9360  0.4846  0.5910
   64MOL    H9315339   6.805   0.465   3.579 -0.7084  0.8019 -0.2705
   64MOL    H9415340   6.719   0.679   3.554 -0.0412 -2.7538  2.5801
   64MOL    H9515341   6.783   0.830   3.948 -1.3064 -1.7072 -0.4833
   64MOL    H9615342   6.933   0.878   3.857 -0.3161 -0.4305 -3.7154
   64MOL    H9715343   6.920   0.718   3.929  0.5600  1.4556  1.2871
   64MOL    C9815344   6.853   0.766   3.401 -0.4400 -0.3188 -0.6602
   64MOL    C9915345   6.785   0.910   3.386 -1.0354 -0.9075 -0.3085
   64MOL   C10015346   6.831   0.989   3.262  0.0030  0.3060 -0.4680
   64MOL   O10115347   6.900   0.937   3.178 -0.1651 -0.5111  0.2833
   64MOL   O10215348   6.787   1.114   3.270 -0.1573 -0.4272 -0.2267
   64MOL   C10315349   6.838   1.215   3.180  0.0283 -0.4637 -0.3663
   64MOL   H10415350   6.958   0.793   3.395 -0.8869  1.1825 -1.6842
   64MOL   H10515351   6.833   0.707   3.312  0.2833  0.4408 -1.3238
   64MOL   H10615352   6.815   0.974   3.469 -0.0569 -0.9882 -0.5988
   64MOL   H10715353   6.816   1.179   3.079 -0.6858 -1.8480  0.2728
   64MOL   H10815354   6.947   1.213   3.175  0.0111  0.2900 -1.2230
   64MOL   H10915355   6.804   1.317   3.196  1.7018 -0.1101  1.0751
   64MOL   C11015356   6.635   0.903   3.395 -0.2604 -0.4153 -0.5098
   64MOL   C11115357   6.557   0.841   3.279 -0.0412 -0.3475 -0.2086
   64MOL   C11215358   6.522   0.690   3.302  0.0344 -0.1852 -0.2492
   64MOL   O11315359   6.579   0.603   3.238  0.6007  0.0765  0.4059
   64MOL   O11415360   6.446   0.670   3.408  0.6583 -0.1669 -0.1991
   64MOL   C11515361   6.426   0.535   3.451 -0.0351  0.4445 -0.2756
   64MOL   H11615362   6.605   0.861   3.491  0.5868 -1.2771 -0.6114
   64MOL   H11715363   6.596   1.004   3.404  1.0935 -0.0154  1.4240
   64MOL   H11815364   6.610   0.848   3.184 -0.5555 -2.2358 -0.6475
   64MOL   H11915365   6.519   0.498   3.493 -0.8477 -1.0110  0.2492
   64MOL   H12015366   6.408   0.476   3.361 -0.2040  0.5050 -0.2811
   64MOL   H12115367   6.341   0.519   3.518 -0.2181 -0.6994 -0.7693
   64MOL   C12215368   6.425   0.921   3.245 -0.3041 -0.8489 -0.5130
   64MOL   C12315369   6.446   1.055   3.161  0.1265  0.1926 -1.0185
   64MOL   C12415370   6.502   1.025   3.021  0.0138  0.8551 -0.2515
   64MOL   O12515371   6.618   1.057   2.992  0.7419  0.2071 -0.5391
   64MOL   O12615372   6.419   0.938   2.951 -0.1734  0.0561  0.3003
   64MOL   C12715373   6.459   0.865   2.836  0.0499 -0.0891 -0.2362
   64MOL   H12815374   6.359   0.865   3.179 -1.0683  2.0057 -2.2070
   64MOL   H12915375   6.369   0.943   3.335  0.6810 -1.4234  0.2563
   64MOL   H13015376   6.528   1.106   3.212 -0.5392  1.2133 -0.9688
   64MOL   H13115377   6.390   0.788   2.802  0.6374 -1.1299  0.9010
   64MOL   H13215378   6.557   0.819   2.844 -0.5644 -1.1625  1.2823
   64MOL   H13315379   6.462   0.935   2.752  1.2377 -1.1738 -1.1056
   64MOL   C13415380   6.314   1.153   3.154  0.0065 -0.1811  0.8120
   64MOL   C13515381   6.329   1.308   3.159 -0.0758  0.4248 -0.3213
   64MOL   C13615382   6.317   1.377   3.026  0.5289  1.3543 -0.7602
   64MOL   O13715383   6.249   1.480   3.020  0.0646  0.1232 -0.3617
   64MOL   O13815384   6.388   1.330   2.925 -0.3112 -0.0410  0.1179
   64MOL   C13915385   6.400   1.400   2.803  0.2176  0.1480  0.4475
   64MOL   H14015386   6.255   1.130   3.065 -1.3340 -1.4239  1.9945
   64MOL   H14115387   6.237   1.119   3.223  1.4296 -0.3656  2.3212
   64MOL   H14215388   6.436   1.328   3.160  0.1297 -0.3743 -3.0582
   64MOL   H14315389   6.448   1.498   2.807  0.3289  0.1046  0.1845
   64MOL   H14415390   6.306   1.412   2.750  0.7004 -3.3733 -1.3613
   64MOL   H14515391   6.458   1.333   2.740 -0.6982 -1.3532  1.1501
   64MOL   C14615392   6.278   1.382   3.281  0.7647 -0.1359 -0.5789
   64MOL   C14715393   6.323   1.322   3.423 -0.9370 -0.7910 -0.3456
   64MOL   C14815394   6.475   1.331   3.432 -0.3061  0.7508  0.5522
   64MOL   O14915395   6.536   1.224   3.447 -0.3894  0.3634  0.1793
   64MOL   O15015396   6.526   1.456   3.425 -0.1831  0.6187 -0.5554
   64MOL   C15115397   6.669   1.479   3.456 -0.2186  0.5206 -0.2315
   64MOL   H15215398   6.317   1.483   3.273 -0.8483  0.5201 -0.3295
   64MOL   H15315399   6.170   1.386   3.272  1.0590  1.6864 -4.3372
   64MOL   H15415400   6.314   1.214   3.419  1.4811 -1.0612  1.0100
   64MOL   H15515401   6.730   1.425   3.384  1.1203  2.3513 -0.4945
   64MOL   H15615402   6.691   1.436   3.554 -0.8935 -2.0362 -1.1419
   64MOL   H15715403   6.706   1.581   3.456 -0.3050  0.5543  1.0748
   64MOL   C15815404   6.270   1.391   3.548  0.0910 -0.2073 -0.0816
   64MOL   C15915405   6.123   1.361   3.584  0.6711  0.6521 -0.0226
   64MOL   C16015406   6.072   1.218   3.554 -0.6452  0.4954 -0.4593
   64MOL   O16115407   6.014   1.191   3.448 -0.5140  0.0167 -0.0171
   64MOL   O16215408   6.091   1.136   3.652  0.2176  0.1708 -0.0340
   64MOL   C16315409   6.048   1.006   3.631 -0.1278 -0.1307  0.6995
   64MOL   H16415410   6.329   1.362   3.635  0.5658  0.8509 -0.0397
   64MOL   H16515411   6.283   1.499   3.556 -0.8881 -0.2096  1.7768
   64MOL   H16615412   6.071   1.415   3.505 -1.9267 -1.1908  0.3826
   64MOL   H16715413   6.069   0.958   3.726 -0.0058  1.5547  1.5388
   64MOL   H16815414   6.116   0.953   3.565  0.9856  0.6346  1.2132
   64MOL   H16915415   5.943   0.995   3.603  0.2393  1.8101 -1.6162
   64MOL   C17015416   6.065   1.425   3.722  0.4087 -0.1309  0.2907
   64MOL   C17115417   6.020   1.576   3.717  0.4255 -0.1288  0.5661
   64MOL   C17215418   5.899   1.598   3.626  0.2921 -0.2184 -0.5279
   64MOL   O17315419   5.875   1.527   3.527  0.1191 -0.2056 -0.1656
   64MOL   O17415420   5.843   1.711   3.660  0.1181  0.2099 -0.1055
   64MOL   C17515421   5.730   1.749   3.587  0.5987  0.1376 -0.2259
   64MOL   H17615422   5.988   1.360   3.764 -0.2870  0.6406  0.2352
   64MOL   H17715423   6.144   1.408   3.795  2.2165 -0.1285 -1.6388
   64MOL   H17815424   6.100   1.629   3.665 -0.5967  0.6214 -0.2542
   64MOL   H17915425   5.735   1.775   3.482  0.0730  0.4988 -0.1653
   64MOL   H18015426   5.687   1.841   3.628  0.4574  0.8141 -1.8521
   64MOL   H18115427   5.659   1.667   3.600 -0.9697  1.3097 -1.2028
   64MOL   C18215428   6.006   1.631   3.867  0.0531 -0.9803  0.2971
   64MOL   C18315429   6.048   1.772   3.902 -0.2442 -0.0740  0.7653
   64MOL   C18415430   5.992   1.835   4.030  0.3400  0.4965 -0.2210
   64MOL   O18515431   5.978   1.957   4.038 -0.3079 -0.0078 -0.1700
   64MOL   O18615432   5.948   1.742   4.122  0.6026 -0.1099  0.3172
   64MOL   C18715433   5.915   1.775   4.255  0.1688  0.2466  0.2106
   64MOL   H18815434   5.903   1.618   3.900 -0.0944 -2.4258 -0.6739
   64MOL   H18915435   6.059   1.573   3.942 -0.2971 -1.2182  0.3641
   64MOL   H19015436   5.994   1.825   3.823  0.4995 -0.3425  0.0696
   64MOL   H19115437   5.856   1.867   4.250  1.6506  1.1233 -1.6423
   64MOL   H19215438   6.004   1.793   4.316  0.3628 -0.8386  0.2537
   64MOL   H19315439   5.851   1.698   4.296  1.2219 -1.4081 -1.1883
   64MOL   C19415440   6.193   1.804   3.865  0.0989  0.6093 -0.3847
   64MOL   C19515441   6.292   1.755   3.977 -0.2869 -0.2211  0.3453
   64MOL   C19615442   6.377   1.634   3.940  0.0877  0.6217 -0.0794
   64MOL   O19715443   6.370   1.528   4.001 -0.1212  0.0668  0.1428
   64MOL   O19815444   6.466   1.650   3.840  0.1783 -0.0743  0.0151
   64MOL   C19915445   6.548   1.547   3.792  0.2148  0.0629  0.4027
   64MOL   H20015446   6.209   1.771   3.763 -1.3448  0.0598 -0.4363
   64MOL   H20115447   6.206   1.912   3.852 -0.5596  0.8295  0.7578
   64MOL   H20215448   6.220   1.726   4.054 -0.2089  0.6631  0.7603
   64MOL   H20315449   6.577   1.575   3.691  0.6489 -2.3721 -0.1758
   64MOL   H20415450   6.478   1.465   3.778  1.9249 -1.1453 -1.3511
   64MOL   H20515451   6.634   1.526   3.856  1.1906  2.2497 -0.1580
   64MOL   C20615452   6.378   1.873   4.030 -0.2496  0.0377  0.1198
   64MOL   C20715453   6.431   1.846   4.177  0.5893 -0.1117  0.2904
   64MOL   C20815454   6.539   1.947   4.209 -0.8472  0.0501  0.4940
   64MOL   O20915455   6.663   1.920   4.208  0.3006 -0.1934 -0.0094
   64MOL   O21015456   6.492   2.072   4.237 -0.3015  0.2086 -0.1285
   64MOL   C21115457   6.580   2.178   4.256 -0.2984  0.3123 -0.3006
   64MOL   H21215458   6.461   1.906   3.968 -0.0605 -0.6949 -0.0206
   64MOL   H21315459   6.315   1.962   4.029  0.4981  0.5584 -0.0805
   64MOL   H21415460   6.465   1.744   4.164  0.7696 -0.3012  2.1383
   64MOL   H21515461   6.534   2.271   4.224 -1.2772  0.2456  0.8534
   64MOL   H21615462   6.669   2.161   4.195 -0.9687 -0.8875 -0.9508
   64MOL   H21715463   6.615   2.180   4.360 -2.1333  0.6446  0.3294
   64MOL   C21815464   6.318   1.837   4.283 -0.3654  0.3277 -0.0190
   64MOL   C21915465   6.354   1.841   4.437 -0.4578 -0.5504  0.2827
   64MOL   C22015466   6.269   1.945   4.509 -0.1660  0.6085  0.0212
   64MOL   O22115467   6.148   1.928   4.523 -0.8844 -0.5010 -0.2463
   64MOL   O22215468   6.337   2.052   4.545 -0.0535  0.4407 -0.1140
   64MOL   C22315469   6.270   2.156   4.620 -0.3535 -0.0355 -0.2670
   64MOL   H22415470   6.247   1.917   4.265 -2.4931 -1.0451  1.9348
   64MOL   H22515471   6.255   1.750   4.267  0.4413 -0.2385 -0.1709
   64MOL   H22615472   6.455   1.880   4.450 -0.6626  0.1161 -0.0906
   64MOL   H22715473   6.163   2.144   4.635 -0.1282  0.8751  2.4654
   64MOL   H22815474   6.288   2.249   4.566  1.9938 -0.0618  0.3918
   64MOL   H22915475   6.302   2.170   4.724 -1.0706  0.8900 -0.1663
   64MOL   C23015476   6.347   1.703   4.499 -0.2256  0.4268 -0.0168
   64MOL   C23115477   6.407   1.675   4.635 -0.1985  0.9567  0.2660
   64MOL   C23215478   6.310   1.700   4.754  0.5587  0.1318  0.4078
   64MOL   O23315479   6.287   1.607   4.827  0.0653  0.4429  0.4464
   64MOL   O23415480   6.255   1.819   4.769  0.0973 -0.3673  0.5054
   64MOL   C23515481   6.177   1.846   4.881  0.2679  0.1566  0.6572
   64MOL   H23615482   6.245   1.663   4.492  0.2604 -1.1614  1.6082
   64MOL   H23715483   6.402   1.640   4.429  1.7816  2.2396 -0.0925
   64MOL   H23815484   6.492   1.739   4.658  0.9871 -0.4867  0.0067
   64MOL   H23915485   6.167   1.955   4.887  0.6750  0.2577 -0.3616
   64MOL   H24015486   6.222   1.811   4.973 -0.2520 -0.1778  0.7842
   64MOL   H24115487   6.081   1.795   4.873 -0.6310  1.7342  0.9734
   64MOL   H24215488   6.427   1.567   4.640 -0.4500  0.8623 -0.6001
   65MOL     C115489   4.226   4.423   4.046  0.2596 -0.0283 -0.2034
   65MOL     C215490   4.139   4.550   4.071  0.1807 -0.3085  0.0494
   65MOL     C315491   4.156   4.593   4.215  0.5850 -0.3821  0.8719
   65MOL     O415492   4.132   4.508   4.304 -0.0384  0.0367  0.1332
   65MOL     O515493   4.201   4.720   4.228 -0.5655  0.3723 -0.2451
   65MOL     C615494   4.208   4.779   4.355 -0.1327 -0.4204 -0.2248
   65MOL     H715495   4.333   4.441   4.050  0.2730 -0.2829  0.6554
   65MOL     H815496   4.209   4.386   3.945  3.9293 -0.1106 -0.8405
   65MOL     H915497   4.037   4.514   4.071 -0.0428  0.3230  0.0745
   65MOL    H1015498   4.119   4.750   4.410 -0.5295 -1.5908 -1.4557
   65MOL    H1115499   4.209   4.886   4.339  0.6422 -0.1754  1.3658
   65MOL    H1215500   4.296   4.747   4.411  0.9228  2.1189 -0.3885
   65MOL    H1315501   4.195   4.353   4.123  2.0463 -0.3866  0.1992
   65MOL    C1415502   4.176   4.656   3.967  0.2689  0.5582  0.1699
   65MOL    C1515503   4.074   4.762   3.929  0.6613 -0.2438 -0.4319
   65MOL    C1615504   4.132   4.897   3.885 -0.0575  0.5648  0.3296
   65MOL    O1715505   4.141   4.990   3.968 -0.0452  0.0113  0.5144
   65MOL    O1815506   4.178   4.894   3.757 -0.2867  0.8501  0.3496
   65MOL    C1915507   4.248   5.006   3.708  0.3120 -0.1318  0.1817
   65MOL    H2015508   4.273   4.703   3.985 -0.4554  2.0855  0.1126
   65MOL    H2115509   4.192   4.606   3.872  2.9154  0.0907  0.8101
   65MOL    H2215510   4.028   4.790   4.024  2.5599  2.3111 -0.2277
   65MOL    H2315511   4.241   4.997   3.600 -0.2395 -0.9280  0.2843
   65MOL    H2415512   4.354   5.023   3.729 -0.4793  2.4972  2.4678
   65MOL    H2515513   4.207   5.100   3.747  0.3272  0.7550 -1.8688
   65MOL    C2615514   3.958   4.714   3.836  0.3023  0.3322 -0.3686
   65MOL    C2715515   3.813   4.744   3.893  0.1291  0.8105  0.8778
   65MOL    C2815516   3.771   4.894   3.890 -0.4894 -0.1562  0.1338
   65MOL    O2915517   3.806   4.957   3.788  1.0062  0.8656 -0.0397
   65MOL    O3015518   3.696   4.940   4.002  0.2956  0.3247  0.1475
   65MOL    C3115519   3.640   5.077   3.991  0.2447 -0.0920 -0.7961
   65MOL    H3215520   3.966   4.753   3.735  1.7385 -0.7601 -0.6988
   65MOL    H3315521   3.968   4.606   3.825  1.2083  0.3492  0.2374
   65MOL    H3415522   3.808   4.713   3.997 -0.4626  0.5773  0.7824
   65MOL    H3515523   3.539   5.083   3.951  0.7594 -0.6568 -2.2222
   65MOL    H3615524   3.704   5.146   3.936  1.1621 -0.2537  0.0550
   65MOL    H3715525   3.638   5.112   4.094  3.3073 -3.6527  0.6137
   65MOL    C3815526   3.697   4.653   3.832  0.2452  0.0470  0.4922
   65MOL    C3915527   3.663   4.663   3.679  0.7893  0.1816  0.2092
   65MOL    C4015528   3.763   4.595   3.592  0.5879  0.0393 -0.3985
   65MOL    O4115529   3.816   4.664   3.507 -0.1155 -0.6569 -0.0820
   65MOL    O4215530   3.786   4.467   3.609 -0.3232 -0.0695 -0.7543
   65MOL    C4315531   3.875   4.407   3.514  0.0196  0.3002 -0.0952
   65MOL    H4415532   3.718   4.548   3.852  2.0122  0.2698 -0.0726
   65MOL    H4515533   3.606   4.675   3.889 -0.7859  0.7905 -1.4137
   65MOL    H4615534   3.672   4.769   3.657  0.1912  0.7128  2.4039
   65MOL    H4715535   3.965   4.466   3.495 -0.2301  0.4931 -0.7071
   65MOL    H4815536   3.829   4.401   3.415  0.4596  0.3439 -0.3066
   65MOL    H4915537   3.908   4.312   3.554 -1.6539 -0.2355  0.0638
   65MOL    C5015538   3.521   4.609   3.640 -0.1094 -0.2862 -0.5669
   65MOL    C5115539   3.461   4.683   3.523 -0.6517 -0.0224 -0.4758
   65MOL    C5215540   3.347   4.608   3.455 -0.1266  1.5394 -0.3963
   65MOL    O5315541   3.352   4.588   3.335 -0.0282 -0.0887 -0.2329
   65MOL    O5415542   3.247   4.565   3.539  0.0605  0.2305 -0.5325
   65MOL    C5515543   3.135   4.487   3.488 -0.0530  1.0510  0.3487
   65MOL    H5615544   3.536   4.504   3.615  0.8493 -0.5919  1.2175
   65MOL    H5715545   3.453   4.619   3.724 -0.3538  0.7253 -0.8696
   65MOL    H5815546   3.537   4.696   3.446 -0.7703 -0.2176 -0.6251
   65MOL    H5915547   3.172   4.391   3.452  0.8805  2.7616 -3.5119
   65MOL    H6015548   3.090   4.545   3.408  0.7680 -1.5652 -2.0987
   65MOL    H6115549   3.064   4.465   3.568  0.6030 -1.5962  0.2456
   65MOL    C6215550   3.425   4.825   3.564 -0.4247 -0.4514 -0.1740
   65MOL    C6315551   3.398   4.940   3.456  0.3227 -0.7317 -0.1760
   65MOL    C6415552   3.512   4.948   3.357 -0.2107 -0.9385  1.3006
   65MOL    O6515553   3.487   4.940   3.236 -0.4397 -0.1754 -0.0235
   65MOL    O6615554   3.638   4.949   3.410  0.2518 -0.2681  0.0972
   65MOL    C6715555   3.738   4.993   3.314  0.0900  0.3667  0.4494
   65MOL    H6815556   3.361   4.825   3.652  0.0022  1.1978  0.1482
   65MOL    H6915557   3.509   4.862   3.622 -0.9201 -1.0364  0.9441
   65MOL    H7015558   3.395   5.032   3.515  1.6515  1.4387 -3.3353
   65MOL    H7115559   3.717   5.098   3.296  0.6382  0.2793 -0.7719
   65MOL    H7215560   3.724   4.938   3.220  2.5989  0.9532 -0.2990
   65MOL    H7315561   3.843   4.990   3.344 -0.0387 -0.0115  0.8749
   65MOL    C7415562   3.259   4.948   3.389  0.5624 -0.2684  0.2301
   65MOL    C7515563   3.198   5.086   3.365 -0.2648 -0.6283  0.0348
   65MOL    C7615564   3.152   5.112   3.227 -0.3034 -0.9556  0.9258
   65MOL    O7715565   3.202   5.204   3.158 -0.7315 -0.1611 -0.1099
   65MOL    O7815566   3.046   5.046   3.187 -0.5251 -0.7907 -0.5062
   65MOL    C7915567   2.984   5.069   3.067 -0.4863 -0.1777  0.4098
   65MOL    H8015568   3.256   4.888   3.298 -1.1428  0.6855 -0.3588
   65MOL    H8115569   3.194   4.885   3.449 -0.0078  0.9270  0.8996
   65MOL    H8215570   3.276   5.162   3.368 -2.5810  1.7276  1.3730
   65MOL    H8315571   2.989   5.172   3.033  0.0346 -0.0226  0.9520
   65MOL    H8415572   2.879   5.040   3.074 -0.3147 -0.5665  1.5757
   65MOL    H8515573   3.024   5.006   2.988 -3.0140 -0.2174 -0.9104
   65MOL    C8615574   3.097   5.116   3.472  0.2709 -0.5793 -0.6253
   65MOL    C8715575   3.019   5.244   3.468  0.3203  0.5938 -0.6992
   65MOL    C8815576   2.873   5.223   3.415 -0.7204 -0.0900  0.0071
   65MOL    O8915577   2.834   5.278   3.310 -0.1556  0.4724 -0.2312
   65MOL    O9015578   2.800   5.150   3.492  0.2770 -0.2372  0.5098
   65MOL    C9115579   2.665   5.126   3.459  0.2497  0.5212  0.2667
   65MOL    H9215580   3.026   5.035   3.491  1.0057 -0.7546  1.4939
   65MOL    H9315581   3.150   5.126   3.566  2.3436 -2.7686 -1.5070
   65MOL    H9415582   3.064   5.326   3.412 -0.2952  1.0250 -0.5620
   65MOL    H9515583   2.616   5.063   3.532  1.1850  0.4739  0.8530
   65MOL    H9615584   2.654   5.080   3.361 -0.4754  0.0410  0.5669
   65MOL    H9715585   2.610   5.220   3.450 -0.2253  0.2884  0.7132
   65MOL    C9815586   3.005   5.314   3.606  0.5419 -0.7496  1.0778
   65MOL    C9915587   3.125   5.412   3.644  0.0706  0.7349 -0.2924
   65MOL   C10015588   3.089   5.560   3.624  0.4519 -0.0518  0.5387
   65MOL   O10115589   3.164   5.623   3.546  0.1872 -0.1507 -0.0049
   65MOL   O10215590   2.993   5.618   3.702 -0.0898 -0.2220 -0.6539
   65MOL   C10315591   2.971   5.753   3.684  0.0017  0.6287 -0.9072
   65MOL   H10415592   2.912   5.370   3.612  0.7964 -0.3753  1.5779
   65MOL   H10515593   2.999   5.243   3.689 -0.1441 -0.4630  1.2724
   65MOL   H10615594   3.204   5.381   3.576 -0.9325 -0.4098 -0.9486
   65MOL   H10715595   2.864   5.767   3.700 -0.3310 -2.7458  0.2592
   65MOL   H10815596   2.999   5.791   3.586  0.3126  2.0286 -0.2761
   65MOL   H10915597   3.032   5.812   3.753  0.2212 -0.6681  0.0406
   65MOL   C11015598   3.170   5.391   3.794  0.3766  0.7181 -0.0256
   65MOL   C11115599   3.261   5.268   3.831 -0.6132  0.4634 -0.3307
   65MOL   C11215600   3.409   5.277   3.805  0.2357 -0.3692  0.3286
   65MOL   O11315601   3.479   5.348   3.872 -0.1335  0.0127  0.4991
   65MOL   O11415602   3.450   5.208   3.690 -0.1653  0.0029  0.0341
   65MOL   C11515603   3.584   5.215   3.636  0.0359 -0.2339  0.4815
   65MOL   H11615604   3.220   5.484   3.819  2.5408  0.0062 -1.5540
   65MOL   H11715605   3.084   5.399   3.861  0.3700  1.7452 -0.1447
   65MOL   H11815606   3.223   5.187   3.769 -0.7479  0.3790 -0.1398
   65MOL   H11915607   3.605   5.310   3.586 -0.9654  0.1140  0.7035
   65MOL   H12015608   3.593   5.141   3.557 -0.5418  0.6237 -0.3920
   65MOL   H12115609   3.653   5.203   3.720  0.7728  0.7034  0.0237
   65MOL   C12215610   3.241   5.220   3.975 -0.0454  0.4318  0.2635
   65MOL   C12315611   3.133   5.105   3.976 -0.6909  0.2927  0.5691
   65MOL   C12415612   3.202   4.967   3.950  0.3309  0.4475 -0.2396
   65MOL   O12515613   3.314   4.946   3.997 -0.1243 -0.9358 -0.9728
   65MOL   O12615614   3.123   4.882   3.879  0.2237 -0.0048 -0.0434
   65MOL   C12715615   3.176   4.752   3.852  0.2104  0.0614 -0.7968
   65MOL   H12815616   3.338   5.188   4.014  1.1409  0.7348 -2.3606
   65MOL   H12915617   3.217   5.295   4.051  0.9772  2.0234 -0.9648
   65MOL   H13015618   3.068   5.120   3.890  0.5113 -0.8231 -0.5593
   65MOL   H13115619   3.285   4.750   3.856  0.1771  0.7461  0.5560
   65MOL   H13215620   3.140   4.713   3.757  2.5803 -4.1083 -0.1276
   65MOL   H13315621   3.142   4.678   3.925 -0.1344 -0.0171 -1.0386
   65MOL   C13415622   3.054   5.103   4.101  0.3498 -0.4928 -0.6712
   65MOL   C13515623   2.932   5.196   4.097  0.2124 -0.7056  0.9250
   65MOL   C13615624   2.813   5.120   4.019  0.0097 -0.0562  0.0926
   65MOL   O13715625   2.783   5.162   3.911 -0.2978 -0.0191  0.9383
   65MOL   O13815626   2.757   5.013   4.078 -0.1929  0.0141  0.4107
   65MOL   C13915627   2.642   4.958   4.023  0.3523  0.0607 -0.1647
   65MOL   H14015628   3.014   5.004   4.121 -2.4635  0.7936  0.3605
   65MOL   H14115629   3.118   5.129   4.186  0.4907  1.6051 -1.3906
   65MOL   H14215630   2.962   5.291   4.053 -2.6257  0.3646  1.2469
   65MOL   H14315631   2.635   4.855   4.060 -2.0742  0.1126 -0.3962
   65MOL   H14415632   2.657   4.945   3.916  1.0877 -0.1069 -0.0438
   65MOL   H14515633   2.551   5.013   4.045  1.7933  2.2229  0.4785
   65MOL   C14615634   2.883   5.241   4.236 -0.2660 -0.0864 -0.1715
   65MOL   C14715635   2.779   5.346   4.235 -0.3007 -0.0775  0.2581
   65MOL   C14815636   2.686   5.338   4.353 -0.0556 -0.2993  0.3557
   65MOL   O14915637   2.570   5.337   4.331 -0.1196 -0.0078  0.3344
   65MOL   O15015638   2.753   5.326   4.469 -0.4580  0.1109 -0.1049
   65MOL   C15115639   2.671   5.333   4.584  0.4512 -0.3932 -0.4201
   65MOL   H15215640   2.842   5.156   4.290 -1.0868  1.7495  2.1870
   65MOL   H15315641   2.967   5.274   4.297  0.1593 -1.5096  0.0371
   65MOL   H15415642   2.736   5.333   4.135  0.0143 -0.4751  0.1732
   65MOL   H15515643   2.732   5.285   4.660 -0.1590 -1.7089 -0.7440
   65MOL   H15615644   2.589   5.262   4.581 -2.8560  3.1609  1.7767
   65MOL   H15715645   2.665   5.438   4.610  0.7593 -0.3156 -0.6484
   65MOL   C15815646   2.845   5.483   4.225 -0.3520  0.0754 -0.4320
   65MOL   C15915647   2.749   5.608   4.188 -0.0190  0.1291  0.7723
   65MOL   C16015648   2.689   5.681   4.309  0.3236  0.3604  0.6092
   65MOL   O16115649   2.762   5.700   4.408 -0.5221  0.1096 -0.1065
   65MOL   O16215650   2.561   5.718   4.291 -0.2170 -0.2030  0.6237
   65MOL   C16315651   2.492   5.767   4.400 -0.4368 -0.4696 -0.2609
   65MOL   H16415652   2.894   5.500   4.321  1.4501  1.3811 -1.5424
   65MOL   H16515653   2.930   5.483   4.156 -0.1177  1.4332 -0.1663
   65MOL   H16615654   2.658   5.579   4.135  1.5277 -0.2391 -1.7322
   65MOL   H16715655   2.403   5.820   4.364  0.1697  1.3291  0.7939
   65MOL   H16815656   2.544   5.845   4.456  0.8769 -2.0315  0.7353
   65MOL   H16915657   2.455   5.700   4.478  1.3057 -0.3353  0.7077
   65MOL   C17015658   2.814   5.710   4.092 -0.3735 -0.4237  0.1124
   65MOL   C17115659   2.748   5.845   4.073  0.3263 -0.4629 -0.1841
   65MOL   C17215660   2.852   5.950   4.083 -0.3941  0.7661  0.3787
   65MOL   O17315661   2.843   6.043   4.171 -0.5964  0.3765 -0.4583
   65MOL   O17415662   2.956   5.927   3.997 -0.1731  0.8564 -0.2665
   65MOL   C17515663   3.053   6.030   3.979  0.3151  0.0306  0.1243
   65MOL   H17615664   2.912   5.718   4.139  0.9486 -0.9960 -2.4743
   65MOL   H17715665   2.831   5.659   3.997 -2.5493  0.7519 -0.9610
   65MOL   H17815666   2.685   5.871   4.158  4.2785 -0.4268  2.9056
   65MOL   H17915667   3.145   6.003   4.030  1.4055 -1.3369 -2.4928
   65MOL   H18015668   3.018   6.127   4.014 -0.6923  0.8616 -2.9924
   65MOL   H18115669   3.079   6.040   3.873  0.9883 -0.4168  0.2438
   65MOL   C18215670   2.661   5.853   3.941 -0.4287 -0.9155 -0.1543
   65MOL   C18315671   2.521   5.793   3.966 -0.1937 -0.1961  0.2290
   65MOL   C18415672   2.424   5.893   4.022  0.5418  0.5404 -0.4416
   65MOL   O18515673   2.438   6.014   3.996 -0.0408  0.3899  0.0520
   65MOL   O18615674   2.333   5.834   4.095  0.0113 -0.4120 -0.2066
   65MOL   C18715675   2.226   5.912   4.139 -0.8142 -0.0710  0.4079
   65MOL   H18815676   2.662   5.958   3.913  0.3601 -0.0741  2.7763
   65MOL   H18915677   2.708   5.802   3.857 -2.6176 -1.7339 -0.9031
   65MOL   H19015678   2.528   5.706   4.032 -1.6535  0.8222  1.8002
   65MOL   H19115679   2.268   5.995   4.196  0.1296  0.6500 -1.2907
   65MOL   H19215680   2.158   5.852   4.199 -0.7041 -2.5811 -1.8710
   65MOL   H19315681   2.169   5.944   4.052  0.9388 -2.4109 -1.6989
   65MOL   C19415682   2.465   5.741   3.829  0.2531 -0.6232 -0.3157
   65MOL   C19515683   2.527   5.607   3.777  0.3089  0.4203 -0.5274
   65MOL   C19615684   2.539   5.501   3.890 -0.4826 -0.5995 -0.3433
   65MOL   O19715685   2.650   5.463   3.935  0.2994 -0.0088  0.4756
   65MOL   O19815686   2.420   5.461   3.933  0.5574  0.1710 -0.8283
   65MOL   C19915687   2.409   5.396   4.056  0.0111 -0.4899 -0.0733
   65MOL   H20015688   2.357   5.742   3.842  0.2405  4.2261  0.2738
   65MOL   H20115689   2.491   5.823   3.762  0.9491 -0.5177  0.0797
   65MOL   H20215690   2.629   5.626   3.746  0.2796  1.0169 -0.2507
   65MOL   H20315691   2.306   5.360   4.061 -0.6801  1.3662 -0.8817
   65MOL   H20415692   2.435   5.458   4.142  0.6625 -1.3280  0.3425
   65MOL   H20515693   2.467   5.303   4.058  1.5826  0.4888  1.8532
   65MOL   C20615694   2.451   5.529   3.660 -0.5713 -0.1409  0.4474
   65MOL   C20715695   2.434   5.612   3.527  0.0890 -0.9824  0.3516
   65MOL   C20815696   2.567   5.661   3.471 -0.5925  0.6452 -0.4389
   65MOL   O20915697   2.595   5.780   3.460  0.0632  0.4993 -0.8889
   65MOL   O21015698   2.637   5.552   3.420 -0.3209  0.4538 -0.1242
   65MOL   C21115699   2.762   5.585   3.359 -0.5869 -0.0116  0.6285
   65MOL   H21215700   2.489   5.430   3.636  0.7324  0.6009 -0.6330
   65MOL   H21315701   2.348   5.503   3.683 -0.4229 -0.2508  0.9998
   65MOL   H21415702   2.378   5.703   3.551 -1.7315 -2.3602  1.4582
   65MOL   H21515703   2.791   5.501   3.295  2.7443  1.2682  0.3332
   65MOL   H21615704   2.847   5.592   3.427  0.7183  0.6518 -1.0352
   65MOL   H21715705   2.755   5.674   3.297  2.1319  0.1179  0.4473
   65MOL   C21815706   2.330   5.560   3.424  0.4762 -0.3253  1.0689
   65MOL   C21915707   2.335   5.411   3.374  0.1633 -0.1591  0.3059
   65MOL   C22015708   2.292   5.314   3.485 -0.8323  0.1843  0.4643
   65MOL   O22115709   2.365   5.229   3.529  0.4763 -0.7247 -0.1535
   65MOL   O22215710   2.174   5.342   3.526  0.1676  0.4546 -0.2563
   65MOL   C22315711   2.111   5.270   3.633 -0.3393 -0.0422 -0.0776
   65MOL   H22415712   2.235   5.574   3.476  0.7097  0.7787  1.2081
   65MOL   H22515713   2.325   5.622   3.334  2.3689 -0.5237  0.8077
   65MOL   H22615714   2.439   5.385   3.353  1.4320  1.9908  3.3661
   65MOL   H22715715   2.013   5.314   3.646 -1.0022 -1.2217 -1.0056
   65MOL   H22815716   2.168   5.276   3.726 -0.0952  1.1327 -0.2877
   65MOL   H22915717   2.097   5.164   3.613 -0.9246 -0.4224  2.2353
   65MOL   C23015718   2.256   5.382   3.239  0.2313  0.6729 -1.1574
   65MOL   C23115719   2.276   5.239   3.180  0.7855 -0.5019 -0.6493
   65MOL   C23215720   2.416   5.212   3.120 -0.3312 -0.3564 -0.2345
   65MOL   O23315721   2.503   5.145   3.181  0.1027 -0.4007 -0.3605
   65MOL   O23415722   2.441   5.285   3.002  0.3071 -0.1629  0.0954
   65MOL   C23515723   2.577   5.305   2.968 -0.1632  0.2757  0.3121
   65MOL   H23615724   2.156   5.417   3.264 -0.1636 -0.4067 -1.2117
   65MOL   H23715725   2.273   5.459   3.164  1.4845 -0.7109 -2.3007
   65MOL   H23815726   2.206   5.219   3.099  0.1103 -3.5899  0.6072
   65MOL   H23915727   2.644   5.297   3.053 -1.1763 -0.7310  1.0414
   65MOL   H24015728   2.586   5.403   2.921 -1.7223  0.4175  0.2783
   65MOL   H24115729   2.610   5.228   2.899  2.7218  0.3482  1.5434
   65MOL   H24215730   2.253   5.159   3.251  0.4262 -1.0378 -1.3553
   66MOL     C115731   6.710   3.889   1.214  0.4402  0.0876 -0.2737
   66MOL     C215732   6.732   3.777   1.106  0.4257  0.3445  0.6718
   66MOL     C315733   6.618   3.695   1.060  0.0733 -0.2535 -0.0440
   66MOL     O415734   6.513   3.699   1.129  0.3138 -0.2874 -0.0605
   66MOL     O515735   6.638   3.618   0.957  0.5074 -0.3008 -0.3090
   66MOL     C615736   6.533   3.541   0.899 -0.8050 -0.0846  0.3420
   66MOL     H715737   6.618   3.941   1.185  0.9227  0.2763 -1.4839
   66MOL     H815738   6.798   3.953   1.218  1.9800 -1.8631 -1.7793
   66MOL     H915739   6.802   3.710   1.156  0.3450  0.7194  1.2995
   66MOL    H1015740   6.554   3.500   0.800  1.6427 -0.5793  1.0230
   66MOL    H1115741   6.438   3.593   0.889  0.1518  1.4803 -0.9715
   66MOL    H1215742   6.522   3.457   0.966  2.7711 -1.9890 -1.2688
   66MOL    H1315743   6.696   3.842   1.311 -1.1209  0.2098 -0.4186
   66MOL    C1415744   6.814   3.845   0.985 -0.5361  0.2546  0.1247
   66MOL    C1515745   6.732   3.949   0.907  0.1420  0.0263 -0.1133
   66MOL    C1615746   6.756   4.092   0.951 -0.0172  0.0621 -0.0394
   66MOL    O1715747   6.683   4.163   1.016 -0.1920 -0.4639  0.1320
   66MOL    O1815748   6.889   4.129   0.914 -0.0392  0.3089  0.4188
   66MOL    C1915749   6.950   4.250   0.944  0.1688  0.2064 -0.5030
   66MOL    H2015750   6.907   3.890   1.020 -0.1119 -0.5894  0.0975
   66MOL    H2115751   6.843   3.764   0.918  1.9430 -0.9688  2.5798
   66MOL    H2215752   6.624   3.942   0.920  0.1198  0.5841  0.0193
   66MOL    H2315753   7.002   4.271   0.850  0.7727 -1.8591 -0.6597
   66MOL    H2415754   7.004   4.253   1.039 -1.0463  1.7849  0.1476
   66MOL    H2515755   6.871   4.324   0.957 -0.1361 -0.4045  1.1717
   66MOL    C2615756   6.751   3.937   0.756  0.4650  0.1237 -0.4489
   66MOL    C2715757   6.656   3.835   0.679  0.2013 -0.5909  0.5563
   66MOL    C2815758   6.507   3.869   0.694  0.5072 -0.2567 -0.1872
   66MOL    O2915759   6.430   3.784   0.739 -0.1672 -0.0334 -0.0235
   66MOL    O3015760   6.469   3.994   0.651  0.8176 -0.0928 -0.3187
   66MOL    C3115761   6.336   4.036   0.652  0.1972  0.1461  0.6108
   66MOL    H3215762   6.764   4.035   0.708  0.1044  1.3426  1.8993
   66MOL    H3315763   6.857   3.914   0.743  0.8232  2.2936 -1.6929
   66MOL    H3415764   6.671   3.740   0.731 -0.9953 -1.1534 -0.1025
   66MOL    H3515765   6.333   4.124   0.588  1.7012  0.2110  0.6225
   66MOL    H3615766   6.309   4.057   0.756  2.4152 -0.0261  1.2436
   66MOL    H3715767   6.265   3.966   0.609  1.6707  0.2183 -1.9935
   66MOL    C3815768   6.691   3.800   0.532  0.0032 -0.0791 -0.2484
   66MOL    C3915769   6.678   3.654   0.485 -0.5101  0.1581 -0.4621
   66MOL    C4015770   6.544   3.584   0.515 -0.3793 -0.0145  0.4841
   66MOL    O4115771   6.536   3.475   0.567  0.0852 -0.0378 -0.3642
   66MOL    O4215772   6.443   3.648   0.464 -0.4648  0.3504 -0.3769
   66MOL    C4315773   6.317   3.609   0.501  0.3250  0.1557 -0.7205
   66MOL    H4415774   6.627   3.856   0.464 -0.9946 -0.6605  0.1893
   66MOL    H4515775   6.792   3.836   0.514 -0.2512  1.0282  0.4905
   66MOL    H4615776   6.755   3.593   0.533  1.2154  1.6853 -1.2236
   66MOL    H4715777   6.266   3.695   0.544 -1.3920 -0.1984 -2.0255
   66MOL    H4815778   6.309   3.522   0.566 -0.9354  0.0048 -1.0743
   66MOL    H4915779   6.264   3.567   0.416 -2.1056 -1.8113  1.6678
   66MOL    C5015780   6.706   3.640   0.335 -0.3984  0.5596  0.8001
   66MOL    C5115781   6.628   3.712   0.225  0.3404 -0.2562 -0.5570
   66MOL    C5215782   6.718   3.828   0.170  0.4468 -0.3154 -0.5344
   66MOL    O5315783   6.715   3.946   0.210  0.3961  0.3489  0.5133
   66MOL    O5415784   6.808   3.778   0.087 -0.2293  0.4528 -0.2931
   66MOL    C5515785   6.886   3.868   0.014 -0.5188  0.1501  0.4284
   66MOL    H5615786   6.812   3.654   0.314 -0.5641  0.3302 -0.2420
   66MOL    H5715787   6.707   3.532   0.319  1.1326  0.3475  2.1857
   66MOL    H5815788   6.548   3.770   0.271 -0.1522 -0.6440 -0.9218
   66MOL    H5915789   6.959   3.914   0.081 -1.2902  1.8605  0.1072
   66MOL    H6015790   6.819   3.944   7.907  0.9859 -0.1012 -2.6913
   66MOL    H6115791   6.925   3.806   7.867 -2.0909 -0.0083 -0.2355
   66MOL    C6215792   6.564   3.618   0.118 -0.4177  0.1002 -0.1116
   66MOL    C6315793   6.494   3.700   0.013 -0.6037 -0.4732  0.1977
   66MOL    C6415794   6.560   3.671   7.809  0.0072  0.0216 -0.0439
   66MOL    O6515795   6.634   3.749   7.748  0.0299  0.2115  0.2035
   66MOL    O6615796   6.547   3.547   7.775 -0.1853  0.2600  0.1661
   66MOL    C6715797   6.609   3.498   7.661  0.1978 -0.2209  0.5929
   66MOL    H6815798   6.646   3.557   0.081 -0.5867 -0.8422  1.0416
   66MOL    H6915799   6.493   3.549   0.163  0.1663 -0.6134 -0.2790
   66MOL    H7015800   6.494   3.806   0.039  1.2452 -0.6987  1.2181
   66MOL    H7115801   6.650   3.401   7.689  1.3555  0.2370  0.5378
   66MOL    H7215802   6.691   3.563   7.629 -0.5194  0.5614  0.3529
   66MOL    H7315803   6.536   3.495   7.580  0.7770 -0.4045  0.0704
   66MOL    C7415804   6.339   3.672   0.003 -0.0948  0.2969 -0.2213
   66MOL    C7515805   6.249   3.728   0.107  0.6143  0.6916 -0.4456
   66MOL    C7615806   6.248   3.880   0.099  0.1388  0.3284 -1.6657
   66MOL    O7715807   6.162   3.937   0.037  0.1173  0.0909 -0.1084
   66MOL    O7815808   6.361   3.939   0.157  0.3195  0.2323  0.3835
   66MOL    C7915809   6.380   4.082   0.159  0.1733 -0.5425 -0.7727
   66MOL    H8015810   6.302   3.709   7.840 -1.8612  0.6546  0.5865
   66MOL    H8115811   6.327   3.564   7.931 -1.0332  0.3146  1.4976
   66MOL    H8215812   6.282   3.706   0.208 -3.1308 -1.6630  0.3379
   66MOL    H8315813   6.428   4.112   0.066  1.1045  1.2567  0.2632
   66MOL    H8415814   6.460   4.102   0.230  0.3490  1.5713 -1.5293
   66MOL    H8515815   6.289   4.142   0.170 -0.0032 -1.0694  0.7977
   66MOL    C8615816   6.100   3.673   0.078 -0.7493 -0.3425 -0.3231
   66MOL    C8715817   5.984   3.732   0.163  1.1013  0.2526 -0.0520
   66MOL    C8815818   5.849   3.680   0.115  0.5403 -0.4563 -0.1114
   66MOL    O8915819   5.848   3.576   0.046  0.1857  0.5633 -0.4832
   66MOL    O9015820   5.745   3.746   0.171 -0.5025  0.0591 -0.6625
   66MOL    C9115821   5.622   3.681   0.194 -0.0413 -0.2115  0.4552
   66MOL    H9215822   6.082   3.707   7.909  2.9112  1.6448 -0.3806
   66MOL    H9315823   6.098   3.564   0.082 -0.9111 -0.3161  0.3793
   66MOL    H9415824   5.979   3.840   0.151 -0.8193  0.1398 -0.4434
   66MOL    H9515825   5.577   3.672   0.095  0.6435 -3.1497  0.3697
   66MOL    H9615826   5.555   3.741   0.256  1.4372  0.9686  0.9448
   66MOL    H9715827   5.637   3.577   0.223 -0.0438 -0.8840 -1.8747
   66MOL    C9815828   5.997   3.723   0.314  0.8192  0.5378 -0.1475
   66MOL    C9915829   5.942   3.825   0.412 -0.0750 -0.4095  0.3000
   66MOL   C10015830   5.915   3.755   0.543  0.1787 -0.5125  1.1860
   66MOL   O10115831   5.803   3.726   0.577 -0.0364  0.5294  0.4358
   66MOL   O10215832   6.022   3.742   0.621 -0.1814  0.4995 -0.4181
   66MOL   C10315833   6.010   3.665   0.734 -1.0403  0.1099  0.3753
   66MOL   H10415834   5.984   3.618   0.341  0.1181  0.5066 -0.5922
   66MOL   H10515835   6.104   3.738   0.326  0.6912  0.8610  0.6605
   66MOL   H10615836   5.841   3.841   0.373 -1.0491 -0.7624  2.5838
   66MOL   H10715837   6.108   3.659   0.783 -1.3990 -2.9532  0.7874
   66MOL   H10815838   5.982   3.561   0.715  1.1074 -0.4420  0.0701
   66MOL   H10915839   5.930   3.698   0.800 -0.6431  2.7214 -0.3946
   66MOL   C11015840   6.022   3.958   0.415  0.5705  0.1153  0.0337
   66MOL   C11115841   5.963   4.069   0.503  0.2490 -0.1348  0.7576
   66MOL   C11215842   6.057   4.182   0.512 -0.2134  0.0156 -0.1210
   66MOL   O11315843   6.116   4.223   0.414 -0.2352  0.3564  0.2416
   66MOL   O11415844   6.077   4.232   0.639 -0.2551  0.1870 -0.3818
   66MOL   C11515845   6.159   4.345   0.663  0.2948  1.2218  0.6337
   66MOL   H11615846   6.123   3.930   0.446  1.1272  3.2219  1.2268
   66MOL   H11715847   6.031   4.000   0.315 -0.0227 -1.7898 -0.8466
   66MOL   H11815848   5.955   4.022   0.601  0.1503 -2.1623 -0.1917
   66MOL   H11915849   6.265   4.322   0.649 -0.2413 -0.4295 -0.7351
   66MOL   H12015850   6.145   4.371   0.768  0.1772  0.9476  0.6863
   66MOL   H12115851   6.131   4.436   0.610 -1.2376  1.0196  1.0780
   66MOL   C12215852   5.819   4.116   0.460  0.2492  0.5601  0.3890
   66MOL   C12315853   5.794   4.162   0.314  0.1462  0.1393 -1.1584
   66MOL   C12415854   5.661   4.106   0.256  0.0469 -0.3203 -0.0240
   66MOL   O12515855   5.661   4.034   0.161  0.1456  0.6326  0.0742
   66MOL   O12615856   5.553   4.147   0.326 -0.0680  0.3426  0.3159
   66MOL   C12715857   5.422   4.101   0.294 -0.0182  0.2105 -0.6823
   66MOL   H12815858   5.760   4.028   0.487  2.4538 -1.5242 -1.3507
   66MOL   H12915859   5.787   4.189   0.535 -0.9619  0.8692 -0.3972
   66MOL   H13015860   5.864   4.102   0.257 -0.1585 -1.6675  0.2947
   66MOL   H13115861   5.409   4.100   0.186 -1.7468  1.8814 -0.4949
   66MOL   H13215862   5.350   4.163   0.347  0.1968  0.0603 -0.2142
   66MOL   H13315863   5.412   3.995   0.319 -0.5065  0.7632  1.5806
   66MOL   C13415864   5.801   4.318   0.293  0.0678  0.0935  0.1160
   66MOL   C13515865   5.905   4.376   0.197  0.0355  0.0816 -0.3786
   66MOL   C13615866   5.883   4.329   0.047  0.5684  0.5481  0.0727
   66MOL   O13715867   5.860   4.418   7.889 -0.1952 -0.2573  0.8755
   66MOL   O13815868   5.889   4.191   0.022 -0.0597 -0.0093  0.4506
   66MOL   C13915869   5.887   4.154   7.817  0.7804 -0.3299  0.3723
   66MOL   H14015870   5.701   4.358   0.278 -0.0487  0.1265  0.9539
   66MOL   H14115871   5.825   4.359   0.391 -0.7473 -0.2161  0.4573
   66MOL   H14215872   6.007   4.347   0.225  0.4340  2.2563  0.5036
   66MOL   H14315873   5.961   4.199   7.752  2.2113 -0.7244  1.6839
   66MOL   H14415874   5.785   4.181   7.793  0.8116 -2.4784 -2.4128
   66MOL   H14515875   5.891   4.048   7.792  0.6018 -0.5987  1.4219
   66MOL   C14615876   5.906   4.530   0.215 -0.4506 -0.2555 -0.2115
   66MOL   C14715877   5.952   4.589   0.352 -0.6919 -0.5675 -0.5995
   66MOL   C14815878   6.107   4.595   0.369 -1.1690 -0.9766 -0.5574
   66MOL   O14915879   6.169   4.674   0.437 -0.3187  0.0984  0.2077
   66MOL   O15015880   6.169   4.502   0.304  0.4826 -0.4996 -0.2180
   66MOL   C15115881   6.310   4.499   0.295 -0.2460 -0.1217 -0.1474
   66MOL   H15215882   5.962   4.575   0.132 -0.0874  0.6405  0.5179
   66MOL   H15315883   5.806   4.565   0.190 -0.3736 -1.9205 -3.1031
   66MOL   H15415884   5.909   4.529   0.432 -0.1450 -2.3963 -1.6328
   66MOL   H15515885   6.353   4.447   0.380  0.4837  0.5324 -0.1042
   66MOL   H15615886   6.342   4.603   0.299 -2.9403  0.7868 -1.2715
   66MOL   H15715887   6.343   4.444   0.207  3.3017 -0.8725  1.5780
   66MOL   C15815888   5.884   4.729   0.366  0.1632 -0.3950 -0.3704
   66MOL   C15915889   5.738   4.725   0.422 -0.7044 -0.4583 -0.5176
   66MOL   C16015890   5.632   4.709   0.314 -0.2397  0.0732 -0.0330
   66MOL   O16115891   5.596   4.806   0.248 -0.0381 -0.4247  0.0147
   66MOL   O16215892   5.595   4.584   0.306  0.1295  1.0180  0.5100
   66MOL   C16315893   5.517   4.545   0.200 -0.6056 -0.1590 -0.5706
   66MOL   H16415894   5.952   4.789   0.426 -0.8424 -0.5339  0.9236
   66MOL   H16515895   5.876   4.784   0.272 -0.7154  1.0747  0.5446
   66MOL   H16615896   5.724   4.830   0.449  1.0134 -0.5740  0.9125
   66MOL   H16715897   5.455   4.627   0.165  0.7681  1.2327  0.2078
   66MOL   H16815898   5.457   4.458   0.226 -0.5758 -0.6066 -1.9611
   66MOL   H16915899   5.581   4.513   0.118  2.4343  0.4255  1.4820
   66MOL   C17015900   5.707   4.640   0.548  0.0126 -0.0448  0.0570
   66MOL   C17115901   5.786   4.679   0.675 -0.0559 -0.6680 -0.0486
   66MOL   C17215902   5.750   4.826   0.714  0.2440  0.1162 -0.2049
   66MOL   O17315903   5.656   4.852   0.791 -0.4749 -0.8856 -0.5447
   66MOL   O17415904   5.833   4.915   0.643  0.1299 -0.3641 -0.2874
   66MOL   C17515905   5.812   5.057   0.659 -0.1946 -0.3244  0.3628
   66MOL   H17615906   5.605   4.669   0.575 -0.7161 -1.2055 -1.3762
   66MOL   H17715907   5.714   4.534   0.524 -1.1601 -0.4739  1.4875
   66MOL   H17815908   5.893   4.677   0.653  0.1876  1.8321  0.7240
   66MOL   H17915909   5.810   5.098   0.558 -0.5044 -1.6454 -0.1843
   66MOL   H18015910   5.900   5.104   0.703 -0.6252 -0.7343  1.6785
   66MOL   H18115911   5.720   5.077   0.713 -1.2550 -0.3571 -1.4008
   66MOL   C18215912   5.738   4.585   0.788 -0.1405  0.8525 -0.3169
   66MOL   C18315913   5.835   4.586   0.909 -0.0814 -0.4727  0.0739
   66MOL   C18415914   5.762   4.524   1.032 -0.7244 -0.0339  0.2112
   66MOL   O18515915   5.783   4.411   1.071 -1.0371  0.5270 -0.0275
   66MOL   O18615916   5.672   4.606   1.077 -0.6254  0.4109 -0.6035
   66MOL   C18715917   5.603   4.585   1.200  0.0549  0.5044  0.1269
   66MOL   H18815918   5.634   4.614   0.803 -0.5698  0.2982 -2.1209
   66MOL   H18915919   5.738   4.482   0.754  3.2264  0.6750  0.0674
   66MOL   H19015920   5.851   4.686   0.948  0.3026  0.2841 -1.9827
   66MOL   H19115921   5.673   4.526   1.258 -1.0712  0.4536  1.4585
   66MOL   H19215922   5.511   4.534   1.171  1.0545 -1.5919  0.5791
   66MOL   H19315923   5.585   4.686   1.238  2.9748  1.1118 -0.0082
   66MOL   C19415924   5.973   4.514   0.882 -0.0328  0.0499 -0.8901
   66MOL   C19515925   6.088   4.583   0.954 -0.1843  0.0862  0.7470
   66MOL   C19615926   6.104   4.727   0.908  0.7033 -0.1887 -0.2605
   66MOL   O19715927   6.065   4.815   0.978 -0.2653 -0.0280 -0.3684
   66MOL   O19815928   6.164   4.737   0.786 -0.1268 -0.2240 -0.4400
   66MOL   C19915929   6.195   4.856   0.734 -0.3509 -0.0386 -0.6774
   66MOL   H20015930   5.972   4.409   0.909  2.5970  0.8365  2.7057
   66MOL   H20115931   6.001   4.527   0.777  1.2002  0.2263 -0.5435
   66MOL   H20215932   6.171   4.524   0.915 -1.2239 -0.3368 -0.8476
   66MOL   H20315933   6.116   4.930   0.748  0.9347  1.4912 -1.2586
   66MOL   H20415934   6.205   4.845   0.626  0.3621  1.6830 -0.8088
   66MOL   H20515935   6.290   4.887   0.777 -1.5485 -0.5265  2.4203
   66MOL   C20615936   6.089   4.549   1.110  0.2122  0.8207  0.1704
   66MOL   C20715937   6.210   4.537   1.190  0.2534 -0.4758 -0.2587
   66MOL   C20815938   6.298   4.418   1.161 -0.5470  0.6416  0.3532
   66MOL   O20915939   6.333   4.349   1.251 -0.2371 -1.1756  0.0542
   66MOL   O21015940   6.324   4.399   1.024  0.6000  0.0132  0.1278
   66MOL   C21115941   6.423   4.304   0.992 -0.5298 -0.1021  0.4463
   66MOL   H21215942   6.018   4.614   1.160  0.7000  0.9145  0.7496
   66MOL   H21315943   6.038   4.453   1.122  0.1016  0.8145 -0.3234
   66MOL   H21415944   6.167   4.522   1.289  1.4712  0.0972  0.3657
   66MOL   H21515945   6.435   4.303   0.884 -0.7271 -0.7276  0.4277
   66MOL   H21615946   6.405   4.203   1.029 -1.6285 -0.7689 -1.7988
   66MOL   H21715947   6.521   4.330   1.031 -1.2356  0.2464  2.0584
   66MOL   C21815948   6.294   4.667   1.195  0.0381  0.1666  0.2647
   66MOL   C21915949   6.424   4.667   1.291  0.2639 -0.4951 -0.2027
   66MOL   C22015950   6.498   4.797   1.271  0.6837 -0.5202 -0.2280
   66MOL   O22115951   6.616   4.794   1.231  0.3471 -0.1902 -0.2440
   66MOL   O22215952   6.419   4.905   1.294  0.3114 -0.2064 -0.1210
   66MOL   C22315953   6.460   5.041   1.262  0.1466 -0.6178 -0.2683
   66MOL   H22415954   6.325   4.687   1.093 -0.8273 -1.8392 -0.4115
   66MOL   H22515955   6.229   4.752   1.219  0.7177  0.8132 -0.1476
   66MOL   H22615956   6.501   4.596   1.260 -0.0461 -0.8435 -0.1757
   66MOL   H22715957   6.486   5.050   1.157 -1.2209 -0.1401 -0.5707
   66MOL   H22815958   6.547   5.072   1.320  0.4531 -1.1751 -0.4262
   66MOL   H22915959   6.372   5.104   1.272 -0.9186 -2.1167 -0.0498
   66MOL   C23015960   6.389   4.651   1.450 -0.7277 -0.1114 -0.4917
   66MOL   C23115961   6.527   4.618   1.521  0.7432  0.3307  0.3161
   66MOL   C23215962   6.505   4.632   1.673  0.6857 -0.6747 -0.1352
   66MOL   O23315963   6.417   4.702   1.726 -0.4083 -0.1842  0.2347
   66MOL   O23415964   6.592   4.556   1.741  0.7291 -0.4870 -0.2093
   66MOL   C23515965   6.598   4.573   1.883  0.3914  0.4435  0.1775
   66MOL   H23615966   6.354   4.747   1.488  0.5991  0.1251  0.1468
   66MOL   H23715967   6.316   4.572   1.469 -1.5780  0.6087 -0.7142
   66MOL   H23815968   6.605   4.686   1.488  0.5649 -0.2838 -1.3841
   66MOL   H23915969   6.672   4.647   1.913  1.2206  0.1937 -1.2153
   66MOL   H24015970   6.616   4.491   1.952 -0.1140 -1.4170 -1.8214
   66MOL   H24115971   6.506   4.615   1.923  0.6592 -1.0607  2.4788
   66MOL   H24215972   6.569   4.524   1.487 -0.4651  0.2767 -1.0700
   67MOL     C115973   2.561   5.426   5.031  0.2755 -0.5099 -0.0896
   67MOL     C215974   2.678   5.372   5.110 -0.1042 -0.2892 -0.6356
   67MOL     C315975   2.712   5.232   5.054 -0.0658 -0.4778  0.1581
   67MOL     O415976   2.650   5.187   4.962 -0.0317 -0.2260 -0.4541
   67MOL     O515977   2.795   5.155   5.126 -0.8268 -0.4235 -0.4165
   67MOL     C615978   2.824   5.016   5.097  0.1537 -0.5230 -0.1558
   67MOL     H715979   2.471   5.365   5.027  0.2151 -0.4033 -0.4221
   67MOL     H815980   2.590   5.456   4.930 -0.9263 -2.3474 -1.0010
   67MOL     H915981   2.644   5.367   5.213  1.4907 -0.3995 -0.0973
   67MOL    H1015982   2.889   4.977   5.175  0.4691  1.8182  0.7921
   67MOL    H1115983   2.869   5.003   4.999  0.1991 -0.4401 -0.1453
   67MOL    H1215984   2.735   4.953   5.104  0.2774 -0.5478  1.6460
   67MOL    H1315985   2.540   5.525   5.072 -0.8052 -0.2538 -1.2389
   67MOL    C1415986   2.803   5.457   5.115  0.6352  0.1938 -0.0458
   67MOL    C1515987   2.796   5.556   5.238  0.3032  0.3954  0.0464
   67MOL    C1615988   2.803   5.477   5.368 -0.1995 -0.0708  0.0771
   67MOL    O1715989   2.719   5.471   5.455  0.1627 -0.4872  0.5870
   67MOL    O1815990   2.922   5.417   5.379 -0.2357 -0.1712 -0.3303
   67MOL    C1915991   2.943   5.309   5.469 -0.3479  0.6095 -0.0408
   67MOL    H2015992   2.893   5.395   5.113  0.8779  0.5618 -1.7673
   67MOL    H2115993   2.802   5.514   5.022 -1.6053 -0.6743 -0.5977
   67MOL    H2215994   2.699   5.606   5.228  0.4743  0.6044 -0.5527
   67MOL    H2315995   3.031   5.256   5.433 -0.9685  0.1090 -0.8463
   67MOL    H2415996   2.857   5.242   5.461 -0.4884  1.0275 -2.3793
   67MOL    H2515997   2.936   5.347   5.571  1.2701  1.4660 -0.2404
   67MOL    C2615998   2.899   5.665   5.234  0.2270 -0.2490 -0.0289
   67MOL    C2715999   2.860   5.790   5.318 -0.6454  0.0763 -0.1896
   67MOL    C2816000   2.983   5.887   5.323  0.5290  0.2617 -0.6247
   67MOL    O2916001   2.993   5.976   5.245 -0.5047 -0.1868  0.6841
   67MOL    O3016002   3.075   5.841   5.417  0.5865  0.0405 -0.0278
   67MOL    C3116003   3.192   5.921   5.430  0.0912  0.6528 -0.5916
   67MOL    H3216004   2.997   5.626   5.261  0.0052 -0.8035 -0.0358
   67MOL    H3316005   2.917   5.691   5.129 -0.2872  1.0424  0.1893
   67MOL    H3416006   2.833   5.757   5.419  0.0490 -2.2970 -0.7505
   67MOL    H3516007   3.164   6.024   5.455 -4.3637 -0.8218  0.9728
   67MOL    H3616008   3.248   5.915   5.336 -1.3760  1.4242 -1.5250
   67MOL    H3716009   3.258   5.876   5.504 -1.0121  0.2384  0.1542
   67MOL    C3816010   2.731   5.861   5.255  0.3891 -0.4697 -0.4906
   67MOL    C3916011   2.612   5.877   5.342  1.1686 -0.5755 -0.0349
   67MOL    C4016012   2.646   5.905   5.489 -0.1385  0.1506  0.0390
   67MOL    O4116013   2.622   5.825   5.580  0.2838 -0.2256  1.1135
   67MOL    O4216014   2.705   6.022   5.510  0.0123  0.1882  0.7074
   67MOL    C4316015   2.766   6.057   5.627 -0.3476 -0.2144 -0.1612
   67MOL    H4416016   2.757   5.960   5.216 -0.6078 -0.7610 -1.9725
   67MOL    H4516017   2.688   5.811   5.168 -0.2449  0.5209 -0.7632
   67MOL    H4616018   2.560   5.781   5.341  0.1021 -0.0056 -1.3013
   67MOL    H4716019   2.709   6.130   5.684  0.1912 -0.6557  0.9487
   67MOL    H4816020   2.866   6.093   5.605  0.4950 -2.4436 -0.1363
   67MOL    H4916021   2.780   5.970   5.690  0.9104  0.8326  1.0322
   67MOL    C5016022   2.499   5.976   5.290 -0.4077  0.0277  0.7632
   67MOL    C5116023   2.356   5.957   5.346 -0.8197  0.7137  0.1810
   67MOL    C5216024   2.289   6.092   5.356 -0.0096  0.3776 -0.0163
   67MOL    O5316025   2.305   6.186   5.278  0.3857  0.0786 -0.3238
   67MOL    O5416026   2.214   6.105   5.468 -0.4958  0.6290 -0.5615
   67MOL    C5516027   2.137   6.219   5.499  0.0604  0.1179 -1.0183
   67MOL    H5616028   2.535   6.076   5.316  1.5739 -0.5890  0.4898
   67MOL    H5716029   2.499   5.971   5.181  1.2325  1.1327  0.6893
   67MOL    H5816030   2.367   5.919   5.448  0.6058  1.0147  0.1512
   67MOL    H5916031   2.137   6.289   5.415 -1.2432  0.0195 -1.1228
   67MOL    H6016032   2.181   6.270   5.585 -1.4120  0.2012 -0.2861
   67MOL    H6116033   2.037   6.184   5.526  0.1249 -0.8731 -2.0361
   67MOL    C6216034   2.271   5.859   5.265 -0.2192 -0.4661 -0.2548
   67MOL    C6316035   2.162   5.775   5.342 -0.1666  1.1294 -0.4666
   67MOL    C6416036   2.213   5.705   5.471 -0.0898  1.0889  0.7417
   67MOL    O6516037   2.154   5.714   5.579  0.1126  0.3542 -0.0330
   67MOL    O6616038   2.310   5.624   5.444  0.0217 -0.0849 -0.1526
   67MOL    C6716039   2.394   5.572   5.549 -0.1708 -0.7625 -0.3704
   67MOL    H6816040   2.232   5.920   5.183 -2.3078  3.2325  3.3031
   67MOL    H6916041   2.335   5.789   5.211 -0.3931 -0.1120 -0.9244
   67MOL    H7016042   2.147   5.692   5.272 -2.5053  1.2443 -0.1492
   67MOL    H7116043   2.461   5.501   5.500  1.1708  0.3865 -0.2564
   67MOL    H7216044   2.326   5.521   5.617 -0.9256  0.0492 -0.5017
   67MOL    H7316045   2.448   5.658   5.591 -0.5564 -0.7109  0.0253
   67MOL    C7416046   2.028   5.848   5.350 -0.5737 -0.0810  0.2476
   67MOL    C7516047   1.904   5.759   5.347  0.5475  0.5438  0.5667
   67MOL    C7616048   1.775   5.842   5.377 -0.0368 -0.1262 -0.6024
   67MOL    O7716049   1.676   5.793   5.435  0.3442  0.4499 -0.3566
   67MOL    O7816050   1.786   5.963   5.318 -0.5056  0.3961 -0.2527
   67MOL    C7916051   1.690   6.061   5.338 -0.6529 -0.3637  0.4157
   67MOL    H8016052   2.027   5.910   5.440  0.0579 -0.4276  0.4920
   67MOL    H8116053   2.021   5.918   5.267  2.1146  1.0232  0.9238
   67MOL    H8216054   1.908   5.696   5.435 -0.7746  2.8065  2.3158
   67MOL    H8316055   1.642   6.098   5.246  0.5819 -1.3081 -0.6211
   67MOL    H8416056   1.717   6.141   5.406  0.7992  0.7586 -1.4258
   67MOL    H8516057   1.597   6.017   5.375 -0.7035  0.2361  1.0182
   67MOL    C8616058   1.876   5.689   5.206 -0.4987  0.4903 -0.3466
   67MOL    C8716059   1.833   5.538   5.207  0.6681 -0.0999 -0.8095
   67MOL    C8816060   1.937   5.434   5.272 -0.6399 -0.8362  0.7774
   67MOL    O8916061   2.004   5.354   5.201  0.5236  0.5012 -0.3643
   67MOL    O9016062   1.941   5.442   5.404 -0.1654 -0.2153 -0.0658
   67MOL    C9116063   2.030   5.358   5.472  0.6236 -0.9149 -0.2432
   67MOL    H9216064   1.804   5.751   5.153 -0.2531 -0.1674 -1.4495
   67MOL    H9316065   1.964   5.702   5.143  0.2301 -0.7914  0.3758
   67MOL    H9416066   1.829   5.518   5.100 -1.2253 -1.8648 -0.4472
   67MOL    H9516067   2.103   5.416   5.528  0.0846 -0.3355 -0.1306
   67MOL    H9616068   2.073   5.283   5.406  0.9706 -1.6907  0.8697
   67MOL    H9716069   1.972   5.317   5.555 -0.4734  2.7686  0.9388
   67MOL    C9816070   1.689   5.504   5.254  0.1825  0.4341 -0.2128
   67MOL    C9916071   1.637   5.362   5.229 -0.2691  0.4999  0.0047
   67MOL   C10016072   1.508   5.331   5.307 -0.5218 -0.3920 -0.0045
   67MOL   O10116073   1.505   5.238   5.388  0.3758  0.2369  0.0986
   67MOL   O10216074   1.413   5.424   5.278 -0.0242 -0.4873  0.5391
   67MOL   C10316075   1.287   5.421   5.352 -0.2823  0.5887  0.3282
   67MOL   H10416076   1.693   5.517   5.362  0.3024 -0.3824 -0.1129
   67MOL   H10516077   1.635   5.584   5.205 -0.5286 -0.0835 -0.2792
   67MOL   H10616078   1.714   5.292   5.262 -1.0336  0.1073  0.9634
   67MOL   H10716079   1.255   5.317   5.357 -0.9338  0.8485  2.0625
   67MOL   H10816080   1.213   5.486   5.305  2.4883  1.8784 -2.3422
   67MOL   H10916081   1.302   5.462   5.452  0.0338  1.1928  0.0359
   67MOL   C11016082   1.611   5.342   5.080 -0.4617 -0.6426 -0.3495
   67MOL   C11116083   1.550   5.206   5.042  0.1103 -0.0229  0.2376
   67MOL   C11216084   1.428   5.223   4.944  0.0891 -0.5611  0.8005
   67MOL   O11316085   1.427   5.212   4.822 -0.7078 -0.0591  0.2042
   67MOL   O11416086   1.328   5.267   5.009 -0.3356  0.3728 -0.0500
   67MOL   C11516087   1.197   5.274   4.947  0.2447  0.3846 -0.4988
   67MOL   H11616088   1.537   5.413   5.044  1.9148  1.6545 -0.8383
   67MOL   H11716089   1.702   5.357   5.022  0.7915 -1.9986  1.2220
   67MOL   H11816090   1.502   5.146   5.119  2.5065 -0.1318  1.6848
   67MOL   H11916091   1.186   5.299   4.842 -2.9922 -1.1819 -0.6159
   67MOL   H12016092   1.142   5.353   4.999 -0.0795  0.9537 -1.6956
   67MOL   H12116093   1.155   5.174   4.961  0.8917 -0.1655 -2.3029
   67MOL   C12216094   1.652   5.110   4.984 -0.2087  0.1203  1.0340
   67MOL   C12316095   1.773   5.061   5.078  0.9733  0.2494  0.7702
   67MOL   C12416096   1.731   5.021   5.219  0.3724  0.6729  0.1738
   67MOL   O12516097   1.631   4.950   5.235 -0.4501  0.2886 -0.4388
   67MOL   O12616098   1.802   5.070   5.307  0.0165  0.0763 -0.1836
   67MOL   C12716099   1.760   5.059   5.441  0.0834  0.2629 -0.0647
   67MOL   H12816100   1.592   5.021   4.965 -1.9628  1.0644  2.0706
   67MOL   H12916101   1.701   5.154   4.897 -0.0180  0.7353  1.4496
   67MOL   H13016102   1.835   5.150   5.091 -0.0936  0.9829  0.9340
   67MOL   H13116103   1.797   4.960   5.467  2.5825  1.0552 -0.4512
   67MOL   H13216104   1.655   5.086   5.447  0.4466  1.7318 -0.1962
   67MOL   H13316105   1.806   5.130   5.510 -1.5382  0.5759  0.6985
   67MOL   C13416106   1.869   4.956   5.014 -0.1458  0.0004  0.1174
   67MOL   C13516107   2.012   5.002   4.992  0.0782  0.4919  0.1941
   67MOL   C13616108   2.030   5.136   4.912 -0.0244  0.7538 -0.6122
   67MOL   O13716109   1.936   5.212   4.887  0.1073  0.3581  0.5111
   67MOL   O13816110   2.151   5.148   4.871  0.3686 -0.1765  0.0409
   67MOL   C13916111   2.180   5.232   4.757 -0.4592 -0.0741  0.3615
   67MOL   H14016112   1.851   4.866   5.073 -0.1599 -0.3999 -0.4915
   67MOL   H14116113   1.832   4.911   4.922 -1.4502  1.0221  0.1224
   67MOL   H14216114   2.071   4.928   4.939 -0.4103  0.2340  0.0049
   67MOL   H14316115   2.128   5.202   4.666 -0.4322  0.0424  0.3071
   67MOL   H14416116   2.286   5.231   4.733 -0.0158  2.9617  1.8830
   67MOL   H14516117   2.151   5.336   4.775  1.4540  0.4650  0.4150
   67MOL   C14616118   2.096   5.010   5.129  0.5686  0.3563 -0.2943
   67MOL   C14716119   2.113   4.874   5.198  0.6386  0.1245  0.0604
   67MOL   C14816120   2.182   4.774   5.100  0.5123 -0.0234 -0.3397
   67MOL   O14916121   2.302   4.767   5.075  0.2117 -0.4406  0.2758
   67MOL   O15016122   2.084   4.689   5.046 -0.2090 -0.5336 -0.3537
   67MOL   C15116123   2.111   4.613   4.929 -1.3734  0.1214 -0.5388
   67MOL   H15216124   2.189   5.059   5.101 -0.5774  2.0695 -1.1509
   67MOL   H15316125   2.051   5.075   5.204  0.1419 -0.6994  0.3858
   67MOL   H15416126   2.011   4.838   5.213  1.0616 -0.2433  2.3318
   67MOL   H15516127   2.217   4.594   4.918 -1.2970  1.1092 -1.5970
   67MOL   H15616128   2.090   4.660   4.833 -3.4377 -1.9104 -1.1550
   67MOL   H15716129   2.057   4.518   4.939  0.9750 -1.1818  0.0804
   67MOL   C15816130   2.166   4.869   5.343 -0.4184 -0.4589 -0.2924
   67MOL   C15916131   2.315   4.902   5.383 -0.6337 -0.1538 -0.1244
   67MOL   C16016132   2.385   5.034   5.337 -0.3271 -0.7273 -0.9281
   67MOL   O16116133   2.467   5.054   5.248 -0.4035  0.1311  0.3215
   67MOL   O16216134   2.331   5.127   5.414  0.0087  0.0700  0.0347
   67MOL   C16316135   2.354   5.264   5.393  0.2572 -0.5578 -0.4434
   67MOL   H16416136   2.098   4.932   5.402 -0.4204 -0.1150 -0.6613
   67MOL   H16516137   2.149   4.768   5.380  1.6482 -0.5082  0.6115
   67MOL   H16616138   2.366   4.820   5.331  0.1812 -1.9586  3.3657
   67MOL   H16716139   2.299   5.318   5.470 -0.0500  0.2799 -1.2357
   67MOL   H16816140   2.303   5.297   5.302  0.0408  0.1041 -0.0823
   67MOL   H16916141   2.459   5.293   5.402  0.2822 -1.5308  2.9404
   67MOL   C17016142   2.346   4.870   5.536 -0.1920 -0.4713  0.2785
   67MOL   C17116143   2.501   4.836   5.572  0.3004  0.0869 -0.1851
   67MOL   C17216144   2.597   4.964   5.572  0.0368 -0.3079  0.4097
   67MOL   O17316145   2.700   4.964   5.502  0.4180  0.3321  0.7184
   67MOL   O17416146   2.555   5.060   5.653 -0.2618 -0.2342 -0.2014
   67MOL   C17516147   2.631   5.178   5.651 -0.5025  0.5488 -0.3908
   67MOL   H17616148   2.318   4.963   5.585  0.3213  0.9492 -2.0151
   67MOL   H17716149   2.264   4.810   5.577 -0.3802 -0.6218 -0.3072
   67MOL   H17816150   2.544   4.772   5.495 -1.2788 -0.1190 -0.9321
   67MOL   H17916151   2.737   5.156   5.662 -0.5252 -0.1888 -1.5518
   67MOL   H18016152   2.624   5.250   5.732  2.1801  1.4551 -0.9320
   67MOL   H18116153   2.625   5.234   5.557  0.7523  1.0260 -0.1915
   67MOL   C18216154   2.517   4.765   5.701 -0.4407  0.7885 -0.7449
   67MOL   C18316155   2.655   4.685   5.712 -0.4455 -0.6412 -0.5793
   67MOL   C18416156   2.733   4.724   5.843  0.4304  0.4727  0.5080
   67MOL   O18516157   2.738   4.651   5.945  0.4710 -0.3327 -0.0702
   67MOL   O18616158   2.795   4.841   5.826  0.4939 -0.1163 -0.0816
   67MOL   C18716159   2.893   4.890   5.917 -0.4702 -0.1198  0.0881
   67MOL   H18816160   2.511   4.830   5.788  0.9820 -0.5978  0.4311
   67MOL   H18916161   2.431   4.702   5.723  2.1396 -1.9118  2.0935
   67MOL   H19016162   2.718   4.716   5.629  0.7640  1.7043  1.1337
   67MOL   H19116163   2.959   4.960   5.865 -0.9567  3.1343  3.6148
   67MOL   H19216164   2.960   4.812   5.954  3.2542  2.4318 -0.8923
   67MOL   H19316165   2.840   4.940   5.998  0.5141  0.5363  0.3362
   67MOL   C19416166   2.621   4.535   5.696  0.6193 -0.2255 -0.3688
   67MOL   C19516167   2.751   4.447   5.676  0.2591 -0.4315 -0.0957
   67MOL   C19616168   2.719   4.298   5.681 -0.0253 -0.2743  0.2998
   67MOL   O19716169   2.602   4.262   5.688  0.4027  0.4432  0.4011
   67MOL   O19816170   2.834   4.213   5.679 -0.3173  0.0380 -0.3842
   67MOL   C19916171   2.815   4.072   5.659  0.2586 -0.0154  0.5434
   67MOL   H20016172   2.561   4.505   5.782  0.5431  1.2076  0.1020
   67MOL   H20116173   2.559   4.513   5.610  1.2053 -1.7913 -0.4097
   67MOL   H20216174   2.805   4.466   5.768  0.9955  1.3732 -0.8858
   67MOL   H20316175   2.908   4.024   5.630  0.4988 -0.2286  1.6512
   67MOL   H20416176   2.745   4.064   5.576  2.2148 -0.5403 -1.0872
   67MOL   H20516177   2.777   4.017   5.745  2.5159 -1.0579  0.9103
   67MOL   C20616178   2.846   4.481   5.562  0.4807  0.7092 -0.2692
   67MOL   C20716179   2.821   4.428   5.418  0.3393  0.1438 -0.2085
   67MOL   C20816180   2.708   4.505   5.342 -0.8346 -0.4367 -0.4071
   67MOL   O20916181   2.603   4.446   5.302 -0.4663 -0.2121 -0.1483
   67MOL   O21016182   2.739   4.633   5.324  0.4975  0.7300  0.4466
   67MOL   C21116183   2.648   4.718   5.253 -0.4537 -0.3158 -0.5028
   67MOL   H21216184   2.871   4.587   5.554 -0.2540  0.8415 -0.9075
   67MOL   H21316185   2.940   4.441   5.601  0.1077  0.7790  0.7334
   67MOL   H21416186   2.788   4.324   5.414 -1.5537  0.7738 -1.4556
   67MOL   H21516187   2.634   4.807   5.315  1.2962 -0.7622  0.5792
   67MOL   H21616188   2.546   4.684   5.235 -0.4663 -0.0516 -0.9658
   67MOL   H21716189   2.690   4.747   5.156  1.1338 -0.8473  0.0098
   67MOL   C21816190   2.953   4.432   5.344 -0.0921  0.7769  0.1189
   67MOL   C21916191   2.945   4.358   5.208  0.3846 -0.8594 -0.7006
   67MOL   C22016192   3.002   4.451   5.094 -0.2175  0.6497 -0.2306
   67MOL   O22116193   3.115   4.432   5.043  0.2239  0.3612  0.1186
   67MOL   O22216194   2.927   4.553   5.080 -0.0145  0.3299 -0.1437
   67MOL   C22316195   2.983   4.673   5.032 -0.1344 -0.1617  0.8564
   67MOL   H22416196   2.986   4.535   5.333  2.1920  0.1696  1.0034
   67MOL   H22516197   3.026   4.389   5.412 -0.8807  1.3181  1.3168
   67MOL   H22616198   2.842   4.335   5.181 -0.1391  2.2810 -1.5718
   67MOL   H22716199   3.019   4.648   4.932  0.1063  1.1486  0.6029
   67MOL   H22816200   3.070   4.682   5.096 -1.4135  1.0844  2.4692
   67MOL   H22916201   2.925   4.765   5.040 -0.2618  0.0398 -1.8763
   67MOL   C23016202   3.018   4.221   5.222 -0.1313  0.2946 -0.5097
   67MOL   C23116203   2.944   4.127   5.318  0.6101  0.1348 -0.1122
   67MOL   C23216204   2.966   3.975   5.315  0.0481  0.2316 -0.6062
   67MOL   O23316205   3.058   3.929   5.243  0.4976 -0.7871 -0.1224
   67MOL   O23416206   2.893   3.906   5.403 -0.0911 -0.5336  0.1246
   67MOL   C23516207   2.899   3.769   5.405 -0.5761  0.2540 -0.2840
   67MOL   H23616208   3.036   4.164   5.131 -1.1609 -1.0264  0.0946
   67MOL   H23716209   3.118   4.229   5.265 -0.7053 -2.6921  1.5731
   67MOL   H23816210   2.836   4.141   5.314  0.7905  1.5654 -0.2498
   67MOL   H23916211   2.822   3.751   5.480 -1.1436 -2.1704 -1.3841
   67MOL   H24016212   2.999   3.744   5.440 -0.3492 -0.6607 -1.5412
   67MOL   H24116213   2.873   3.713   5.315 -2.1088  0.5598 -0.0536
   67MOL   H24216214   2.975   4.164   5.416 -1.7618 -0.0917  0.7646
   68MOL     C116215   4.010   4.114   2.149 -0.6530  0.4070 -0.1326
   68MOL     C216216   4.096   4.199   2.242  0.4774 -0.2563  0.0573
   68MOL     C316217   4.227   4.135   2.285 -0.1674  0.3240  0.4160
   68MOL     O416218   4.267   4.129   2.403  0.0659 -0.1325 -0.1502
   68MOL     O516219   4.291   4.088   2.178  0.0808 -0.0958  0.1187
   68MOL     C616220   4.403   4.002   2.195 -0.6160 -0.9139  0.3952
   68MOL     H716221   3.909   4.154   2.149 -0.3708  1.2007  2.3450
   68MOL     H816222   4.001   4.014   2.193  1.8282 -0.0933 -0.7154
   68MOL     H916223   4.035   4.212   2.332 -0.8765 -0.5107 -0.7980
   68MOL    H1016224   4.483   4.051   2.251 -1.7338  1.3078  0.0752
   68MOL    H1116225   4.434   3.988   2.091 -0.9957 -3.3359  0.5825
   68MOL    H1216226   4.372   3.903   2.227  0.5130 -2.3794 -2.8220
   68MOL    H1316227   4.056   4.105   2.051  1.6938 -1.5117  1.0866
   68MOL    C1416228   4.114   4.340   2.176  0.2540  0.9498  0.0128
   68MOL    C1516229   4.162   4.451   2.269  0.1933  0.1471  0.2365
   68MOL    C1616230   4.234   4.562   2.192 -0.0688  0.2048 -0.2833
   68MOL    O1716231   4.183   4.615   2.087 -0.3346 -0.2175 -0.1519
   68MOL    O1816232   4.349   4.608   2.258  0.3493  0.0160  0.5213
   68MOL    C1916233   4.413   4.727   2.211 -1.2858  0.1335 -0.3336
   68MOL    H2016234   4.194   4.333   2.102  0.6290 -0.2102  0.5148
   68MOL    H2116235   4.020   4.361   2.125 -0.4628  0.5193  1.1513
   68MOL    H2216236   4.230   4.400   2.337 -0.6935  1.6623  2.3115
   68MOL    H2316237   4.428   4.720   2.104 -2.8755 -2.1834 -0.4462
   68MOL    H2416238   4.500   4.763   2.266  0.2063 -2.6583 -0.7383
   68MOL    H2516239   4.340   4.806   2.231 -2.4079 -1.3938  1.9041
   68MOL    C2616240   4.044   4.509   2.354  0.9103  0.1844 -0.3194
   68MOL    C2716241   4.083   4.553   2.494 -0.1927 -0.3201 -0.5789
   68MOL    C2816242   4.150   4.686   2.504 -0.6979 -0.6618 -0.0881
   68MOL    O2916243   4.269   4.706   2.510  0.3865 -0.0096  0.1034
   68MOL    O3016244   4.057   4.782   2.496 -0.1169  0.0645  0.0052
   68MOL    C3116245   4.100   4.916   2.489 -0.0039 -0.0763  0.5006
   68MOL    H3216246   3.994   4.585   2.294  0.9415 -0.6822 -1.4553
   68MOL    H3316247   3.967   4.433   2.349 -0.1862  1.1773  1.2343
   68MOL    H3416248   4.158   4.478   2.518 -1.6980 -1.4860  0.5697
   68MOL    H3516249   4.096   4.941   2.595 -0.3546 -0.8260  0.6711
   68MOL    H3616250   4.028   4.973   2.431  0.3609 -0.3176 -0.1916
   68MOL    H3716251   4.194   4.946   2.444 -1.3557  2.2670 -0.8558
   68MOL    C3816252   3.971   4.537   2.596 -1.0634  0.7886 -0.3047
   68MOL    C3916253   4.007   4.455   2.726  1.0467 -0.2667 -0.7474
   68MOL    C4016254   4.055   4.319   2.688 -0.7439  0.3447 -0.5488
   68MOL    O4116255   4.174   4.281   2.706 -0.2824 -0.4029 -0.4626
   68MOL    O4216256   3.950   4.234   2.651  0.0080  0.5210 -0.4129
   68MOL    C4316257   3.973   4.103   2.603 -0.2496 -0.2453  0.1122
   68MOL    H4416258   3.927   4.633   2.624 -0.8840  0.4128  1.3552
   68MOL    H4516259   3.890   4.480   2.552  0.7470 -1.2336 -1.1173
   68MOL    H4616260   3.921   4.449   2.792 -0.1579 -0.5214 -2.3124
   68MOL    H4716261   4.063   4.103   2.542  1.2181  0.3239  2.2043
   68MOL    H4816262   3.876   4.077   2.562 -0.0542  1.2883 -1.3823
   68MOL    H4916263   3.992   4.022   2.674 -0.7618 -0.4675  0.0002
   68MOL    C5016264   4.113   4.528   2.812  0.1615  0.5050 -0.0598
   68MOL    C5116265   4.060   4.649   2.892 -0.0493  0.3107 -0.3597
   68MOL    C5216266   4.001   4.603   3.029  0.5870  0.0446  0.1059
   68MOL    O5316267   4.043   4.502   3.083 -0.0467  0.4116  0.6609
   68MOL    O5416268   3.914   4.691   3.085  0.4466 -0.5470 -0.5484
   68MOL    C5516269   3.872   4.657   3.213  0.4513 -0.1232 -0.1053
   68MOL    H5616270   4.165   4.460   2.880 -2.5524 -0.2236  1.3634
   68MOL    H5716271   4.183   4.567   2.739  0.9386 -0.3101  0.2358
   68MOL    H5816272   3.966   4.684   2.849 -0.9283 -3.0541 -1.3733
   68MOL    H5916273   3.822   4.746   3.252  0.1927  0.8120 -2.4242
   68MOL    H6016274   3.952   4.640   3.284 -2.6433  2.3977  4.2204
   68MOL    H6116275   3.806   4.571   3.219 -0.9460  0.8701 -0.8627
   68MOL    C6216276   4.163   4.760   2.913  0.8203 -0.5071 -1.0307
   68MOL    C6316277   4.274   4.746   3.023 -0.6120 -0.0694  0.4943
   68MOL    C6416278   4.400   4.664   2.977  0.6457  0.2355  0.1067
   68MOL    O6516279   4.509   4.716   2.947  0.0154 -0.1486  0.0558
   68MOL    O6616280   4.367   4.535   2.960  0.5309 -0.7378  0.3849
   68MOL    C6716281   4.464   4.450   2.912  0.3610  0.2778 -0.4292
   68MOL    H6816282   4.207   4.778   2.815  0.7620  0.0692 -0.9547
   68MOL    H6916283   4.105   4.847   2.943  1.8880  0.2780 -1.1813
   68MOL    H7016284   4.230   4.697   3.111  0.6690 -0.5483  0.8849
   68MOL    H7116285   4.407   4.371   2.864  0.3111 -0.5889  1.0093
   68MOL    H7216286   4.513   4.414   3.003 -1.7129 -0.1933  0.5529
   68MOL    H7316287   4.526   4.487   2.831 -1.1135  1.3042 -1.1232
   68MOL    C7416288   4.321   4.886   3.063  0.1762  0.7075 -0.9905
   68MOL    C7516289   4.224   4.953   3.165  0.0503  0.2250 -0.2073
   68MOL    C7616290   4.246   4.893   3.305 -0.4927 -0.2692 -0.6393
   68MOL    O7716291   4.341   4.931   3.376 -0.0948 -0.2149  0.1016
   68MOL    O7816292   4.153   4.803   3.343 -0.4216 -0.3381 -0.1512
   68MOL    C7916293   4.173   4.730   3.462  0.1063  0.0168 -0.3418
   68MOL    H8016294   4.414   4.874   3.118 -0.8205  1.5467  0.9161
   68MOL    H8116295   4.337   4.939   2.969  1.8862  1.1808 -0.4525
   68MOL    H8216296   4.121   4.923   3.144 -0.2957  2.5627 -2.0314
   68MOL    H8316297   4.095   4.654   3.472  0.6310 -0.1591  2.8978
   68MOL    H8416298   4.179   4.780   3.559  1.7717 -0.3047 -0.2667
   68MOL    H8516299   4.265   4.672   3.464 -0.8600 -1.5450  0.2620
   68MOL    C8616300   4.241   5.114   3.167 -0.5514 -0.3048 -0.1827
   68MOL    C8716301   4.188   5.192   3.043  0.1169  0.4576  0.0374
   68MOL    C8816302   4.042   5.147   3.017  0.0778 -0.2395 -0.2786
   68MOL    O8916303   3.966   5.125   3.111 -0.1770  0.3951 -0.2447
   68MOL    O9016304   4.019   5.133   2.886  0.4383  0.2860  0.4392
   68MOL    C9116305   3.896   5.076   2.843  0.5961  0.0680  0.4020
   68MOL    H9216306   4.194   5.151   3.258 -1.0680 -2.6468  0.5186
   68MOL    H9316307   4.344   5.146   3.180 -0.6921  0.3102 -0.5158
   68MOL    H9416308   4.253   5.165   2.960 -1.1117 -0.1481 -0.7322
   68MOL    H9516309   3.809   5.136   2.870 -0.7536 -1.4576 -0.4833
   68MOL    H9616310   3.872   4.975   2.875  0.7703 -0.9875 -2.6278
   68MOL    H9716311   3.897   5.075   2.734  1.6335  0.7118  0.3976
   68MOL    C9816312   4.200   5.345   3.065 -0.5383  1.0060  0.2942
   68MOL    C9916313   4.148   5.432   2.949 -0.3193  0.7199 -0.5666
   68MOL   C10016314   4.142   5.576   2.990 -0.0709 -0.1612  0.3361
   68MOL   O10116315   4.040   5.640   2.954 -0.1954  0.3483  0.0972
   68MOL   O10216316   4.251   5.627   3.049 -0.2681 -0.1456 -0.0654
   68MOL   C10316317   4.253   5.765   3.079 -0.1587 -0.3980 -0.5950
   68MOL   H10416318   4.140   5.366   3.154 -1.3589  0.1761 -0.0487
   68MOL   H10516319   4.295   5.379   3.106 -0.2658  2.3911 -1.4430
   68MOL   H10616320   4.045   5.398   2.943  0.1500 -1.5324  2.4852
   68MOL   H10716321   4.168   5.799   3.138 -0.1457  0.9947 -1.3587
   68MOL   H10816322   4.252   5.821   2.986  2.1270 -1.2019 -1.1511
   68MOL   H10916323   4.340   5.802   3.133 -0.3263  0.5341 -0.9584
   68MOL   C11016324   4.217   5.404   2.810 -0.1303 -0.1632  0.4865
   68MOL   C11116325   4.361   5.464   2.804  0.9121 -0.2400  0.7843
   68MOL   C11216326   4.465   5.372   2.870  0.4813  1.1624 -0.8851
   68MOL   O11316327   4.485   5.252   2.845  0.6927  0.1297 -0.6015
   68MOL   O11416328   4.531   5.437   2.972  0.2605 -0.4588  0.1722
   68MOL   C11516329   4.599   5.356   3.069  0.1465 -0.2966 -0.6629
   68MOL   H11616330   4.219   5.298   2.787 -1.7139  0.0011 -0.4987
   68MOL   H11716331   4.161   5.448   2.727  0.0613 -1.5328 -0.3851
   68MOL   H11816332   4.375   5.549   2.870  0.5811 -1.1693  2.0786
   68MOL   H11916333   4.668   5.288   3.020 -0.3002 -0.1500 -1.4892
   68MOL   H12016334   4.532   5.295   3.129  0.4681  1.2919  1.3968
   68MOL   H12116335   4.653   5.413   3.145  0.9943 -1.3771 -0.4557
   68MOL   C12216336   4.397   5.491   2.653 -0.2842 -0.0283 -1.0050
   68MOL   C12316337   4.386   5.370   2.555 -0.3166 -0.5523 -0.1304
   68MOL   C12416338   4.278   5.389   2.459  0.0058  0.2806 -0.3378
   68MOL   O12516339   4.285   5.466   2.362 -0.3040 -0.1371  0.8043
   68MOL   O12616340   4.158   5.326   2.497 -0.3134 -0.1196  0.4176
   68MOL   C12716341   4.045   5.333   2.412  0.0439  0.3840  0.4372
   68MOL   H12816342   4.342   5.579   2.620 -1.6810  0.2605  1.9306
   68MOL   H12916343   4.504   5.514   2.652  0.3041 -2.2728  2.0289
   68MOL   H13016344   4.345   5.284   2.607  1.8052  0.1756  2.9155
   68MOL   H13116345   4.016   5.433   2.380 -1.0108  0.0381  0.2922
   68MOL   H13216346   3.951   5.286   2.441  0.2153  0.3913  1.0071
   68MOL   H13316347   4.069   5.289   2.315 -2.8307  0.1576 -0.2417
   68MOL   C13416348   4.525   5.335   2.496 -0.0916  0.1123 -0.0266
   68MOL   C13516349   4.525   5.222   2.392  0.4438  0.3570 -0.5235
   68MOL   C13616350   4.471   5.090   2.432 -0.7921  0.6847 -0.1957
   68MOL   O13716351   4.423   5.015   2.349  0.4419  0.1831 -0.1418
   68MOL   O13816352   4.485   5.064   2.566  0.1112 -0.7962 -0.2001
   68MOL   C13916353   4.446   4.937   2.615  0.0058 -0.4663 -0.2327
   68MOL   H14016354   4.565   5.425   2.449 -1.3970 -1.9466 -5.3857
   68MOL   H14116355   4.593   5.301   2.573 -2.1122 -1.2626  1.2074
   68MOL   H14216356   4.631   5.204   2.375 -0.1907 -1.0821 -3.3007
   68MOL   H14316357   4.452   4.861   2.537 -1.7931 -0.7221 -0.1524
   68MOL   H14416358   4.344   4.928   2.653 -0.4709  0.3174 -1.3001
   68MOL   H14516359   4.511   4.911   2.698 -1.8405 -1.0710  1.0534
   68MOL   C14616360   4.482   5.255   2.248  0.0949  0.6831 -0.0492
   68MOL   C14716361   4.530   5.387   2.183  0.1363  0.2078  0.0344
   68MOL   C14816362   4.686   5.373   2.158 -0.8958 -0.5006 -0.3952
   68MOL   O14916363   4.767   5.426   2.225 -0.1844 -0.0171  0.1804
   68MOL   O15016364   4.713   5.304   2.050  0.5104  0.7539 -0.1464
   68MOL   C15116365   4.843   5.298   2.001  0.6925  0.0189 -0.4030
   68MOL   H15216366   4.519   5.173   2.187 -1.0039 -0.7631  1.1829
   68MOL   H15316367   4.373   5.245   2.240  0.0514  0.3117  0.9009
   68MOL   H15416368   4.528   5.470   2.254 -1.0331 -0.0195  0.2716
   68MOL   H15516369   4.869   5.396   1.961 -1.8745 -0.1243 -2.5821
   68MOL   H15616370   4.852   5.228   1.917  1.5293  2.6300 -2.5598
   68MOL   H15716371   4.916   5.260   2.072 -1.3199 -3.1022  0.0959
   68MOL   C15816372   4.452   5.436   2.057 -0.0453  0.3401  0.0933
   68MOL   C15916373   4.486   5.580   2.022 -0.4592  0.2740 -0.1467
   68MOL   C16016374   4.520   5.609   1.875  0.5058  0.1353  0.3391
   68MOL   O16116375   4.435   5.661   1.799 -0.5496  0.2022 -0.0846
   68MOL   O16216376   4.638   5.565   1.838 -0.1778  0.0961 -0.1689
   68MOL   C16316377   4.678   5.580   1.706  0.3940 -0.2063 -0.1311
   68MOL   H16416378   4.471   5.375   1.969  2.2964  0.7740  0.2606
   68MOL   H16516379   4.343   5.429   2.057 -0.2597  2.9366 -0.1459
   68MOL   H16616380   4.575   5.607   2.080 -0.8134 -1.1835  1.0869
   68MOL   H16716381   4.616   5.520   1.639 -0.6575 -0.2463  0.8735
   68MOL   H16816382   4.783   5.551   1.699  1.0063  0.8341  3.5546
   68MOL   H16916383   4.668   5.686   1.683  1.1052  0.1475  1.1739
   68MOL   C17016384   4.387   5.680   2.074 -0.4710 -0.0042 -0.1205
   68MOL   C17116385   4.454   5.817   2.116 -0.2776  0.1253  0.9027
   68MOL   C17216386   4.472   5.911   1.999  0.4549 -0.2887  0.4012
   68MOL   O17316387   4.580   5.956   1.972  0.0509  0.4498  0.0228
   68MOL   O17416388   4.363   5.944   1.928  0.0043 -0.1315 -0.9420
   68MOL   C17516389   4.374   6.042   1.828 -0.9097  0.2328  0.4478
   68MOL   H17616390   4.309   5.711   2.005 -0.7467 -2.4567 -0.9636
   68MOL   H17716391   4.316   5.639   2.146 -0.5408  2.6373  1.3565
   68MOL   H17816392   4.552   5.802   2.163  0.9181  2.9149 -0.5783
   68MOL   H17916393   4.440   6.124   1.856  0.3450 -1.0473  1.3343
   68MOL   H18016394   4.286   6.088   1.784 -1.4955 -0.2325  1.1109
   68MOL   H18116395   4.411   5.991   1.739 -1.2038  1.9002 -0.6403
   68MOL   C18216396   4.380   5.883   2.237  0.5080 -0.7727  0.3067
   68MOL   C18316397   4.384   5.804   2.371  0.1182 -0.2504 -0.2416
   68MOL   C18416398   4.530   5.801   2.426  0.6815 -0.5559 -0.4440
   68MOL   O18516399   4.598   5.697   2.436 -0.7794  0.0694  0.5446
   68MOL   O18616400   4.578   5.926   2.437  0.1185  0.3843  0.0944
   68MOL   C18716401   4.717   5.945   2.460 -0.3891 -0.0207  0.2026
   68MOL   H18816402   4.412   5.987   2.248  0.5227 -0.7651  0.1862
   68MOL   H18916403   4.275   5.896   2.211  0.8142 -0.6725 -0.9110
   68MOL   H19016404   4.353   5.703   2.344 -0.8351 -0.4212  1.4499
   68MOL   H19116405   4.750   6.044   2.491  1.2338 -0.6988  0.6975
   68MOL   H19216406   4.753   5.915   2.361  0.2675  2.6166 -0.4065
   68MOL   H19316407   4.769   5.877   2.527 -2.9677 -1.6538  0.6101
   68MOL   C19416408   4.279   5.860   2.481  0.1912  0.2791  0.4659
   68MOL   C19516409   4.136   5.857   2.446 -0.1245  0.2185  0.1930
   68MOL   C19616410   4.051   5.788   2.550  0.2988 -0.1904  0.2480
   68MOL   O19716411   4.014   5.671   2.538  0.5497 -0.0971 -0.1349
   68MOL   O19816412   4.008   5.875   2.650  0.5488 -0.6080  0.0499
   68MOL   C19916413   3.916   5.840   2.738  1.0793 -0.7640 -0.6706
   68MOL   H20016414   4.285   5.802   2.573 -0.6307 -0.7811 -0.1312
   68MOL   H20116415   4.300   5.962   2.513  0.6524  0.6851 -1.0718
   68MOL   H20216416   4.125   5.779   2.372  3.5885  0.6315 -0.9285
   68MOL   H20316417   3.913   5.743   2.788 -1.6601 -0.8209 -0.8646
   68MOL   H20416418   3.816   5.845   2.694  1.0681  1.2012 -0.4544
   68MOL   H20516419   3.923   5.916   2.815  0.3640  0.3865 -1.7190
   68MOL   C20616420   4.086   5.990   2.376  0.7488  0.2012  0.2313
   68MOL   C20716421   3.946   5.955   2.307  0.4012 -0.0299 -0.5254
   68MOL   C20816422   3.865   6.078   2.296 -0.5015  0.3052  0.5060
   68MOL   O20916423   3.757   6.083   2.350  0.2433 -0.5854  0.1455
   68MOL   O21016424   3.929   6.180   2.231 -0.2097 -0.3587 -0.2540
   68MOL   C21116425   3.855   6.300   2.198  0.0262  0.2165  0.1006
   68MOL   H21216426   4.079   6.065   2.454  0.3951  1.0129 -0.5761
   68MOL   H21316427   4.159   6.038   2.311  0.2442 -1.5044 -1.6763
   68MOL   H21416428   3.884   5.891   2.370  0.6787 -0.1306 -0.3557
   68MOL   H21516429   3.839   6.296   2.090  2.7716 -2.4352 -0.2713
   68MOL   H21616430   3.900   6.393   2.233 -1.9490  1.3044 -0.2007
   68MOL   H21716431   3.750   6.293   2.225 -0.6244 -0.4559 -2.4659
   68MOL   C21816432   3.975   5.877   2.168 -0.6633 -0.0311 -0.5177
   68MOL   C21916433   3.863   5.810   2.099  0.6604 -0.2415  0.1983
   68MOL   C22016434   3.759   5.902   2.033  0.7443 -0.1753 -0.0243
   68MOL   O22116435   3.781   5.960   1.925  0.3695 -0.0039  0.4923
   68MOL   O22216436   3.643   5.900   2.096  0.2565  0.1230  0.5236
   68MOL   C22316437   3.539   5.975   2.033  0.1154 -0.3401  0.1364
   68MOL   H22416438   4.022   5.952   2.104 -1.0997 -0.1005 -0.9204
   68MOL   H22516439   4.051   5.801   2.189  0.5468  1.1990 -0.3458
   68MOL   H22616440   3.812   5.763   2.183 -0.2332 -0.2031 -0.3197
   68MOL   H22716441   3.446   5.960   2.088  0.7876  1.2708  1.7317
   68MOL   H22816442   3.529   5.924   1.937  1.5981 -0.5286  0.0667
   68MOL   H22916443   3.557   6.082   2.035 -1.3499 -0.0495 -1.5437
   68MOL   C23016444   3.916   5.707   1.991 -0.2754  0.1329  0.0487
   68MOL   C23116445   3.813   5.616   1.932 -0.2407 -0.1853 -0.6058
   68MOL   C23216446   3.724   5.529   2.034  0.2682 -0.4696 -0.1551
   68MOL   O23316447   3.596   5.524   2.018 -0.0010  0.3810 -0.6330
   68MOL   O23416448   3.791   5.467   2.126 -0.4612  0.0846 -0.4633
   68MOL   C23516449   3.728   5.388   2.227 -0.6703 -0.0368 -0.0652
   68MOL   H23616450   3.962   5.765   1.911  1.3385 -0.5052  0.4865
   68MOL   H23716451   3.993   5.638   2.026 -0.8827 -1.0247 -0.8861
   68MOL   H23816452   3.868   5.539   1.877  1.4523  1.1199 -0.7796
   68MOL   H23916453   3.800   5.363   2.305 -0.6378  1.5259  0.4428
   68MOL   H24016454   3.705   5.289   2.187  0.6201  0.2297 -1.5106
   68MOL   H24116455   3.643   5.432   2.279 -0.0759  1.9921 -0.7378
   68MOL   H24216456   3.745   5.673   1.868  0.0495  1.7745  0.8012
   69MOL     C116457   5.266   2.837   5.101  0.5398  0.0314 -0.3860
   69MOL     C216458   5.241   2.781   5.237  0.1132  0.4869 -0.7255
   69MOL     C316459   5.106   2.709   5.251  0.0849 -0.3157  0.8335
   69MOL     O416460   5.099   2.591   5.287 -0.4875  0.3700  0.0431
   69MOL     O516461   5.012   2.795   5.214  0.1565  0.1774 -0.2115
   69MOL     C616462   4.883   2.756   5.247  0.4590 -0.2056 -0.0200
   69MOL     H716463   5.186   2.889   5.050 -2.7308 -0.1019  4.2464
   69MOL     H816464   5.314   2.768   5.032  0.3607  0.0767 -0.5558
   69MOL     H916465   5.224   2.861   5.309  0.0725 -1.0765  1.0306
   69MOL    H1016466   4.805   2.811   5.193  1.2412  1.9017  0.9430
   69MOL    H1116467   4.864   2.776   5.352  0.7639  0.4030 -0.0790
   69MOL    H1216468   4.855   2.653   5.227 -0.9192  0.6894 -3.1069
   69MOL    H1316469   5.345   2.911   5.115 -0.3870  1.1052 -0.7509
   69MOL    C1416470   5.361   2.693   5.280 -0.7093 -0.0463  0.1698
   69MOL    C1516471   5.495   2.771   5.298 -0.0800  0.9663 -0.2140
   69MOL    C1616472   5.475   2.872   5.418  0.1423 -0.1198  0.2797
   69MOL    O1716473   5.449   2.990   5.399 -0.0108 -0.7197 -0.1858
   69MOL    O1816474   5.474   2.810   5.536  0.2808  0.1128  0.3317
   69MOL    C1916475   5.475   2.895   5.649  0.3634  0.1085 -0.0589
   69MOL    H2016476   5.331   2.645   5.373 -0.0329 -2.7146 -0.9445
   69MOL    H2116477   5.379   2.608   5.214 -2.1617  1.1271 -1.7815
   69MOL    H2216478   5.521   2.827   5.209  1.7905 -0.8009 -0.8268
   69MOL    H2316479   5.499   2.835   5.737  2.5044 -0.3035 -0.8969
   69MOL    H2416480   5.379   2.941   5.673  0.8793  0.5852  1.1295
   69MOL    H2516481   5.548   2.976   5.644  0.5411  0.0503  1.3584
   69MOL    C2616482   5.611   2.679   5.338 -0.3283  0.3232  0.1724
   69MOL    C2716483   5.655   2.566   5.237 -0.6798 -0.4816 -0.5347
   69MOL    C2816484   5.736   2.625   5.116  0.1836  0.5651 -0.5015
   69MOL    O2916485   5.779   2.740   5.110  0.4512  0.1938 -0.2510
   69MOL    O3016486   5.761   2.530   5.029  0.1654  0.5847 -0.0451
   69MOL    C3116487   5.846   2.561   4.919 -0.0701 -0.5594  0.0188
   69MOL    H3216488   5.689   2.739   5.384 -1.3530 -0.1660  2.5833
   69MOL    H3316489   5.573   2.623   5.423 -1.4270  0.5083 -0.1829
   69MOL    H3416490   5.568   2.532   5.180 -2.7513 -0.1786  2.3496
   69MOL    H3516491   5.863   2.467   4.866  0.7858  0.0693 -0.8143
   69MOL    H3616492   5.944   2.603   4.941 -0.1641  0.5864 -1.6791
   69MOL    H3716493   5.794   2.628   4.852  0.4774 -0.4502 -0.2956
   69MOL    C3816494   5.738   2.460   5.313 -0.4963 -0.1923  1.0601
   69MOL    C3916495   5.648   2.362   5.393 -0.1851 -0.0493 -0.4696
   69MOL    C4016496   5.543   2.282   5.313 -0.3587  0.3669 -0.4021
   69MOL    O4116497   5.567   2.225   5.206 -0.2172  0.5308 -0.1585
   69MOL    O4216498   5.420   2.290   5.377  0.3539  0.2599  0.6553
   69MOL    C4316499   5.316   2.225   5.310 -0.0787  0.5832 -0.1380
   69MOL    H4416500   5.804   2.405   5.246  1.0708  2.0012  0.7778
   69MOL    H4516501   5.818   2.511   5.366 -0.3369 -0.4892  1.1055
   69MOL    H4616502   5.603   2.417   5.475 -1.4684 -0.9269 -0.5714
   69MOL    H4716503   5.230   2.239   5.374  1.4155  1.0327  1.8078
   69MOL    H4816504   5.339   2.119   5.296 -0.5296  0.6017 -1.0787
   69MOL    H4916505   5.298   2.270   5.212  2.9224  0.9174 -0.6051
   69MOL    C5016506   5.738   2.263   5.481  0.0009 -0.5514  0.0294
   69MOL    C5116507   5.801   2.315   5.621  0.4179  0.1663 -0.0521
   69MOL    C5216508   5.695   2.361   5.716  0.1131 -0.5319  0.7346
   69MOL    O5316509   5.713   2.468   5.766 -0.3135 -0.3614  0.1846
   69MOL    O5416510   5.601   2.269   5.741 -0.0861 -0.1505  0.1867
   69MOL    C5516511   5.507   2.313   5.839  0.0442  0.6372  0.1019
   69MOL    H5616512   5.680   2.173   5.499 -1.0536  0.2879  0.9019
   69MOL    H5716513   5.819   2.229   5.418 -1.4130 -2.1349 -0.9677
   69MOL    H5816514   5.859   2.405   5.598 -0.6031  1.3064  1.6702
   69MOL    H5916515   5.452   2.403   5.814 -0.6395  0.2254  0.1074
   69MOL    H6016516   5.548   2.338   5.937  3.9717  2.2108 -1.8134
   69MOL    H6116517   5.420   2.248   5.849  0.4808 -0.1903 -1.3886
   69MOL    C6216518   5.900   2.221   5.682  0.5793  0.1735 -0.3046
   69MOL    C6316519   5.984   2.281   5.793  0.4326  0.1634  0.2607
   69MOL    C6416520   6.069   2.163   5.849 -0.0915 -0.7986  0.7865
   69MOL    O6516521   6.180   2.127   5.802  0.3200 -0.3823  0.0840
   69MOL    O6616522   6.010   2.102   5.952 -0.2030  0.2222  0.1467
   69MOL    C6716523   6.068   1.988   6.014  0.6593  0.3060  0.3080
   69MOL    H6816524   5.845   2.130   5.705  1.7555 -0.5489 -0.3006
   69MOL    H6916525   5.971   2.185   5.607  2.0706  0.0051  1.1567
   69MOL    H7016526   5.930   2.306   5.884 -0.5117 -0.1556 -0.2118
   69MOL    H7116527   6.176   2.001   6.012  0.6279  0.7228  1.0569
   69MOL    H7216528   6.057   1.890   5.968 -0.0390  1.6099 -2.4486
   69MOL    H7316529   6.034   1.977   6.117 -1.5585  0.8219 -0.3297
   69MOL    C7416530   6.081   2.398   5.748 -0.1447 -0.5111 -0.4543
   69MOL    C7516531   6.165   2.464   5.852 -0.0061  0.4903 -0.1057
   69MOL    C7616532   6.246   2.579   5.787 -0.1643  0.3472 -0.2090
   69MOL    O7716533   6.227   2.625   5.672  0.2652  0.0006  0.2346
   69MOL    O7816534   6.334   2.624   5.876  0.3960  0.1769  0.2431
   69MOL    C7916535   6.419   2.734   5.856  0.0336  0.2628  0.6427
   69MOL    H8016536   6.134   2.351   5.665  1.4127  0.8023 -0.2076
   69MOL    H8116537   6.031   2.474   5.687 -0.1649 -1.4683 -1.6461
   69MOL    H8216538   6.231   2.381   5.877  0.5523  0.9553 -0.0144
   69MOL    H8316539   6.440   2.778   5.953  1.3053  1.1196 -0.0035
   69MOL    H8416540   6.375   2.806   5.787  0.1575  1.0209  1.3509
   69MOL    H8516541   6.514   2.705   5.810  0.9879 -0.0090  2.7290
   69MOL    C8616542   6.077   2.520   5.964  0.2564  0.0323 -0.6567
   69MOL    C8716543   6.072   2.427   6.094 -0.4811  0.2771 -0.0467
   69MOL    C8816544   6.215   2.406   6.148  0.1880 -0.4366 -0.4311
   69MOL    O8916545   6.270   2.295   6.153  0.2690 -0.1612 -0.1333
   69MOL    O9016546   6.259   2.526   6.198 -0.1536  0.4112  0.0780
   69MOL    C9116547   6.390   2.544   6.254 -0.6155 -0.5974 -0.0037
   69MOL    H9216548   6.108   2.619   5.999  1.5421 -1.4047  2.3642
   69MOL    H9316549   5.982   2.539   5.914 -0.2530 -0.7666 -0.0007
   69MOL    H9416550   6.031   2.332   6.060  1.7442 -0.3830 -0.9543
   69MOL    H9516551   6.392   2.630   6.321 -0.1328  0.4430 -1.3257
   69MOL    H9616552   6.457   2.561   6.170  1.3528  0.8973  1.8168
   69MOL    H9716553   6.407   2.456   6.316  0.7634 -0.7079 -0.5309
   69MOL    C9816554   5.980   2.487   6.202 -0.2476  0.3004  0.4187
   69MOL    C9916555   5.827   2.461   6.174  0.2932  0.1243 -0.7481
   69MOL   C10016556   5.793   2.315   6.173 -0.4359  0.0327 -0.0826
   69MOL   O10116557   5.718   2.271   6.094  0.9178  0.1077  0.3624
   69MOL   O10216558   5.856   2.241   6.260  0.1632  0.5543 -0.0641
   69MOL   C10316559   5.822   2.104   6.286 -0.3653  0.0375 -0.5755
   69MOL   H10416560   6.002   2.434   6.295 -0.6151  1.1829  1.0058
   69MOL   H10516561   6.004   2.593   6.211  0.4758  0.1387  0.4219
   69MOL   H10616562   5.804   2.492   6.071  1.7985 -1.4037 -1.5673
   69MOL   H10716563   5.899   2.053   6.345 -0.8877 -0.7140 -0.5358
   69MOL   H10816564   5.796   2.053   6.192 -1.6555 -0.8969  0.2695
   69MOL   H10916565   5.731   2.098   6.345  1.5993 -0.9347  2.4854
   69MOL   C11016566   5.738   2.538   6.278 -0.2630 -0.0400  0.8782
   69MOL   C11116567   5.584   2.519   6.272 -0.1539  0.4070 -0.3673
   69MOL   C11216568   5.509   2.589   6.388 -0.4199 -0.3277 -0.3251
   69MOL   O11316569   5.562   2.685   6.449  0.2294  0.1286  0.4663
   69MOL   O11416570   5.387   2.541   6.414 -0.0043 -0.2882  0.1939
   69MOL   C11516571   5.316   2.588   6.528  0.3291 -0.5761  0.1699
   69MOL   H11616572   5.773   2.513   6.378  0.7790  1.9850  1.0558
   69MOL   H11716573   5.772   2.642   6.281 -0.5864  0.1604 -1.2786
   69MOL   H11816574   5.573   2.411   6.285  3.0915 -0.0344 -0.8334
   69MOL   H11916575   5.223   2.530   6.530 -0.6221  0.7240 -2.7928
   69MOL   H12016576   5.300   2.696   6.524  0.3978 -0.5922 -0.6754
   69MOL   H12116577   5.369   2.562   6.619 -0.4186  0.2717  0.8548
   69MOL   C12216578   5.526   2.555   6.134 -0.5290  0.6190 -0.0868
   69MOL   C12316579   5.462   2.694   6.109  0.9878 -0.0680 -0.0312
   69MOL   C12416580   5.558   2.808   6.112  0.3622 -0.1744  0.3984
   69MOL   O12516581   5.662   2.812   6.047 -0.4367  0.1696 -0.2956
   69MOL   O12616582   5.504   2.913   6.174 -0.6675  0.0204  0.2651
   69MOL   C12716583   5.558   3.048   6.157 -0.2718 -1.2853 -0.3232
   69MOL   H12816584   5.613   2.548   6.069 -0.0153  1.7605  0.4703
   69MOL   H12916585   5.461   2.474   6.099 -1.8106  1.3817  0.4947
   69MOL   H13016586   5.400   2.709   6.197 -0.5259  0.2902 -1.1437
   69MOL   H13116587   5.652   3.043   6.103  0.4959  1.3641  0.7054
   69MOL   H13216588   5.578   3.094   6.253 -1.8712 -0.4538 -0.3621
   69MOL   H13316589   5.494   3.123   6.110  0.1827 -2.4241 -2.8554
   69MOL   C13416590   5.363   2.705   5.984  0.1892  0.1477 -0.5913
   69MOL   C13516591   5.226   2.613   5.986  0.5543 -0.6003  0.0050
   69MOL   C13616592   5.177   2.591   6.135  0.1558  0.3807  0.0562
   69MOL   O13716593   5.186   2.482   6.190  0.0685 -0.1874 -0.5636
   69MOL   O13816594   5.120   2.698   6.188  0.2354 -0.4271  0.1611
   69MOL   C13916595   5.059   2.702   6.312  0.8441  0.4080  0.4493
   69MOL   H14016596   5.329   2.809   5.978 -1.4233 -0.4050 -1.4052
   69MOL   H14116597   5.423   2.682   5.896  0.9538 -3.3555  0.7903
   69MOL   H14216598   5.238   2.509   5.955 -0.7306 -0.8826  0.4206
   69MOL   H14316599   4.975   2.633   6.322  2.0847 -0.7913  3.1261
   69MOL   H14416600   5.037   2.807   6.327  3.3427  0.9750  0.3287
   69MOL   H14516601   5.140   2.676   6.380  0.7855  1.9720  1.1255
   69MOL   C14616602   5.118   2.685   5.900  0.1266 -1.2487 -0.1704
   69MOL   C14716603   5.160   2.724   5.753  0.1809  0.0901  0.1758
   69MOL   C14816604   5.212   2.592   5.685  0.4298  0.5980 -0.2090
   69MOL   O14916605   5.329   2.569   5.653 -0.1538 -0.2143  0.2754
   69MOL   O15016606   5.113   2.496   5.667 -0.1588  0.2115  0.2767
   69MOL   C15116607   5.153   2.375   5.611  0.0677  0.4069 -0.7953
   69MOL   H15216608   5.028   2.624   5.893 -1.1280  0.6683 -1.1377
   69MOL   H15316609   5.090   2.777   5.949 -0.3862 -0.7461 -1.3822
   69MOL   H15416610   5.242   2.797   5.747 -1.2599  1.5501 -2.6070
   69MOL   H15516611   5.260   2.354   5.607 -0.4336 -2.5269  0.1485
   69MOL   H15616612   5.102   2.376   5.514 -1.3945 -1.4372 -0.0653
   69MOL   H15716613   5.098   2.309   5.678 -0.6724  0.7430 -1.0577
   69MOL   C15816614   5.046   2.779   5.664 -0.5807 -0.0533 -0.6651
   69MOL   C15916615   4.994   2.922   5.702 -0.4620 -0.5482 -0.0464
   69MOL   C16016616   5.107   3.027   5.682  0.2386 -0.7351  0.0536
   69MOL   O16116617   5.163   3.082   5.777  0.0976 -0.4331 -0.2018
   69MOL   O16216618   5.123   3.062   5.552 -0.1812 -0.0062  0.4743
   69MOL   C16316619   5.208   3.167   5.519 -0.5919  0.0232 -0.4384
   69MOL   H16416620   5.081   2.778   5.561 -0.7283 -0.4663 -0.7114
   69MOL   H16516621   4.968   2.703   5.672 -1.7900  1.2929  0.8344
   69MOL   H16616622   4.978   2.930   5.809 -0.5215  0.7687 -0.1527
   69MOL   H16716623   5.231   3.170   5.413  2.2081  0.8195  0.1481
   69MOL   H16816624   5.296   3.153   5.582 -1.6389  1.1361  1.3426
   69MOL   H16916625   5.150   3.255   5.547 -0.5366 -0.4155  1.1301
   69MOL   C17016626   4.857   2.970   5.641  0.1939  0.4883  0.0872
   69MOL   C17116627   4.743   2.866   5.663 -0.2379  0.6285  0.4034
   69MOL   C17216628   4.740   2.798   5.798  0.1793  0.2184  0.1956
   69MOL   O17316629   4.719   2.679   5.802  0.3469 -0.3627 -0.0027
   69MOL   O17416630   4.755   2.884   5.900  0.3313 -0.3294  0.0043
   69MOL   C17516631   4.759   2.825   6.031  0.5321  0.6271  0.3573
   69MOL   H17616632   4.829   3.069   5.679  0.0700  0.6094 -0.3244
   69MOL   H17716633   4.873   2.978   5.534 -0.4362 -0.4932 -0.0925
   69MOL   H17816634   4.767   2.782   5.597  0.9599  0.0477  1.5518
   69MOL   H17916635   4.679   2.752   6.040  0.6707  0.1702 -1.9083
   69MOL   H18016636   4.746   2.904   6.106 -2.9138 -2.1853  2.8944
   69MOL   H18116637   4.848   2.772   6.066 -1.7021 -3.2025  0.4313
   69MOL   C18216638   4.608   2.918   5.616  0.8766  0.1306  0.1276
   69MOL   C18316639   4.503   2.814   5.587 -0.5654  0.0095  0.4536
   69MOL   C18416640   4.433   2.753   5.706  0.1020  0.0492  0.3850
   69MOL   O18516641   4.415   2.818   5.807  0.3373  0.5209 -0.0949
   69MOL   O18616642   4.374   2.638   5.676 -0.4118  0.0335  0.0459
   69MOL   C18716643   4.288   2.578   5.767  0.1247 -0.2732  0.5161
   69MOL   H18816644   4.571   2.986   5.692 -0.5641 -0.9124  0.3738
   69MOL   H18916645   4.620   2.971   5.521  1.0098 -0.5080 -0.2136
   69MOL   H19016646   4.572   2.735   5.556  0.9210  1.7290 -0.6914
   69MOL   H19116647   4.253   2.476   5.748  0.0807  0.0521 -1.2608
   69MOL   H19216648   4.201   2.644   5.770  1.1974  1.1551  0.7155
   69MOL   H19316649   4.320   2.581   5.871  0.0104  0.4572  0.5343
   69MOL   C19416650   4.403   2.859   5.483  0.1201 -0.4257  0.4678
   69MOL   C19516651   4.444   2.852   5.333 -0.1935 -0.1661 -0.5541
   69MOL   C19616652   4.454   2.701   5.288 -0.1464  0.2309 -0.6522
   69MOL   O19716653   4.564   2.646   5.260  0.2887  0.1293 -0.1029
   69MOL   O19816654   4.333   2.642   5.301 -0.3966 -0.2814 -0.1301
   69MOL   C19916655   4.317   2.506   5.266  0.4155  0.7685 -0.2236
   69MOL   H20016656   4.310   2.804   5.500  0.8700 -1.3640  1.5886
   69MOL   H20116657   4.368   2.960   5.503  2.5229  0.4436  0.4008
   69MOL   H20216658   4.543   2.896   5.323  0.1674 -0.9167 -0.2830
   69MOL   H20316659   4.308   2.502   5.157 -0.4133  2.2266 -0.2182
   69MOL   H20416660   4.226   2.462   5.306  0.8013 -1.1154 -1.3493
   69MOL   H20516661   4.397   2.438   5.296 -1.2097 -0.3651  1.6692
   69MOL   C20616662   4.350   2.934   5.236 -0.0296 -0.2398  0.1394
   69MOL   C20716663   4.383   2.944   5.081  1.2521 -0.7671  0.6971
   69MOL   C20816664   4.279   3.031   5.000  1.2351  0.5750 -0.3850
   69MOL   O20916665   4.206   3.114   5.049  0.6942 -0.1506 -0.2495
   69MOL   O21016666   4.296   3.004   4.870 -0.4978  0.5387 -0.1566
   69MOL   C21116667   4.223   3.085   4.778  1.4488 -0.0672  0.0211
   69MOL   H21216668   4.248   2.897   5.247  0.5714 -1.2433  2.5673
   69MOL   H21316669   4.348   3.036   5.275  0.4576 -0.2370  0.1599
   69MOL   H21416670   4.379   2.851   5.024 -1.0174 -1.2015  1.5333
   69MOL   H21516671   4.257   3.061   4.677  0.1465  0.4526 -0.5489
   69MOL   H21616672   4.236   3.192   4.792  0.3957 -0.0057  0.5061
   69MOL   H21716673   4.121   3.048   4.783  1.3560  0.1540 -0.2335
   69MOL   C21816674   4.537   2.988   5.050  0.1403  0.0942  0.0566
   69MOL   C21916675   4.566   3.141   5.065  0.3918  0.1800  0.6809
   69MOL   C22016676   4.616   3.163   5.204 -0.4657 -0.1728 -0.6435
   69MOL   O22116677   4.542   3.210   5.286  0.4260 -0.2042 -0.0435
   69MOL   O22216678   4.741   3.127   5.225 -0.6586 -0.0812 -0.0520
   69MOL   C22316679   4.806   3.153   5.347 -0.0994  0.5830  0.3266
   69MOL   H22416680   4.613   2.931   5.104 -1.1847 -1.6245  0.1378
   69MOL   H22516681   4.549   2.960   4.946 -0.8959 -1.2855  0.3015
   69MOL   H22616682   4.472   3.194   5.052 -0.1487 -1.0547 -0.6236
   69MOL   H22716683   4.891   3.085   5.336 -1.4677 -1.5519  2.2059
   69MOL   H22816684   4.747   3.107   5.427  0.6427 -0.3192  0.3683
   69MOL   H22916685   4.841   3.255   5.362  0.4430  0.7137 -1.7758
   69MOL   C23016686   4.665   3.181   4.953  0.2469  0.2108 -0.0756
   69MOL   C23116687   4.727   3.321   4.941  0.0755  0.2845  0.1702
   69MOL   C23216688   4.842   3.335   4.842 -0.8278 -1.0858 -0.0422
   69MOL   O23316689   4.894   3.235   4.797 -0.2307 -0.7868  0.3429
   69MOL   O23416690   4.876   3.465   4.829 -0.5579  0.4434  0.6301
   69MOL   C23516691   4.977   3.506   4.735 -0.2086 -0.4515  0.3770
   69MOL   H23616692   4.750   3.114   4.963  1.0486  1.3749  1.0939
   69MOL   H23716693   4.611   3.165   4.859 -0.9839 -2.7309  1.1071
   69MOL   H23816694   4.771   3.341   5.038  0.3182 -2.1261  0.5892
   69MOL   H23916695   5.070   3.453   4.752 -1.0385 -1.8061  0.7815
   69MOL   H24016696   4.977   3.614   4.750 -2.0772 -0.2933 -0.5401
   69MOL   H24116697   4.938   3.491   4.634 -1.6982  0.7734  0.7386
   69MOL   H24216698   4.648   3.391   4.914  1.4603  1.5473 -0.7112
   70MOL     C116699   5.345   7.184   1.180  0.5006  0.8918  0.8371
   70MOL     C216700   5.352   7.030   1.196 -0.2656  0.5225 -0.0040
   70MOL     C316701   5.261   6.988   1.313  0.0999 -0.0777 -0.1267
   70MOL     O416702   5.157   6.926   1.294  0.1692 -0.1199  0.0836
   70MOL     O516703   5.298   7.043   1.423  0.2670 -0.2595 -0.2150
   70MOL     C616704   5.207   7.027   1.528 -0.3948  0.9471 -0.2324
   70MOL     H716705   5.413   7.222   1.104 -0.7644  1.1488 -0.1942
   70MOL     H816706   5.347   7.241   1.273 -1.2752  1.0658  0.7984
   70MOL     H916707   5.458   7.017   1.220 -0.1503  0.5789 -0.4919
   70MOL    H1016708   5.194   6.921   1.551 -1.6494  0.7900 -1.6493
   70MOL    H1116709   5.109   7.070   1.509 -1.5916 -1.3420  0.6354
   70MOL    H1216710   5.244   7.083   1.615  1.8459 -0.3624 -0.2892
   70MOL    H1316711   5.247   7.221   1.148 -0.0334 -0.7232  0.5463
   70MOL    C1416712   5.323   6.955   1.063  0.1185 -0.1766  0.4889
   70MOL    C1516713   5.418   6.990   0.954 -0.0870  0.0752  0.2590
   70MOL    C1616714   5.557   6.922   0.971  0.0556  0.7235  0.1003
   70MOL    O1716715   5.565   6.817   1.039 -0.4913 -0.2899  0.5884
   70MOL    O1816716   5.653   6.979   0.905  0.0340 -0.3462  0.2307
   70MOL    C1916717   5.782   6.942   0.954  0.1115  0.1102 -0.1302
   70MOL    H2016718   5.323   6.847   1.077  1.3831 -0.1496  0.7283
   70MOL    H2116719   5.219   6.977   1.039  0.0147  0.2413  1.2957
   70MOL    H2216720   5.442   7.096   0.955  0.5271 -0.0089 -1.8889
   70MOL    H2316721   5.784   6.942   1.063  1.7200 -0.6398 -0.1429
   70MOL    H2416722   5.852   7.021   0.925  0.4357 -0.0446  0.2198
   70MOL    H2516723   5.806   6.842   0.919 -0.2007  0.4284 -1.2742
   70MOL    C2616724   5.370   6.962   0.808 -0.4617 -0.2584 -0.2101
   70MOL    C2716725   5.263   7.065   0.752  0.6718 -0.8725 -0.0500
   70MOL    C2816726   5.327   7.201   0.725 -0.5841 -0.8242 -0.0037
   70MOL    O2916727   5.419   7.217   0.647 -0.1419 -0.2089  0.4081
   70MOL    O3016728   5.268   7.287   0.806  0.2956  0.4384 -0.3595
   70MOL    C3116729   5.293   7.418   0.787  0.3138 -0.6748  0.1223
   70MOL    H3216730   5.449   6.953   0.733 -1.4692  0.0680 -1.3371
   70MOL    H3316731   5.313   6.869   0.807  2.0581 -1.8822  0.6229
   70MOL    H3416732   5.191   7.081   0.832  1.7277 -0.2527  0.7918
   70MOL    H3516733   5.272   7.480   0.874  0.7561  2.2629 -1.7983
   70MOL    H3616734   5.241   7.447   0.696 -0.5060  2.0621  1.4284
   70MOL    H3716735   5.401   7.431   0.778  0.2745  0.9869  1.9075
   70MOL    C3816736   5.178   7.008   0.637  0.1715 -0.2187 -0.9666
   70MOL    C3916737   5.044   7.080   0.614  0.6350  0.2629  0.1028
   70MOL    C4016738   5.057   7.174   0.491 -0.3351  0.8041  0.2954
   70MOL    O4116739   5.000   7.155   0.388  0.1276  0.0600  0.2908
   70MOL    O4216740   5.144   7.273   0.516 -0.0357  0.0448  0.4230
   70MOL    C4316741   5.182   7.355   0.393 -0.5789 -0.0420  0.5143
   70MOL    H4416742   5.239   7.008   0.546 -0.7686  1.4976 -1.6135
   70MOL    H4516743   5.161   6.901   0.643 -0.0315 -0.0336  2.6248
   70MOL    H4616744   5.035   7.158   0.689 -0.0083  1.6772 -1.4206
   70MOL    H4716745   5.246   7.442   0.407 -2.4158  1.5346 -0.6233
   70MOL    H4816746   5.095   7.387   0.337  1.1015 -0.0721 -2.1893
   70MOL    H4916747   5.234   7.284   0.329 -0.3878  0.4880  0.0795
   70MOL    C5016748   4.920   6.993   0.601  0.6255 -0.2240 -0.1828
   70MOL    C5116749   4.871   6.933   0.737 -0.3461 -0.4723 -1.2392
   70MOL    C5216750   4.828   7.030   0.851 -0.7856 -0.2314 -0.6173
   70MOL    O5316751   4.840   7.001   0.972  0.2144  0.2737  0.1801
   70MOL    O5416752   4.781   7.139   0.798  0.2342 -0.2353  0.0976
   70MOL    C5516753   4.730   7.231   0.885 -0.3334 -0.3558 -0.5582
   70MOL    H5616754   4.839   7.045   0.552 -0.5699 -0.6779  1.2623
   70MOL    H5716755   4.943   6.905   0.540 -0.3243  0.4263 -1.4935
   70MOL    H5816756   4.961   6.880   0.768 -0.4760 -0.4257 -0.7707
   70MOL    H5916757   4.809   7.252   0.957 -1.2764  0.7527  0.1636
   70MOL    H6016758   4.650   7.196   0.949  0.1783 -5.1004 -2.2969
   70MOL    H6116759   4.711   7.325   0.834 -0.8839 -0.1889 -0.0422
   70MOL    C6216760   4.773   6.814   0.710 -0.2161 -0.9064  0.2718
   70MOL    C6316761   4.627   6.849   0.653 -0.4777 -0.2331 -0.7997
   70MOL    C6416762   4.622   6.861   0.500  0.0471 -0.4007  0.0556
   70MOL    O6516763   4.563   6.954   0.444  0.3545 -0.1680 -0.2054
   70MOL    O6616764   4.672   6.752   0.436 -1.0209  0.0517  0.0423
   70MOL    C6716765   4.667   6.750   0.297 -0.3561  0.3031 -0.8754
   70MOL    H6816766   4.807   6.738   0.639 -1.6840 -0.9949 -0.3684
   70MOL    H6916767   4.776   6.754   0.801  0.6588 -0.4528  0.5427
   70MOL    H7016768   4.591   6.941   0.699  1.7090  0.5910 -0.7072
   70MOL    H7116769   4.755   6.793   0.248 -0.9658  0.1539 -2.1141
   70MOL    H7216770   4.586   6.809   0.253 -0.6994 -1.3661 -2.5648
   70MOL    H7316771   4.653   6.646   0.268 -0.4712 -0.1237  0.6785
   70MOL    C7416772   4.546   6.731   0.692 -0.6623 -0.5642  0.1870
   70MOL    C7516773   4.403   6.759   0.664 -0.3954 -0.1328 -0.7108
   70MOL    C7616774   4.344   6.660   0.565  0.3596  0.0027 -0.1027
   70MOL    O7716775   4.302   6.553   0.602  0.5780  0.0273  0.3648
   70MOL    O7816776   4.354   6.702   0.429 -0.5013 -0.2820  0.3695
   70MOL    C7916777   4.298   6.616   0.325 -0.2359  0.0097 -0.6622
   70MOL    H8016778   4.581   6.640   0.645 -2.1856 -0.4937 -1.1156
   70MOL    H8116779   4.565   6.709   0.797 -0.1097  0.3248  0.2805
   70MOL    H8216780   4.400   6.862   0.628  1.6858  0.5392  0.9453
   70MOL    H8316781   4.291   6.675   0.233 -1.0070  2.4376  0.8923
   70MOL    H8416782   4.203   6.581   0.366 -0.0571  3.1499  2.6645
   70MOL    H8516783   4.369   6.534   0.313  1.2075  1.4473 -2.2145
   70MOL    C8616784   4.310   6.768   0.795  0.1223  0.1906 -0.6066
   70MOL    C8716785   4.356   6.854   0.913  0.7266  0.4747 -0.2696
   70MOL    C8816786   4.302   7.000   0.904 -0.3020  0.0131 -0.2715
   70MOL    O8916787   4.210   7.031   0.827 -0.8351 -0.3464 -0.5276
   70MOL    O9016788   4.382   7.083   0.976  0.0601  0.4300  0.4896
   70MOL    C9116789   4.378   7.226   0.954  0.5752  0.4278 -0.5293
   70MOL    H9216790   4.206   6.790   0.772  0.1993  0.4416 -0.7080
   70MOL    H9316791   4.295   6.668   0.836  3.4382  0.0061  0.3820
   70MOL    H9416792   4.465   6.855   0.913  0.7289  0.3026 -1.1389
   70MOL    H9516793   4.274   7.258   0.956  0.6553  0.7994 -1.9479
   70MOL    H9616794   4.415   7.262   0.858 -0.3999  1.6228 -0.4726
   70MOL    H9716795   4.426   7.272   1.040  1.2365 -0.3586 -0.4673
   70MOL    C9816796   4.317   6.782   1.047  0.4779  0.0164  0.4817
   70MOL    C9916797   4.407   6.672   1.104  0.0052 -0.4947 -0.8483
   70MOL   C10016798   4.537   6.741   1.155  0.6692 -0.1648  0.3578
   70MOL   O10116799   4.539   6.799   1.262  0.1485 -0.0597 -0.1849
   70MOL   O10216800   4.640   6.725   1.071 -0.1862  0.0074  0.0560
   70MOL   C10316801   4.769   6.756   1.111  0.1652 -0.0498 -0.2498
   70MOL   H10416802   4.317   6.859   1.125 -0.6297  0.0602  0.4441
   70MOL   H10516803   4.213   6.749   1.051  0.4096 -0.3583 -3.0380
   70MOL   H10616804   4.438   6.603   1.025 -0.6281 -0.1988 -1.3559
   70MOL   H10716805   4.817   6.699   1.190 -2.3124 -2.7030 -0.5530
   70MOL   H10816806   4.792   6.855   1.150  1.4740 -1.6928  3.4482
   70MOL   H10916807   4.834   6.744   1.025  3.3208  1.1851  1.8836
   70MOL   C11016808   4.333   6.587   1.219  0.3961  0.2220  0.7110
   70MOL   C11116809   4.194   6.524   1.184 -0.7391 -0.4964  0.3834
   70MOL   C11216810   4.210   6.404   1.077 -0.4593 -0.6035  0.4144
   70MOL   O11316811   4.290   6.313   1.093 -0.1727  0.6628  0.6783
   70MOL   O11416812   4.120   6.406   0.975  0.2994 -0.3030 -0.1143
   70MOL   C11516813   4.113   6.294   0.886 -0.2265  0.1894  0.1168
   70MOL   H11616814   4.394   6.503   1.250 -0.6811  0.5542  3.8868
   70MOL   H11716815   4.321   6.646   1.309 -1.5605 -1.0403  1.3045
   70MOL   H11816816   4.134   6.595   1.127 -1.1745 -0.3812  0.9831
   70MOL   H11916817   4.187   6.310   0.808 -0.6402  0.5851 -0.1962
   70MOL   H12016818   4.013   6.274   0.848 -0.3581 -0.3830  0.7556
   70MOL   H12116819   4.152   6.201   0.927  0.9655  0.4471 -0.4169
   70MOL   C12216820   4.116   6.474   1.309 -0.0595  0.3412 -0.6202
   70MOL   C12316821   3.971   6.512   1.330  0.2874 -0.5357  0.0141
   70MOL   C12416822   3.945   6.662   1.324 -0.2049 -0.8551  0.0461
   70MOL   O12516823   3.859   6.712   1.247  0.8548 -0.0302  0.1958
   70MOL   O12616824   4.026   6.726   1.406 -0.3361 -0.3214 -0.1368
   70MOL   C12716825   4.061   6.858   1.390 -0.6823  0.2154 -0.3844
   70MOL   H12816826   4.123   6.366   1.313 -1.6197  0.2471  0.0948
   70MOL   H12916827   4.170   6.497   1.401  0.6412  0.4799 -1.0596
   70MOL   H13016828   3.933   6.469   1.422 -2.0363 -0.2845 -0.8084
   70MOL   H13116829   4.005   6.930   1.450  1.1670  0.7490  0.7419
   70MOL   H13216830   4.061   6.880   1.283 -1.1671  1.6300 -0.1125
   70MOL   H13316831   4.165   6.863   1.422 -0.7643 -0.9641  0.0748
   70MOL   C13416832   3.874   6.436   1.235  0.0327  0.6756  0.7661
   70MOL   C13516833   3.853   6.291   1.279  0.1125 -0.2984 -0.8117
   70MOL   C13616834   3.738   6.292   1.384  0.5284  0.5250 -0.1626
   70MOL   O13716835   3.759   6.303   1.503  0.9803 -0.7706 -0.5052
   70MOL   O13816836   3.613   6.284   1.330 -0.5064  0.2689 -0.2009
   70MOL   C13916837   3.496   6.304   1.408 -0.0916  0.3027 -0.5092
   70MOL   H14016838   3.772   6.472   1.220 -0.1749 -1.0493 -2.6946
   70MOL   H14116839   3.902   6.438   1.129 -0.9487 -0.4264  0.4738
   70MOL   H14216840   3.932   6.267   1.350 -0.3810  3.1441  1.0141
   70MOL   H14316841   3.437   6.213   1.413 -3.0392  2.2414  0.8872
   70MOL   H14416842   3.437   6.388   1.372 -0.2149  1.4159  2.1650
   70MOL   H14516843   3.511   6.329   1.514 -2.1960 -0.8739  0.0877
   70MOL   C14616844   3.852   6.182   1.173  0.3910  0.6045 -0.4685
   70MOL   C14716845   3.854   6.031   1.204 -0.2241  0.1334 -0.3779
   70MOL   C14816846   3.725   5.969   1.149 -0.2856  0.4542  0.2356
   70MOL   O14916847   3.625   5.962   1.217  0.0052  0.3046 -0.2117
   70MOL   O15016848   3.727   5.938   1.021  0.0423  0.1075 -0.0898
   70MOL   C15116849   3.602   5.889   0.963 -0.1985  0.4178 -0.5109
   70MOL   H15216850   3.764   6.205   1.114 -0.2876 -0.4747  0.0956
   70MOL   H15316851   3.934   6.195   1.103  0.6657  0.5577 -0.1548
   70MOL   H15416852   3.849   6.022   1.313 -1.5149  0.0509 -0.4295
   70MOL   H15516853   3.549   5.968   0.910 -2.8064 -0.0170  1.3954
   70MOL   H15616854   3.530   5.851   1.035 -1.3923 -0.6843 -2.2612
   70MOL   H15716855   3.635   5.821   0.884  0.7829  1.8488 -1.3534
   70MOL   C15816856   3.986   5.955   1.167 -0.6585 -0.6778 -0.2199
   70MOL   C15916857   4.114   5.996   1.245 -0.2131  0.2825  0.5503
   70MOL   C16016858   4.095   6.004   1.404  0.0837  0.0429  0.0218
   70MOL   O16116859   4.109   6.109   1.467 -0.1160 -0.0268 -0.3456
   70MOL   O16216860   4.066   5.890   1.458 -0.1637 -0.2800 -0.1224
   70MOL   C16316861   4.053   5.887   1.601  0.2799  0.1305  0.1288
   70MOL   H16416862   3.968   5.848   1.166 -0.7811 -0.6521 -1.6840
   70MOL   H16516863   4.001   5.976   1.061 -0.5554  1.2672  0.1640
   70MOL   H16616864   4.137   6.094   1.204 -0.2957 -0.2724 -0.8606
   70MOL   H16716865   4.150   5.913   1.644  0.7482  0.0192 -0.8526
   70MOL   H16816866   4.024   5.790   1.641 -0.6628 -0.3385 -1.6263
   70MOL   H16916867   3.977   5.951   1.645  0.7345  0.1031  0.9584
   70MOL   C17016868   4.236   5.900   1.221  0.2360 -0.5222 -0.2368
   70MOL   C17116869   4.374   5.892   1.297  0.3093 -0.5170  0.3696
   70MOL   C17216870   4.431   5.746   1.302 -0.2977 -0.7133 -0.4250
   70MOL   O17316871   4.493   5.702   1.211 -0.1663  0.2035  0.2963
   70MOL   O17416872   4.387   5.673   1.399 -0.1075  0.6234 -0.4716
   70MOL   C17516873   4.414   5.535   1.415 -0.3352 -0.0826  0.5970
   70MOL   H17616874   4.188   5.802   1.232  0.7924 -0.3888  4.2013
   70MOL   H17716875   4.252   5.919   1.115 -2.2723  1.0919 -0.3551
   70MOL   H17816876   4.355   5.921   1.401 -0.6126 -1.2126  0.4011
   70MOL   H17916877   4.325   5.473   1.416  0.0766 -0.6980 -0.1712
   70MOL   H18016878   4.477   5.521   1.503 -0.0982  3.4830  1.0900
   70MOL   H18116879   4.469   5.489   1.332 -2.0512 -1.6672  0.3127
   70MOL   C18216880   4.479   5.991   1.245 -0.6733 -0.5553 -0.1879
   70MOL   C18316881   4.462   6.137   1.285 -0.2260  0.7336 -0.4323
   70MOL   C18416882   4.456   6.173   1.432  0.0045  0.7979 -0.0704
   70MOL   O18516883   4.482   6.095   1.520  0.0529  0.5281  0.1487
   70MOL   O18616884   4.428   6.304   1.449  0.4305 -0.5003 -0.2604
   70MOL   C18716885   4.425   6.351   1.580  0.0999  0.1448 -0.3242
   70MOL   H18816886   4.575   5.954   1.279 -0.3348  0.3566 -0.1264
   70MOL   H18916887   4.471   5.993   1.137  0.8210  2.4830 -0.2828
   70MOL   H19016888   4.357   6.151   1.257 -0.3062  0.6842 -0.1603
   70MOL   H19116889   4.519   6.330   1.630 -1.2443 -2.7149  1.1331
   70MOL   H19216890   4.359   6.286   1.638  0.3510  0.1544 -0.0263
   70MOL   H19316891   4.391   6.453   1.593  1.2012  0.2820  1.7432
   70MOL   C19416892   4.550   6.224   1.194 -0.1826 -0.2544 -0.2678
   70MOL   C19516893   4.697   6.237   1.242 -1.6539 -1.0711 -0.5736
   70MOL   C19616894   4.780   6.111   1.234 -0.1968 -0.0709  0.7645
   70MOL   O19716895   4.807   6.044   1.336  0.0302 -0.0648  1.0132
   70MOL   O19816896   4.811   6.068   1.105  0.2166  0.1777 -0.0529
   70MOL   C19916897   4.898   5.955   1.092  0.3173  0.0820 -0.1413
   70MOL   H20016898   4.540   6.186   1.092  1.6910 -2.1143  0.1935
   70MOL   H20116899   4.511   6.326   1.191  0.5816  0.0187 -1.4767
   70MOL   H20216900   4.696   6.261   1.348 -0.6500  1.6380 -1.1417
   70MOL   H20316901   4.877   5.878   1.166 -0.0830 -0.3349 -0.6878
   70MOL   H20416902   4.999   5.997   1.088  0.2628  0.0929 -1.5787
   70MOL   H20516903   4.871   5.906   0.999 -0.8256 -1.4868  0.9992
   70MOL   C20616904   4.768   6.358   1.171  0.6350 -0.2164 -0.0320
   70MOL   C20716905   4.894   6.430   1.231 -0.1805  0.3393  0.5593
   70MOL   C20816906   4.881   6.472   1.372  0.4900 -0.2299 -0.2389
   70MOL   O20916907   4.963   6.447   1.456  0.2507 -0.0134 -0.0556
   70MOL   O21016908   4.770   6.540   1.393  0.5387  0.1623 -0.7485
   70MOL   C21116909   4.724   6.544   1.530  0.1855 -0.3201  0.3537
   70MOL   H21216910   4.775   6.342   1.064 -1.2610  0.6732 -0.3089
   70MOL   H21316911   4.691   6.434   1.155  1.0023  0.1774  0.0667
   70MOL   H21416912   4.898   6.523   1.174  0.5383  0.4250  0.7484
   70MOL   H21516913   4.686   6.450   1.570  0.3219 -0.6271 -0.2303
   70MOL   H21616914   4.640   6.612   1.544  0.7456 -0.0519  2.6445
   70MOL   H21716915   4.809   6.568   1.594  0.1015  0.6297  0.1183
   70MOL   C21816916   5.019   6.356   1.184 -0.7032  0.0594  0.5870
   70MOL   C21916917   5.042   6.327   1.037  0.2941  0.0313  0.1335
   70MOL   C22016918   5.029   6.454   0.954  0.4001  0.6558 -0.2605
   70MOL   O22116919   4.936   6.469   0.879 -0.0399  0.0857 -0.0345
   70MOL   O22216920   5.140   6.535   0.970  0.0277 -0.3421 -0.2077
   70MOL   C22316921   5.148   6.658   0.901 -0.2147  0.6175  0.3506
   70MOL   H22416922   5.106   6.412   1.218  0.0259 -0.2141 -0.7940
   70MOL   H22516923   5.018   6.262   1.240 -2.8818  0.2417  0.8672
   70MOL   H22616924   4.967   6.253   1.008 -0.0375  0.7308 -0.8261
   70MOL   H22716925   5.245   6.699   0.930 -0.2340  0.0824  1.1797
   70MOL   H22816926   5.076   6.724   0.949 -1.0926  0.6775 -1.0051
   70MOL   H22916927   5.135   6.665   0.793  1.5331  1.4131  0.1643
   70MOL   C23016928   5.177   6.252   1.013  0.0229 -0.2814  0.5099
   70MOL   C23116929   5.194   6.205   0.862  0.4954 -0.1602 -0.1378
   70MOL   C23216930   5.086   6.110   0.824  0.0034  0.0430 -0.5166
   70MOL   O23316931   5.090   5.992   0.859  0.6117  0.6120 -0.1547
   70MOL   O23416932   4.976   6.162   0.761 -0.1860 -0.2671 -0.3948
   70MOL   C23516933   4.862   6.079   0.753 -0.3964 -0.5067 -0.5938
   70MOL   H23616934   5.259   6.320   1.038 -0.7811  0.4924  1.0542
   70MOL   H23716935   5.206   6.179   1.089  1.7920 -0.2662 -0.1266
   70MOL   H23816936   5.279   6.137   0.861  1.2812  0.6157  4.2746
   70MOL   H23916937   4.816   6.106   0.658 -0.9077 -3.4722 -1.2472
   70MOL   H24016938   4.782   6.092   0.825  3.0779  2.3475  3.0247
   70MOL   H24116939   4.900   5.977   0.745  0.5789 -0.1519 -0.6335
   70MOL   H24216940   5.190   6.291   0.795 -0.2669 -0.3574 -0.3566
   71MOL     C116941   0.174   0.896   7.437 -0.2926  0.0402 -0.2210
   71MOL     C216942   0.291   0.952   7.522  0.2014  0.2406  0.5653
   71MOL     C316943   0.371   0.836   7.581  0.4763  0.1292 -0.0484
   71MOL     O416944   0.367   0.721   7.535 -0.5600  0.1863 -0.6098
   71MOL     O516945   0.439   0.873   7.677 -0.1415 -0.4137 -0.2880
   71MOL     C616946   0.505   0.781   7.767 -0.4301  0.1075 -0.1292
   71MOL     H716947   0.106   0.826   7.486 -0.9957 -0.9439 -2.5322
   71MOL     H816948   0.211   0.839   7.352 -1.1632 -0.6609 -0.1480
   71MOL     H916949   0.249   1.010   7.605  1.6803  0.5058  1.1464
   71MOL    H1016950   0.479   0.676   7.769 -1.3051  0.3399  0.9684
   71MOL    H1116951   0.508   0.815   7.871 -0.7833 -1.8569  0.5337
   71MOL    H1216952   0.608   0.792   7.731 -0.6340  0.4883 -0.5990
   71MOL    H1316953   0.110   0.972   7.392 -0.9063 -1.4047 -1.8364
   71MOL    C1416954   0.386   1.039   7.435 -0.3296  0.3837  0.5351
   71MOL    C1516955   0.422   1.173   7.497 -0.2214  0.2025 -0.7345
   71MOL    C1616956   0.492   1.165   7.634 -0.3820  0.0063  0.1217
   71MOL    O1716957   0.437   1.185   7.739  0.1000  0.4753  0.2624
   71MOL    O1816958   0.612   1.119   7.623 -0.4919  0.5311 -0.5999
   71MOL    C1916959   0.694   1.105   7.733  0.2569  0.2908  0.1687
   71MOL    H2016960   0.478   0.989   7.405  0.4665  1.6949  0.7285
   71MOL    H2116961   0.337   1.049   7.339  1.2242 -0.1688 -0.3304
   71MOL    H2216962   0.332   1.230   7.522  0.1892  1.1692 -1.3828
   71MOL    H2316963   0.795   1.139   7.708  0.2676  0.4011  0.3622
   71MOL    H2416964   0.699   0.999   7.760 -1.1092 -0.0048 -0.7069
   71MOL    H2516965   0.660   1.166   7.816  2.3307 -0.6005  1.7324
   71MOL    C2616966   0.501   1.255   7.384 -0.9645 -0.5226  0.3188
   71MOL    C2716967   0.484   1.407   7.404  0.1933 -0.3729  0.3232
   71MOL    C2816968   0.618   1.471   7.370 -0.6157 -0.4609 -0.3814
   71MOL    O2916969   0.686   1.524   7.455 -0.6164 -0.2445 -0.5761
   71MOL    O3016970   0.637   1.475   7.237  0.5515  0.2706 -0.0322
   71MOL    C3116971   0.731   1.567   7.187 -0.3957  0.7715  0.3725
   71MOL    H3216972   0.606   1.231   7.401 -0.5966  0.6364 -0.2870
   71MOL    H3316973   0.467   1.224   7.285 -0.4081  2.1677 -0.7421
   71MOL    H3416974   0.472   1.431   7.510  1.9554  3.2242 -0.2165
   71MOL    H3516975   0.710   1.670   7.215 -0.7754  0.1783  2.3031
   71MOL    H3616976   0.731   1.549   7.079  1.5931 -1.5104  0.6969
   71MOL    H3716977   0.836   1.554   7.215 -0.5385 -1.2328  0.0984
   71MOL    C3816978   0.361   1.467   7.321 -0.6124 -0.5751  0.0585
   71MOL    C3916979   0.330   1.615   7.344  0.5929  0.9563  0.2857
   71MOL    C4016980   0.244   1.682   7.228 -0.1109  0.1973  0.1616
   71MOL    O4116981   0.121   1.699   7.228 -0.7797  0.9594  0.4174
   71MOL    O4216982   0.320   1.732   7.131  0.1124  0.0202  0.2987
   71MOL    C4316983   0.265   1.787   7.018  0.1597 -0.2112  0.0396
   71MOL    H4416984   0.384   1.455   7.215  0.8070  1.5731  0.1039
   71MOL    H4516985   0.278   1.404   7.353 -0.0505 -1.8545 -0.9502
   71MOL    H4616986   0.423   1.670   7.355  1.1681 -0.5579  3.5860
   71MOL    H4716987   0.160   1.759   7.020 -0.0349  0.5340  0.7206
   71MOL    H4816988   0.309   1.752   6.925  0.5862  0.6829 -0.0998
   71MOL    H4916989   0.266   1.896   7.013 -0.2342 -0.1485  1.1324
   71MOL    C5016990   0.279   1.646   7.488  0.4444  0.0957  0.8491
   71MOL    C5116991   0.210   1.781   7.514 -0.7460 -0.0128 -0.7418
   71MOL    C5216992   0.134   1.797   7.645  0.2523 -1.5487  0.4950
   71MOL    O5316993   0.019   1.849   7.653 -0.0047  0.5742 -0.1595
   71MOL    O5416994   0.208   1.771   7.751 -0.1116 -0.2928 -0.0834
   71MOL    C5516995   0.157   1.783   7.883 -0.2566 -0.1792 -0.3888
   71MOL    H5616996   0.204   1.572   7.519 -1.4009  2.4423  2.1429
   71MOL    H5716997   0.367   1.630   7.550  0.5685 -2.5635  0.0719
   71MOL    H5816998   0.128   1.790   7.443 -0.6506  1.2940 -0.6960
   71MOL    H5916999   0.236   1.755   0.020  0.4415 -0.9558 -1.4869
   71MOL    H6017000   0.059   1.738   7.904 -1.0482  1.9571  0.6742
   71MOL    H6117001   0.132   1.889   7.892 -0.2972 -0.1230 -1.1480
   71MOL    C6217002   0.313   1.895   7.507 -0.1592  0.2347 -0.3734
   71MOL    C6317003   0.273   2.042   7.530 -0.3028  0.2984 -0.2604
   71MOL    C6417004   0.338   2.105   7.655  0.0840 -0.0472  0.0400
   71MOL    O6517005   0.394   2.213   7.656  0.5813  0.0801 -0.2268
   71MOL    O6617006   0.342   2.023   7.762  0.1597 -0.0208  0.1740
   71MOL    C6717007   0.427   2.045   7.873  0.0522  0.4713 -0.8346
   71MOL    H6817008   0.390   1.859   7.574  1.0615  0.0103 -1.8543
   71MOL    H6917009   0.365   1.885   7.411  1.1833  1.8053  0.1741
   71MOL    H7017010   0.166   2.029   7.549 -0.4127  2.0920  0.4437
   71MOL    H7117011   0.386   1.988   0.024  0.2136 -0.6233 -1.4887
   71MOL    H7217012   0.429   2.150   7.901  0.9584  0.9357 -2.5997
   71MOL    H7317013   0.529   2.018   7.847 -0.4484 -2.2274 -0.1387
   71MOL    C7417014   0.279   2.130   7.405 -0.1145  0.5685  0.4130
   71MOL    C7517015   0.415   2.167   7.338 -0.3895 -0.0712  0.4469
   71MOL    C7617016   0.454   2.109   7.206  0.7574  1.0683  0.0986
   71MOL    O7717017   0.547   2.031   7.191 -0.4014 -0.2501 -0.1944
   71MOL    O7817018   0.375   2.149   7.109  0.1783  0.2359  0.6420
   71MOL    C7917019   0.397   2.126   6.965 -0.5198  0.2551  0.4925
   71MOL    H8017020   0.227   2.078   7.325 -0.3835 -0.1973  1.0844
   71MOL    H8117021   0.219   2.219   7.426 -1.2145 -0.2114  0.6180
   71MOL    H8217022   0.487   2.125   7.408 -0.2094  3.8927  2.8356
   71MOL    H8317023   0.421   2.023   6.938  2.0819  1.4901 -2.1196
   71MOL    H8417024   0.474   2.195   6.929 -2.1497  2.1085  0.4555
   71MOL    H8517025   0.314   2.147   6.897  0.5261 -0.0094 -0.8866
   71MOL    C8617026   0.440   2.325   7.342  0.3447  0.0169 -0.1598
   71MOL    C8717027   0.573   2.387   7.302 -0.8317  0.2102  0.8461
   71MOL    C8817028   0.557   2.545   7.304 -0.2323  0.3822 -0.5951
   71MOL    O8917029   0.568   2.608   7.203  0.0556 -0.2364  0.0196
   71MOL    O9017030   0.541   2.592   7.418 -0.0469 -0.0398  0.3291
   71MOL    C9117031   0.535   2.735   7.438 -0.3337 -0.3371  0.2222
   71MOL    H9217032   0.356   2.362   7.284 -1.2721 -0.0826  2.0551
   71MOL    H9317033   0.410   2.367   7.438 -1.3720  0.8856 -1.0480
   71MOL    H9417034   0.594   2.357   7.200 -1.1160 -2.0593  1.4387
   71MOL    H9517035   0.563   2.758   7.541 -0.6449 -1.1036  0.4827
   71MOL    H9617036   0.437   2.769   7.404 -0.4556 -1.4269 -0.5436
   71MOL    H9717037   0.611   2.785   7.378  1.8353 -1.8119  1.6538
   71MOL    C9817038   0.692   2.341   7.390 -0.0059 -0.3249 -0.8573
   71MOL    C9917039   0.832   2.364   7.330  0.5355 -0.8796  0.1286
   71MOL   C10017040   0.866   2.271   7.215 -0.3699  0.1305  0.1725
   71MOL   O10117041   0.917   2.157   7.222  0.1965  0.3963  0.1306
   71MOL   O10217042   0.823   2.322   7.104  0.4917 -0.2228  0.7357
   71MOL   C10317043   0.839   2.261   6.977 -0.0422 -0.4287 -0.2240
   71MOL   H10417044   0.681   2.394   7.484  0.5143 -0.1488 -0.8979
   71MOL   H10517045   0.677   2.239   7.425 -2.2094 -0.1824 -1.2935
   71MOL   H10617046   0.897   2.332   7.412 -0.1111  1.0406  1.4165
   71MOL   H10717047   0.772   2.310   6.906  0.1189 -1.4961 -1.1325
   71MOL   H10817048   0.809   2.156   6.973  0.0391 -0.4413 -0.5730
   71MOL   H10917049   0.944   2.264   6.947  0.0078  1.3147  0.0978
   71MOL   C11017050   0.876   2.517   7.305  0.1204 -0.2678  0.2201
   71MOL   C11117051   1.023   2.557   7.323 -0.1891 -0.1244  0.0983
   71MOL   C11217052   1.053   2.597   7.467  0.6339 -0.7845  0.4506
   71MOL   O11317053   1.057   2.713   7.500  0.3248  0.2478 -0.1390
   71MOL   O11417054   1.047   2.489   7.549 -0.0419 -0.7247  0.4952
   71MOL   C11517055   1.092   2.517   7.686  0.7142  0.0750  0.1011
   71MOL   H11617056   0.836   2.539   7.206 -3.1226 -2.2858  1.0197
   71MOL   H11717057   0.817   2.579   7.373  0.5141 -0.6794  0.9385
   71MOL   H11817058   1.027   2.655   7.276 -0.8666 -0.5487 -0.8680
   71MOL   H11917059   1.027   2.585   7.741  0.8114  0.6105 -0.4391
   71MOL   H12017060   1.195   2.550   7.698  0.7028  0.1171  0.0813
   71MOL   H12117061   1.104   2.418   7.731 -0.5444 -0.7078 -1.2261
   71MOL   C12217062   1.124   2.467   7.260  0.3064 -0.2687 -0.5061
   71MOL   C12317063   1.266   2.531   7.235 -0.5807 -0.5053  1.1397
   71MOL   C12417064   1.366   2.433   7.174  0.7116  0.4184 -0.7610
   71MOL   O12517065   1.481   2.434   7.209 -0.3261 -0.1179  0.2334
   71MOL   O12617066   1.310   2.349   7.080 -0.1344 -0.6234  0.6755
   71MOL   C12717067   1.383   2.250   7.019 -0.0406  0.1983  0.2147
   71MOL   H12817068   1.142   2.380   7.322 -2.8085 -0.9373 -0.4943
   71MOL   H12917069   1.085   2.427   7.166  1.3216 -0.4115 -0.8796
   71MOL   H13017070   1.298   2.574   7.330  0.1709  0.4606  0.4550
   71MOL   H13117071   1.466   2.225   7.085  0.2145  0.1202 -0.1353
   71MOL   H13217072   1.418   2.279   6.920  2.1928 -2.8344  0.0560
   71MOL   H13317073   1.322   2.160   7.012 -2.5451  1.9075 -0.5630
   71MOL   C13417074   1.254   2.654   7.136  0.1258 -1.0428 -0.0095
   71MOL   C13517075   1.325   2.784   7.186  0.4916  0.2814  0.4645
   71MOL   C13617076   1.473   2.783   7.166 -0.1363  0.1896  0.0729
   71MOL   O13717077   1.555   2.797   7.259  0.3037  0.1144  0.5901
   71MOL   O13817078   1.499   2.771   7.042 -0.6514  0.0852  0.3529
   71MOL   C13917079   1.637   2.774   7.005  0.5206 -0.1950  1.0419
   71MOL   H14017080   1.283   2.609   7.040 -2.9376 -0.8674 -1.0709
   71MOL   H14117081   1.150   2.683   7.126  0.5860  0.7794  0.4114
   71MOL   H14217082   1.316   2.790   7.295  0.6432 -1.5904  0.5905
   71MOL   H14317083   1.694   2.841   7.069  3.2287 -0.2426 -1.2438
   71MOL   H14417084   1.645   2.803   6.900 -0.6202  1.8234  1.4927
   71MOL   H14517085   1.676   2.672   7.012  3.4477  0.7197 -1.0954
   71MOL   C14617086   1.259   2.914   7.135  0.0235  0.4812  0.5695
   71MOL   C14717087   1.302   3.050   7.194 -0.4153 -0.3925  0.0511
   71MOL   C14817088   1.260   3.169   7.104  0.6900 -0.4649  0.4134
   71MOL   O14917089   1.227   3.155   6.988  0.0835 -0.8347  0.3742
   71MOL   O15017090   1.258   3.280   7.173 -0.2797 -0.2739 -0.1380
   71MOL   C15117091   1.231   3.395   7.098  0.1972  0.4528  0.2511
   71MOL   H15217092   1.292   2.913   7.031 -1.2229 -0.5474  0.1723
   71MOL   H15317093   1.151   2.902   7.128 -0.3229  2.9567  1.0559
   71MOL   H15417094   1.410   3.060   7.196 -0.5622  1.4201  0.1478
   71MOL   H15517095   1.303   3.426   7.021 -3.0413  2.0411 -2.2679
   71MOL   H15617096   1.209   3.481   7.161 -0.5091  1.2759 -1.0870
   71MOL   H15717097   1.140   3.386   7.038 -0.5408  1.4334  1.2035
   71MOL   C15817098   1.249   3.059   7.343 -0.6697 -0.4508  0.0907
   71MOL   C15917099   1.353   3.025   7.455 -0.2351 -0.1596  0.0417
   71MOL   C16017100   1.462   3.134   7.477 -0.3193 -0.1251  0.6548
   71MOL   O16117101   1.585   3.109   7.464 -0.4391  0.1871  0.3651
   71MOL   O16217102   1.400   3.252   7.520 -0.3463  0.3723 -0.1673
   71MOL   C16317103   1.490   3.363   7.551  0.4889 -0.9291  0.7763
   71MOL   H16417104   1.182   3.141   7.368  0.8055  0.1319  2.2030
   71MOL   H16517105   1.178   2.978   7.358  1.3390 -2.0502  1.1581
   71MOL   H16617106   1.413   2.941   7.421  0.2894 -0.5030  1.7609
   71MOL   H16717107   1.547   3.328   7.637  0.1144 -0.7551  1.0925
   71MOL   H16817108   1.433   3.446   7.592  1.8577  1.0412 -1.2018
   71MOL   H16917109   1.550   3.400   7.467  0.8009  0.7743  1.7299
   71MOL   C17017110   1.283   2.988   7.588 -0.1411 -0.7448  0.1833
   71MOL   C17117111   1.378   2.935   7.703 -0.1584  0.1299  0.2098
   71MOL   C17217112   1.317   2.950   7.840  0.2536 -0.7422 -0.2199
   71MOL   O17317113   1.286   2.852   7.910  0.4609  0.5906  0.1744
   71MOL   O17417114   1.305   3.077   7.878  0.1042  0.0859  0.6938
   71MOL   C17517115   1.238   3.100   0.066 -0.1866 -0.0373  0.1203
   71MOL   H17617116   1.218   3.072   7.614 -0.7846 -0.8209 -1.1553
   71MOL   H17717117   1.215   2.907   7.561  1.5432 -1.8811 -0.7198
   71MOL   H17817118   1.463   3.003   7.715  0.9217 -1.3836  1.2673
   71MOL   H17917119   1.147   3.042   0.062 -0.5247  0.3316  2.2717
   71MOL   H18017120   1.212   3.206   0.061 -0.3485  0.0066  1.6551
   71MOL   H18117121   1.303   3.082   0.151  3.4098 -1.7479 -2.8245
   71MOL   C18217122   1.424   2.796   7.669 -0.6229 -0.0106 -0.4318
   71MOL   C18317123   1.517   2.724   7.771  0.2815  0.1401 -0.1564
   71MOL   C18417124   1.541   2.575   7.733  0.4234 -1.1981  0.1465
   71MOL   O18517125   1.492   2.484   7.804  0.2076  0.2619  0.3353
   71MOL   O18617126   1.617   2.555   7.626 -0.3181 -0.2152 -0.0876
   71MOL   C18717127   1.628   2.419   7.586  0.1033 -0.2956  0.2919
   71MOL   H18817128   1.334   2.734   7.665  1.0009 -2.6989  2.5599
   71MOL   H18917129   1.483   2.792   7.577  0.3924  0.8738  0.1853
   71MOL   H19017130   1.460   2.708   7.862 -1.1478  0.1006 -1.0554
   71MOL   H19117131   1.547   2.393   7.518 -0.2357  3.6257 -0.9397
   71MOL   H19217132   1.633   2.342   7.664 -0.9613 -0.5092  0.1594
   71MOL   H19317133   1.718   2.391   7.532  0.5630  0.1384  0.8258
   71MOL   C19417134   1.646   2.803   7.807 -0.2787  0.0278  0.0651
   71MOL   C19517135   1.649   2.890   0.006 -0.2121 -0.2655 -0.5938
   71MOL   C19617136   1.635   2.800   0.134  0.0520 -0.2816 -0.8243
   71MOL   O19717137   1.733   2.746   0.190  0.0387 -0.3328 -0.0275
   71MOL   O19817138   1.508   2.785   0.172 -0.4142 -0.0180  0.1476
   71MOL   C19917139   1.482   2.695   0.276  0.5160 -0.4104  0.1687
   71MOL   H20017140   1.736   2.742   7.816  0.2807  1.0076  1.3640
   71MOL   H20117141   1.672   2.870   7.725  0.4547  1.2823  1.2953
   71MOL   H20217142   1.562   2.957   0.005 -0.6568 -0.7133  2.0727
   71MOL   H20317143   1.523   2.731   0.371  0.9355 -2.5212  0.8217
   71MOL   H20417144   1.507   2.591   0.252 -0.3511 -0.5854  0.0006
   71MOL   H20517145   1.374   2.695   0.292  0.2097 -0.7762 -1.8567
   71MOL   C20617146   1.773   2.983   0.007  0.5112  0.2208 -0.1734
   71MOL   C20717147   1.753   3.097   0.104  0.4166  0.3662 -0.4224
   71MOL   C20817148   1.818   3.068   0.236  0.8738 -0.1937 -0.4937
   71MOL   O20917149   1.756   3.073   0.342  0.7672  0.4952  0.3381
   71MOL   O21017150   1.946   3.026   0.221 -0.0375  0.4364 -0.2975
   71MOL   C21117151   2.016   2.971   0.332 -0.5208  0.0439 -0.1051
   71MOL   H21217152   1.871   2.936   0.007  1.4140  2.0269 -1.1083
   71MOL   H21317153   1.755   3.032   7.844 -0.6451 -2.1950 -1.2395
   71MOL   H21417154   1.646   3.097   0.124  0.3208  1.7115 -0.8639
   71MOL   H21517155   2.121   2.995   0.323  0.0032 -2.2561 -0.5606
   71MOL   H21617156   1.996   2.864   0.347 -0.1563  0.1784  1.4026
   71MOL   H21717157   1.979   3.008   0.428 -0.2939 -2.3723  0.9669
   71MOL   C21817158   1.797   3.238   0.047 -0.1175  0.0536 -0.5027
   71MOL   C21917159   1.687   3.352   0.056  0.2614  0.0672  0.1592
   71MOL   C22017160   1.632   3.371   0.200 -0.0315  0.5748  0.2839
   71MOL   O22117161   1.517   3.333   0.226 -0.1069  0.4985  0.2371
   71MOL   O22217162   1.715   3.434   0.283 -0.1268  0.2822  0.1590
   71MOL   C22317163   1.671   3.468   0.413  0.3250 -0.2274  0.0557
   71MOL   H22417164   1.881   3.264   0.111 -1.0498 -0.8489  1.1558
   71MOL   H22517165   1.836   3.226   7.879 -0.4557 -0.5030 -0.5720
   71MOL   H22617166   1.607   3.326   7.919  0.2910  1.6657 -0.4857
   71MOL   H22717167   1.626   3.381   0.461  0.2460 -0.0849  0.2386
   71MOL   H22817168   1.590   3.536   0.385  0.0123  0.2162  1.9724
   71MOL   H22917169   1.749   3.529   0.457 -1.8373  1.2692  1.9336
   71MOL   C23017170   1.749   3.483   0.001 -0.3944  0.8859 -0.3856
   71MOL   C23117171   1.638   3.598   7.918  0.2465 -0.4044 -0.7912
   71MOL   C23217172   1.693   3.721   7.836 -0.5506  0.3118 -0.7149
   71MOL   O23317173   1.803   3.716   7.775 -0.3546 -0.0304  0.4087
   71MOL   O23417174   1.604   3.822   7.832 -0.4894  0.1263 -0.0051
   71MOL   C23517175   1.615   3.928   7.744  0.1151  0.3686 -0.2977
   71MOL   H23617176   1.834   3.510   0.064  0.4930 -2.0265 -0.2187
   71MOL   H23717177   1.787   3.458   7.835 -0.6032 -0.9149 -0.0299
   71MOL   H23817178   1.600   3.643   0.076  2.4254  1.2935 -0.7006
   71MOL   H23917179   1.614   3.893   7.641  1.5836 -0.4073 -0.0565
   71MOL   H24017180   1.702   3.992   7.759 -1.1240  2.5171 -1.8277
   71MOL   H24117181   1.530   3.994   7.764 -0.6378 -0.1508 -1.7379
   71MOL   H24217182   1.561   3.546   7.859 -0.1373  0.0155 -0.6662
   72MOL     C117183   1.261   5.288   3.754  0.3158 -0.0990 -0.2593
   72MOL     C217184   1.111   5.272   3.747 -0.1433  1.2666  0.4092
   72MOL     C317185   1.049   5.410   3.745  0.1917  0.2356 -0.8764
   72MOL     O417186   0.966   5.437   3.832  0.4124 -0.0632 -0.2407
   72MOL     O517187   1.083   5.485   3.644 -0.1646 -0.4069 -0.2205
   72MOL     C617188   1.014   5.615   3.642 -0.4319  0.6121 -0.4000
   72MOL     H717189   1.282   5.330   3.852  0.5446 -1.6194  0.3474
   72MOL     H817190   1.312   5.349   3.679 -2.6244  0.1438 -2.1622
   72MOL     H917191   1.083   5.231   3.844 -0.1631 -1.0667 -0.5659
   72MOL    H1017192   1.031   5.692   3.718  0.3821 -0.3324  0.3851
   72MOL    H1117193   0.907   5.597   3.648 -0.2770  0.0372  0.6877
   72MOL    H1217194   1.027   5.659   3.543 -1.2584 -0.3350 -0.9296
   72MOL    H1317195   1.303   5.188   3.750 -0.7828 -0.5841  0.0278
   72MOL    C1417196   1.066   5.175   3.633  0.0764  0.1713 -0.6678
   72MOL    C1517197   0.928   5.173   3.575  0.0685  0.2408  0.4590
   72MOL    C1617198   0.918   5.076   3.456  0.1693 -0.4258 -0.6578
   72MOL    O1717199   0.898   4.956   3.465  0.3278 -0.0824 -0.3408
   72MOL    O1817200   0.952   5.145   3.344 -0.2121  0.0200  0.1046
   72MOL    C1917201   0.938   5.098   3.210 -0.5037 -0.4384  0.4303
   72MOL    H2017202   1.142   5.181   3.555  0.0557  1.1948 -0.6065
   72MOL    H2117203   1.084   5.076   3.676 -2.2686  0.3087  0.7156
   72MOL    H2217204   0.890   5.266   3.533 -0.6307  0.3423  1.3018
   72MOL    H2317205   1.036   5.094   3.163 -1.2679 -2.7142 -1.0386
   72MOL    H2417206   0.872   5.156   3.145  1.9523  0.9528 -0.9017
   72MOL    H2517207   0.894   4.998   3.210 -0.5624 -0.4214  1.4740
   72MOL    C2617208   0.828   5.126   3.682  0.0495  0.1184 -0.1331
   72MOL    C2717209   0.675   5.151   3.652 -0.5203  0.3288 -0.1763
   72MOL    C2817210   0.582   5.081   3.754 -0.0476 -0.6674 -0.2318
   72MOL    O2917211   0.516   4.980   3.716 -0.4452  0.8794  0.6712
   72MOL    O3017212   0.596   5.124   3.878 -0.1710  0.0027  0.2311
   72MOL    C3117213   0.531   5.040   3.972 -0.3225  0.3203  0.1335
   72MOL    H3217214   0.837   5.023   3.715  4.8566  0.2407 -0.6177
   72MOL    H3317215   0.849   5.176   3.777  0.3014 -1.0244  0.4192
   72MOL    H3417216   0.647   5.106   3.557 -1.7221 -0.2700  0.4590
   72MOL    H3517217   0.557   4.934   3.960  2.4001  0.8473  0.9796
   72MOL    H3617218   0.423   5.034   3.956 -0.1649  1.3437 -1.4390
   72MOL    H3717219   0.539   5.063   4.078  0.2590 -2.8843  0.8446
   72MOL    C3817220   0.645   5.302   3.655  0.1663 -0.0714 -0.7008
   72MOL    C3917221   0.638   5.370   3.515 -0.1832  0.0719  0.3027
   72MOL    C4017222   0.518   5.319   3.430 -0.3963  0.0575  0.6997
   72MOL    O4117223   0.541   5.259   3.328  0.2423 -0.0825 -0.0414
   72MOL    O4217224   0.402   5.348   3.478  0.7693  0.0338 -0.0712
   72MOL    C4317225   0.276   5.314   3.415 -0.5670  0.0175 -0.4237
   72MOL    H4417226   0.551   5.324   3.706  0.6849 -0.5968  0.4891
   72MOL    H4517227   0.714   5.362   3.713  0.7072 -0.0972 -1.3140
   72MOL    H4617228   0.723   5.339   3.455 -0.2058  0.2968  0.1507
   72MOL    H4717229   0.282   5.206   3.405 -0.3039 -0.0624  0.5718
   72MOL    H4817230   0.262   5.373   3.324 -1.9581 -0.6608 -0.6665
   72MOL    H4917231   0.204   5.333   3.494 -1.3630  2.5253 -1.6742
   72MOL    C5017232   0.631   5.523   3.537  0.1425 -0.0221 -0.1684
   72MOL    C5117233   0.671   5.601   3.412  0.2094  0.1271 -0.2833
   72MOL    C5217234   0.650   5.750   3.439 -0.0261  0.2002  0.2024
   72MOL    O5317235   0.566   5.813   3.377  0.4910 -0.0373 -0.0005
   72MOL    O5417236   0.720   5.805   3.536 -0.3506 -0.0164 -0.2743
   72MOL    C5517237   0.739   5.946   3.532 -0.2219 -0.5455  0.2431
   72MOL    H5617238   0.530   5.559   3.557 -0.8671 -2.5376 -0.4860
   72MOL    H5717239   0.692   5.557   3.620 -0.0459  2.0220 -0.8357
   72MOL    H5817240   0.601   5.583   3.330 -0.7523 -0.6978  0.6928
   72MOL    H5917241   0.766   6.000   3.623 -0.2602 -0.5139  0.2363
   72MOL    H6017242   0.639   5.986   3.512 -0.0020 -0.0964  0.0314
   72MOL    H6117243   0.809   5.969   3.452 -0.5661 -0.0748  0.0687
   72MOL    C6217244   0.806   5.554   3.350 -0.0715 -0.3594  0.5171
   72MOL    C6317245   0.873   5.645   3.243 -0.6882  0.2864  0.1350
   72MOL    C6417246   1.024   5.606   3.220  0.5970  0.3499 -0.2496
   72MOL    O6517247   1.112   5.693   3.236  0.0574  0.3593  0.4186
   72MOL    O6617248   1.040   5.479   3.182 -0.0422  0.0522 -0.1699
   72MOL    C6717249   1.165   5.425   3.136  0.1355  0.6741 -0.8568
   72MOL    H6817250   0.870   5.512   3.427  0.5738  2.4173  1.5778
   72MOL    H6917251   0.784   5.468   3.287 -2.4406 -0.3963  1.3501
   72MOL    H7017252   0.868   5.749   3.277  0.0572 -0.0731  1.4066
   72MOL    H7117253   1.128   5.325   3.114 -0.1727  0.7646 -0.7551
   72MOL    H7217254   1.237   5.421   3.218 -1.6972 -1.1670  0.7459
   72MOL    H7317255   1.203   5.476   3.048 -1.7760 -0.3313 -2.3075
   72MOL    C7417256   0.795   5.645   3.112 -0.6921  0.7068  0.1755
   72MOL    C7517257   0.798   5.781   3.042 -0.1962  0.3891  0.3842
   72MOL    C7617258   0.707   5.888   3.105  0.3611 -0.3710 -0.6892
   72MOL    O7717259   0.760   5.981   3.170 -0.4141 -0.1149 -0.1672
   72MOL    O7817260   0.579   5.885   3.065 -0.0113 -0.0939  0.4739
   72MOL    C7917261   0.488   5.983   3.116  0.8365 -0.6174 -0.0985
   72MOL    H8017262   0.838   5.566   3.050 -0.5551  0.0234  1.1243
   72MOL    H8117263   0.690   5.623   3.128 -1.1024  3.0551  0.8657
   72MOL    H8217264   0.743   5.756   2.951 -2.0846  0.2364  1.5359
   72MOL    H8317265   0.389   5.967   3.073  1.7900 -0.8554 -2.2400
   72MOL    H8417266   0.515   6.083   3.082  0.4035  0.0298  1.4080
   72MOL    H8517267   0.462   5.978   3.222 -3.0091  1.7673 -0.8308
   72MOL    C8617268   0.936   5.836   3.001 -0.9677 -0.2638  0.4435
   72MOL    C8717269   0.947   5.924   2.871  0.2065  0.4348 -0.2541
   72MOL    C8817270   0.897   5.847   2.748 -0.4976  0.6601 -0.5647
   72MOL    O8917271   0.775   5.842   2.727 -0.0596 -0.5682 -0.0757
   72MOL    O9017272   0.987   5.799   2.666 -0.1058 -0.7992  0.0844
   72MOL    C9117273   0.940   5.766   2.539 -0.3137 -0.9684  0.1448
   72MOL    H9217274   0.978   5.891   3.086  0.1287 -1.8371  0.9374
   72MOL    H9317275   1.000   5.748   3.003  0.6067  0.7922 -1.2796
   72MOL    H9417276   1.053   5.935   2.851  0.2466 -1.0928 -0.9525
   72MOL    H9517277   0.847   5.710   2.535  0.8211 -2.7581 -4.1417
   72MOL    H9617278   1.017   5.716   2.481  0.5154 -1.5967  1.7713
   72MOL    H9717279   0.907   5.856   2.486  3.8081 -0.4413 -1.7283
   72MOL    C9817280   0.889   6.060   2.888  0.0334  0.5326 -0.0345
   72MOL    C9917281   0.917   6.159   2.770 -0.0519  0.2748  0.0818
   72MOL   C10017282   0.799   6.252   2.751 -0.8485 -0.0507 -0.0741
   72MOL   O10117283   0.731   6.283   2.848  0.2918  0.3692 -0.2593
   72MOL   O10217284   0.792   6.300   2.623 -0.6396 -0.1603 -0.0493
   72MOL   C10317285   0.670   6.360   2.582  0.0104 -0.1503 -0.2103
   72MOL   H10417286   0.782   6.044   2.896  0.2852 -1.2496  0.1471
   72MOL   H10517287   0.917   6.101   2.985 -1.1179  1.4936 -0.0988
   72MOL   H10617288   0.920   6.094   2.683 -1.9810 -0.1723  0.3427
   72MOL   H10717289   0.635   6.350   2.480  1.1694  0.1893 -0.6467
   72MOL   H10817290   0.695   6.464   2.602  2.3353  0.0254 -3.6707
   72MOL   H10917291   0.589   6.327   2.648  0.7324  2.2638  1.9628
   72MOL   C11017292   1.054   6.238   2.780  0.1155 -0.2476 -0.0179
   72MOL   C11117293   1.183   6.159   2.738 -0.2730 -0.8091  0.2075
   72MOL   C11217294   1.197   6.152   2.584 -1.2713  0.2082 -0.8814
   72MOL   O11317295   1.291   6.201   2.529  0.0186  0.6128 -0.3521
   72MOL   O11417296   1.096   6.098   2.516 -0.1788 -0.0886 -0.8599
   72MOL   C11517297   1.086   6.106   2.374 -0.1057  0.0314 -0.1726
   72MOL   H11617298   1.061   6.326   2.716  0.0701 -0.8333 -0.8341
   72MOL   H11717299   1.062   6.275   2.883  0.6034  0.4644 -0.3061
   72MOL   H11817300   1.180   6.055   2.768 -1.3553 -0.6087  0.7932
   72MOL   H11917301   1.170   6.136   2.311  0.5847 -0.4875  0.4806
   72MOL   H12017302   0.999   6.166   2.347  0.4437  0.7470 -0.3828
   72MOL   H12117303   1.053   6.009   2.337  0.8970  0.0757 -1.2036
   72MOL   C12217304   1.309   6.205   2.809 -0.0046 -0.1481 -0.9475
   72MOL   C12317305   1.300   6.176   2.959  0.8015 -0.1886 -0.1485
   72MOL   C12417306   1.333   6.032   2.986 -0.5082  0.4276 -0.3827
   72MOL   O12517307   1.354   5.955   2.895 -0.1275 -1.0035 -0.5909
   72MOL   O12617308   1.338   6.004   3.121  0.3122 -0.1297 -0.4553
   72MOL   C12717309   1.394   5.879   3.159 -0.1803  0.3778 -0.4172
   72MOL   H12817310   1.397   6.161   2.763 -0.4401 -0.6552 -1.2992
   72MOL   H12917311   1.315   6.314   2.800  3.0784 -0.1767  0.1897
   72MOL   H13017312   1.199   6.182   3.000  0.9715 -0.4104  0.3001
   72MOL   H13117313   1.374   5.851   3.263 -0.2422  0.7607 -0.3289
   72MOL   H13217314   1.502   5.885   3.151  0.2446 -3.7986  0.5907
   72MOL   H13317315   1.352   5.803   3.092 -0.4463  1.0089 -0.9625
   72MOL   C13417316   1.386   6.270   3.049  0.5940  0.0278  0.1116
   72MOL   C13517317   1.301   6.392   3.106 -0.4140  0.7111  0.2701
   72MOL   C13617318   1.183   6.336   3.190 -0.1001 -0.0927 -0.1051
   72MOL   O13717319   1.199   6.246   3.274  0.2449  0.0425  0.4031
   72MOL   O13817320   1.074   6.403   3.167  0.6275  0.4475 -0.5911
   72MOL   C13917321   0.951   6.367   3.234  0.7911  0.1089 -0.3366
   72MOL   H14017322   1.435   6.214   3.128  0.2879 -0.2500  0.1057
   72MOL   H14117323   1.465   6.317   2.989 -0.2183  0.7256 -0.4301
   72MOL   H14217324   1.247   6.431   3.020  1.4942  0.9869 -0.8467
   72MOL   H14317325   0.981   6.346   3.337 -0.4934  3.4483  0.8109
   72MOL   H14417326   0.915   6.275   3.191  1.0034 -0.6783  1.1369
   72MOL   H14517327   0.869   6.438   3.229  1.7435  1.1545 -1.7859
   72MOL   C14617328   1.382   6.502   3.179  0.0675  0.0621  0.4023
   72MOL   C14717329   1.508   6.558   3.102 -0.0107 -0.2065 -0.0833
   72MOL   C14817330   1.458   6.601   2.962  0.0454  0.6888  0.4137
   72MOL   O14917331   1.507   6.551   2.854 -0.1304 -0.0018 -0.2610
   72MOL   O15017332   1.361   6.690   2.973 -0.0771  0.1487  0.0348
   72MOL   C15117333   1.294   6.723   2.853 -0.1413  0.0875 -0.2014
   72MOL   H15217334   1.306   6.579   3.195 -2.7192 -2.9918  2.6527
   72MOL   H15317335   1.394   6.456   3.277 -0.1058 -0.2082  0.2973
   72MOL   H15417336   1.584   6.482   3.083  1.0435  1.0505 -0.9596
   72MOL   H15517337   1.356   6.789   2.793 -1.0279  0.5054 -0.6634
   72MOL   H15617338   1.194   6.760   2.875 -0.4040 -0.7393  0.0131
   72MOL   H15717339   1.280   6.637   2.787 -2.0921  1.0697 -1.1220
   72MOL   C15817340   1.579   6.674   3.175 -0.5676 -0.0843  0.4717
   72MOL   C15917341   1.606   6.641   3.326 -0.5277  0.4384  0.5656
   72MOL   C16017342   1.712   6.530   3.345  0.2750  0.4522  0.1123
   72MOL   O16117343   1.691   6.426   3.405 -0.1816  0.0703 -0.5997
   72MOL   O16217344   1.827   6.562   3.278  0.1674 -0.0166 -0.3769
   72MOL   C16317345   1.940   6.480   3.307  0.6917  0.0608  0.7822
   72MOL   H16417346   1.675   6.699   3.128 -0.1508 -0.5446  1.0819
   72MOL   H16517347   1.525   6.769   3.171  0.1688  0.3351  0.2751
   72MOL   H16617348   1.516   6.600   3.372 -0.1311 -1.2715 -0.1542
   72MOL   H16717349   1.921   6.373   3.318  0.1961 -0.3719 -3.6434
   72MOL   H16817350   2.010   6.508   3.386  1.4348  1.5987 -0.3960
   72MOL   H16917351   2.002   6.476   3.218  1.1967 -1.2681  1.1832
   72MOL   C17017352   1.626   6.774   3.408 -0.1172  0.2891 -0.4138
   72MOL   C17117353   1.657   6.749   3.556 -0.5376  0.0824  0.3383
   72MOL   C17217354   1.792   6.799   3.586  0.1390  0.2142 -0.2763
   72MOL   O17317355   1.803   6.912   3.631  0.2465  0.2919 -0.2327
   72MOL   O17417356   1.887   6.713   3.554 -0.0279 -0.2567  0.1802
   72MOL   C17517357   2.023   6.748   3.581  0.9139 -0.4290  0.2199
   72MOL   H17617358   1.703   6.838   3.365  0.1288  0.7942  0.7812
   72MOL   H17717359   1.542   6.843   3.414 -0.7266 -0.4047 -0.7744
   72MOL   H17817360   1.681   6.645   3.577 -1.5204 -0.1004  0.5508
   72MOL   H17917361   2.034   6.783   3.684 -3.1232  2.2808 -0.1511
   72MOL   H18017362   2.044   6.840   3.527 -0.3834 -1.6693 -2.4878
   72MOL   H18117363   2.093   6.668   3.555  1.5473  0.5427 -1.1302
   72MOL   C18217364   1.552   6.812   3.659  0.1236 -0.0977 -0.9040
   72MOL   C18317365   1.417   6.744   3.669  1.1868 -0.4678 -0.1779
   72MOL   C18417366   1.425   6.588   3.693  0.4603  0.8315  0.3843
   72MOL   O18517367   1.477   6.536   3.793  0.0477 -0.5179 -0.5209
   72MOL   O18617368   1.381   6.512   3.580 -0.3450  0.2194 -0.2917
   72MOL   C18717369   1.386   6.370   3.580 -0.0296  0.0819 -0.1619
   72MOL   H18817370   1.604   6.816   3.755  0.3438 -0.7216 -1.0008
   72MOL   H18917371   1.541   6.920   3.646  1.0814  0.2722  1.0997
   72MOL   H19017372   1.386   6.756   3.566  3.3457  1.7030 -0.6366
   72MOL   H19117373   1.341   6.338   3.485  2.2217  0.8441 -1.5245
   72MOL   H19217374   1.337   6.304   3.652  2.9300 -0.4160  1.4360
   72MOL   H19317375   1.492   6.348   3.591  0.3501  2.2582  0.6957
   72MOL   C19417376   1.314   6.826   3.768 -0.0165  0.2249  0.8100
   72MOL   C19517377   1.205   6.732   3.830  0.5612  0.4452 -0.1276
   72MOL   C19617378   1.129   6.797   3.943 -0.0124  0.1554 -0.7355
   72MOL   O19717379   1.142   6.760   4.061 -0.3506 -0.5169 -0.0603
   72MOL   O19817380   1.049   6.895   3.905 -0.1914  0.5347  0.2052
   72MOL   C19917381   0.972   6.965   3.999 -1.0163  0.0049 -0.1607
   72MOL   H20017382   1.374   6.874   3.845 -0.6010  0.0702  1.3724
   72MOL   H20117383   1.272   6.914   3.719 -0.2335 -0.3563 -0.0572
   72MOL   H20217384   1.261   6.646   3.867 -1.6230 -2.0792 -2.4805
   72MOL   H20317385   1.035   7.005   4.078 -0.9451  0.0044 -0.2173
   72MOL   H20417386   0.903   6.895   4.047 -0.0314 -1.1314 -0.3776
   72MOL   H20517387   0.915   7.040   3.943  0.5361 -0.6380 -2.6704
   72MOL   C20617388   1.099   6.681   3.717  0.7907  1.3803 -0.1756
   72MOL   C20717389   1.022   6.559   3.765 -0.9480 -0.3494  0.2300
   72MOL   C20817390   0.909   6.528   3.672 -0.7914  0.2431  0.7002
   72MOL   O20917391   0.920   6.479   3.555 -1.1025  0.2791  0.0755
   72MOL   O21017392   0.788   6.555   3.731  0.1606 -0.0904  0.4895
   72MOL   C21117393   0.669   6.523   3.662 -0.3867 -0.2117 -0.3999
   72MOL   H21217394   1.043   6.765   3.675  0.8279  1.7986  0.6081
   72MOL   H21317395   1.163   6.651   3.634  2.6876  0.7764  1.4733
   72MOL   H21417396   0.973   6.585   3.858 -0.0160 -2.3121  1.2900
   72MOL   H21517397   0.671   6.592   3.578 -0.5532 -0.2905 -0.4679
   72MOL   H21617398   0.595   6.556   3.736  1.0134  0.2119  0.8416
   72MOL   H21717399   0.676   6.419   3.632 -0.7571 -0.5262  0.5532
   72MOL   C21817400   1.115   6.434   3.787  0.6751 -0.8039 -0.6817
   72MOL   C21917401   1.057   6.322   3.879  0.2515 -0.0702 -0.1496
   72MOL   C22017402   1.022   6.361   4.021  0.2431 -0.1868  0.4127
   72MOL   O22117403   0.903   6.357   4.052 -0.4071  0.2685 -0.2095
   72MOL   O22217404   1.125   6.397   4.097  0.6880 -0.1460  0.2097
   72MOL   C22317405   1.101   6.438   4.226 -0.0674 -0.6818  0.1880
   72MOL   H22417406   1.141   6.388   3.692  0.6640 -0.0432 -1.0513
   72MOL   H22517407   1.198   6.466   3.850  0.1554 -1.2617  0.2643
   72MOL   H22617408   1.146   6.264   3.902  1.2878  0.9125 -1.6227
   72MOL   H22717409   1.024   6.382   4.279 -1.0055 -0.9892 -1.4286
   72MOL   H22817410   1.082   6.545   4.234 -1.7941 -0.9303 -0.2234
   72MOL   H22917411   1.195   6.410   4.273  0.7273  0.2212 -0.8152
   72MOL   C23017412   0.948   6.232   3.801 -0.2243  0.4159 -0.4656
   72MOL   C23117413   0.980   6.081   3.813 -0.2282 -0.0680 -0.2288
   72MOL   C23217414   1.087   6.039   3.713  0.8314 -0.4951  0.2811
   72MOL   O23317415   1.204   6.020   3.742 -0.1451  0.3198 -0.5045
   72MOL   O23417416   1.031   6.017   3.588 -0.5164 -0.0568 -0.5030
   72MOL   C23517417   1.120   5.972   3.484 -0.2315 -0.8964 -0.4334
   72MOL   H23617418   0.845   6.253   3.830  0.3173  0.7025  1.3492
   72MOL   H23717419   0.956   6.254   3.695 -1.3141  0.0889 -0.6189
   72MOL   H23817420   0.891   6.022   3.792 -1.9936  2.8654 -1.2518
   72MOL   H23917421   1.211   6.032   3.488 -1.7186  1.3150  1.3482
   72MOL   H24017422   1.069   5.987   3.388  0.2883 -0.5745 -0.6593
   72MOL   H24117423   1.156   5.870   3.493  3.6526  0.1007 -3.3838
   72MOL   H24217424   1.008   6.059   3.916  0.5251 -1.7454 -0.7651
   73MOL     C117425   2.196   7.882   2.906 -0.2650  0.3439  0.0379
   73MOL     C217426   2.201   0.026   3.041 -0.1270  0.0532 -0.8259
   73MOL     C317427   2.261   7.874   3.156  0.4913  0.0791  1.0006
   73MOL     O417428   2.218   7.870   3.274  0.3384 -0.1493 -0.0560
   73MOL     O517429   2.375   7.810   3.121 -0.2306 -0.0323  0.1451
   73MOL     C617430   2.421   7.707   3.198 -0.3662  0.1732  0.0036
   73MOL     H717431   2.297   7.868   2.868 -0.9491  0.6116 -1.9324
   73MOL     H817432   2.142   0.005   2.830 -0.6387 -0.8759 -0.6110
   73MOL     H917433   2.099   0.049   3.070  1.1575  3.7843  0.9732
   73MOL    H1017434   2.519   7.743   3.231  0.3704  0.1824 -2.1105
   73MOL    H1117435   2.430   7.611   3.149 -0.1019 -0.5341  1.4309
   73MOL    H1217436   2.357   7.678   3.281  1.7962 -0.2808  1.5447
   73MOL    H1317437   2.149   7.785   2.920 -1.1032  0.5265 -1.4503
   73MOL    C1417438   2.285   0.157   3.025 -0.2833  0.0992  0.4257
   73MOL    C1517439   2.279   0.250   3.144  0.0020 -0.2623  0.3154
   73MOL    C1617440   2.413   0.327   3.161 -0.4608 -0.1937 -0.0077
   73MOL    O1717441   2.429   0.445   3.112  0.1362 -0.3530  0.0714
   73MOL    O1817442   2.505   0.261   3.239 -0.2027 -0.2195  0.6549
   73MOL    C1917443   2.627   0.317   3.276  0.2467 -0.2727  0.6114
   73MOL    H2017444   2.387   0.120   3.014  0.3413  1.5030  1.2746
   73MOL    H2117445   2.248   0.212   2.939  1.4613  1.6774  0.6341
   73MOL    H2217446   2.286   0.185   3.232  1.2041 -0.9682 -0.2802
   73MOL    H2317447   2.708   0.282   3.212 -2.5545 -1.2301 -2.5535
   73MOL    H2417448   2.664   0.276   3.371 -1.2991  1.5746  2.0437
   73MOL    H2517449   2.624   0.425   3.281  0.2591 -0.2845  0.8681
   73MOL    C2617450   2.151   0.343   3.146 -0.2160  0.3600 -0.3825
   73MOL    C2717451   2.134   0.439   3.263  0.0315 -0.5502  0.2873
   73MOL    C2817452   2.004   0.516   3.255 -0.1010 -0.1763  0.4224
   73MOL    O2917453   2.005   0.635   3.225  0.3598  0.3341 -0.1531
   73MOL    O3017454   1.898   0.444   3.282  0.4530  0.2181 -0.3487
   73MOL    C3117455   1.773   0.511   3.283 -0.3478 -0.2321 -0.5685
   73MOL    H3217456   2.162   0.410   3.061 -1.2506  2.7476  1.3110
   73MOL    H3317457   2.063   0.281   3.130  0.5596  0.0273 -3.7561
   73MOL    H3417458   2.214   0.511   3.250  0.1332 -0.9502 -1.4051
   73MOL    H3517459   1.698   0.443   3.324  0.0832  0.2584  1.0818
   73MOL    H3617460   1.748   0.559   3.188 -0.2711 -0.0520 -0.4953
   73MOL    H3717461   1.790   0.586   3.360 -1.9636 -0.8474  0.4145
   73MOL    C3817462   2.158   0.373   3.400 -0.5764 -0.3134  0.7817
   73MOL    C3917463   2.255   0.461   3.493  0.3079  0.5498 -0.4590
   73MOL    C4017464   2.189   0.572   3.576 -0.6166  0.2615  0.7725
   73MOL    O4117465   2.145   0.561   3.687  0.2207  1.0227 -0.3966
   73MOL    O4217466   2.187   0.681   3.504 -0.1147  0.3381  0.1831
   73MOL    C4317467   2.096   0.779   3.542 -0.6660  0.1123 -0.5217
   73MOL    H4417468   2.065   0.355   3.456 -0.3001  1.4846  1.8716
   73MOL    H4517469   2.203   0.275   3.389 -0.0220 -0.3356  3.0696
   73MOL    H4617470   2.332   0.500   3.426 -1.4157  1.2926 -2.0366
   73MOL    H4717471   1.996   0.739   3.532 -0.7909 -1.2294  4.5460
   73MOL    H4817472   2.110   0.859   3.470  2.2140  0.4318  0.3252
   73MOL    H4917473   2.121   0.811   3.644  0.5006 -1.9589 -0.1154
   73MOL    C5017474   2.328   0.365   3.594  0.5025  0.0641  1.1436
   73MOL    C5117475   2.443   0.426   3.689 -0.0751 -0.1127 -0.1422
   73MOL    C5217476   2.495   0.318   3.785  0.3131 -0.0272 -0.3052
   73MOL    O5317477   2.459   0.200   3.774  0.3440 -0.1356  0.0239
   73MOL    O5417478   2.592   0.372   3.870  0.4326  0.2098  0.4869
   73MOL    C5517479   2.647   0.288   3.961 -0.3624  0.1991 -0.3690
   73MOL    H5617480   2.250   0.317   3.653 -1.1452 -2.3745 -2.7901
   73MOL    H5717481   2.371   0.283   3.536 -1.3027  0.3581 -0.7011
   73MOL    H5817482   2.396   0.495   3.760  0.0285  1.0673 -1.2063
   73MOL    H5917483   2.700   0.211   3.905  0.5260  0.0530  0.6384
   73MOL    H6017484   2.575   0.238   4.025 -1.3167  0.7110 -1.0317
   73MOL    H6117485   2.717   0.338   4.028 -1.3130 -0.0405  0.8206
   73MOL    C6217486   2.551   0.512   3.613  0.0694  0.3376  0.0779
   73MOL    C6317487   2.517   0.657   3.563  0.0452  0.2162  0.3557
   73MOL    C6417488   2.501   0.748   3.689  0.2302  0.5384 -0.0478
   73MOL    O6517489   2.407   0.830   3.697 -0.4531  0.5089  0.4103
   73MOL    O6617490   2.598   0.733   3.780 -0.3749  0.4065 -0.0608
   73MOL    C6717491   2.601   0.816   3.891 -0.9507  0.6173  0.1158
   73MOL    H6817492   2.638   0.516   3.678  0.6867  1.6077 -0.8043
   73MOL    H6917493   2.583   0.452   3.527  2.3714  2.0322 -0.2813
   73MOL    H7017494   2.422   0.665   3.511  0.5389  1.3679 -0.3920
   73MOL    H7117495   2.648   0.913   3.872  1.0587 -0.2366  0.6037
   73MOL    H7217496   2.670   0.769   3.960 -1.2611 -0.3409 -0.2205
   73MOL    H7317497   2.502   0.838   3.932 -0.4424  0.1786  1.6091
   73MOL    C7417498   2.638   0.716   3.484  0.3593 -0.7373 -0.1064
   73MOL    C7517499   2.595   0.818   3.377  0.0751  0.9598 -0.1369
   73MOL    C7617500   2.705   0.925   3.359 -0.1321 -0.0245 -0.4415
   73MOL    O7717501   2.677   1.046   3.347 -0.0337  0.1676 -0.0449
   73MOL    O7817502   2.827   0.867   3.362 -0.1656  0.0923 -0.1754
   73MOL    C7917503   2.946   0.944   3.352  0.1782  0.1280  0.6017
   73MOL    H8017504   2.717   0.753   3.550 -0.3608 -0.6262  0.7103
   73MOL    H8117505   2.685   0.637   3.426  0.0282  0.5292 -2.1615
   73MOL    H8217506   2.511   0.872   3.421  1.5030  1.3601  2.1906
   73MOL    H8317507   2.987   0.920   3.253  0.8070 -1.3907  1.2177
   73MOL    H8417508   3.037   0.919   3.407  0.3584 -2.5905 -0.8390
   73MOL    H8517509   2.911   1.047   3.359 -2.4690 -0.6846 -0.3833
   73MOL    C8617510   2.533   0.752   3.250 -0.3395 -0.0027  0.0414
   73MOL    C8717511   2.447   0.853   3.169  0.0472  0.5209 -0.4840
   73MOL    C8817512   2.473   0.840   3.014 -0.6186 -0.3507 -0.1194
   73MOL    O8917513   2.379   0.838   2.935 -0.4053 -0.0178  0.0469
   73MOL    O9017514   2.604   0.839   2.991 -0.0150 -0.2224  0.9615
   73MOL    C9117515   2.648   0.822   2.855  0.2475 -0.4235  0.0744
   73MOL    H9217516   2.612   0.712   3.187 -1.1031 -1.5738  0.0581
   73MOL    H9317517   2.481   0.657   3.265  1.1116 -0.9254 -0.6824
   73MOL    H9417518   2.487   0.953   3.188 -0.1444  0.9494 -2.2134
   73MOL    H9517519   2.716   0.737   2.866  0.8650 -0.2213 -1.9637
   73MOL    H9617520   2.705   0.910   2.826 -0.3483  0.3207  1.1263
   73MOL    H9717521   2.565   0.799   2.789  0.7190 -1.4179 -0.1981
   73MOL    C9817522   2.297   0.845   3.208  0.1655 -0.6843 -0.6404
   73MOL    C9917523   2.218   0.974   3.217 -0.0980 -0.4398 -0.6018
   73MOL   C10017524   2.284   1.074   3.314 -0.0689 -0.3849 -0.5102
   73MOL   O10117525   2.351   1.166   3.278  0.5001 -0.1659  0.3860
   73MOL   O10217526   2.275   1.041   3.443 -0.1766  0.3745 -0.1989
   73MOL   C10317527   2.339   1.116   3.544  0.0153 -0.2233 -0.9266
   73MOL   H10417528   2.249   0.776   3.139 -1.0360  0.7893 -1.3092
   73MOL   H10517529   2.285   0.804   3.309  0.4136  0.5234 -0.1087
   73MOL   H10617530   2.121   0.959   3.262 -0.3146  0.0888 -0.8827
   73MOL   H10717531   2.440   1.082   3.568 -0.0203 -0.1646 -0.6915
   73MOL   H10817532   2.278   1.114   3.634  0.5354 -0.1625 -0.5722
   73MOL   H10917533   2.349   1.221   3.514 -3.1495  0.2715 -0.4110
   73MOL   C11017534   2.177   1.025   3.073  0.5932 -0.0087  0.3038
   73MOL   C11117535   2.078   1.153   3.044 -0.0264  0.1530  0.4604
   73MOL   C11217536   2.106   1.279   3.129 -0.1980 -0.2567  0.3611
   73MOL   O11317537   2.165   1.374   3.081  0.0108 -0.2926  0.1795
   73MOL   O11417538   2.042   1.283   3.251 -0.4359 -0.4654  0.4643
   73MOL   C11517539   2.064   1.402   3.334  0.4155  0.5840  0.3407
   73MOL   H11617540   2.270   1.067   3.035 -0.1706  0.5563 -0.9832
   73MOL   H11717541   2.143   0.933   3.024  2.8853 -0.9685  0.4894
   73MOL   H11817542   1.977   1.121   3.071  0.4809 -0.5919  1.4860
   73MOL   H11917543   1.988   1.396   3.412 -0.4039 -1.3649 -0.5979
   73MOL   H12017544   2.066   1.499   3.284  1.3091  1.0042  1.1647
   73MOL   H12117545   2.166   1.386   3.371  0.6870 -0.9773 -1.0401
   73MOL   C12217546   2.066   1.181   2.897  0.1591  0.2974 -0.3992
   73MOL   C12317547   2.017   1.072   2.804 -0.9101  0.7139 -1.0441
   73MOL   C12417548   1.869   1.047   2.833 -0.1906  0.7673  0.1922
   73MOL   O12517549   1.817   0.935   2.828  0.8492  0.6063  0.6494
   73MOL   O12617550   1.796   1.159   2.846  0.0922 -0.0879 -0.3925
   73MOL   C12717551   1.655   1.150   2.882 -0.2061 -0.1843 -0.5549
   73MOL   H12817552   2.013   1.272   2.870 -0.0916  0.1104 -0.5403
   73MOL   H12917553   2.171   1.186   2.870  0.4970 -0.8821  0.6758
   73MOL   H13017554   2.076   0.981   2.814 -0.9657  0.8263  0.4950
   73MOL   H13117555   1.592   1.114   2.800 -0.6167 -1.0449  0.1299
   73MOL   H13217556   1.614   1.246   2.912 -0.2337 -0.2911 -0.2464
   73MOL   H13317557   1.640   1.084   2.968 -0.1971  1.5208  0.7666
   73MOL   C13417558   2.024   1.113   2.652 -0.3650 -0.1446  0.8671
   73MOL   C13517559   2.160   1.098   2.574 -0.1489  0.1473  0.6134
   73MOL   C13617560   2.191   0.956   2.535 -0.1260  0.3256  0.3079
   73MOL   O13717561   2.178   0.915   2.418 -0.1473 -0.0644 -0.3536
   73MOL   O13817562   2.232   0.890   2.641 -0.6787  0.3927  0.2847
   73MOL   C13917563   2.272   0.755   2.632  0.3036 -0.4087  0.4468
   73MOL   H14017564   1.944   1.061   2.598  1.0639 -1.0683 -0.3920
   73MOL   H14117565   1.984   1.214   2.650  0.6592  0.2375 -1.0041
   73MOL   H14217566   2.235   1.135   2.645  0.6601 -4.6873  2.4404
   73MOL   H14317567   2.380   0.739   2.636  0.1533 -1.0538  1.9785
   73MOL   H14417568   2.238   0.716   2.536  1.9954 -1.2938  0.1819
   73MOL   H14517569   2.224   0.696   2.709 -0.5117  1.1361  1.1617
   73MOL   C14617570   2.153   1.184   2.446  0.6997 -0.6860  0.1676
   73MOL   C14717571   2.281   1.209   2.374 -0.2604 -0.0262  0.3351
   73MOL   C14817572   2.254   1.234   2.222 -0.1431 -0.8301 -0.2658
   73MOL   O14917573   2.140   1.260   2.181  0.2690 -0.2514  0.1319
   73MOL   O15017574   2.364   1.216   2.142 -0.0910 -0.2815  0.0974
   73MOL   C15117575   2.344   1.184   2.007  0.1421  0.1625  0.2555
   73MOL   H15217576   2.068   1.157   2.383 -0.0313  0.8459  0.4597
   73MOL   H15317577   2.125   1.284   2.481 -0.6503 -1.3920  1.1635
   73MOL   H15417578   2.327   1.110   2.370 -1.2772 -0.4427 -1.8925
   73MOL   H15517579   2.448   1.176   1.976  0.0422 -0.6484  0.1377
   73MOL   H15617580   2.289   1.261   1.953 -1.0188 -0.2723  0.8028
   73MOL   H15717581   2.284   1.095   1.988 -0.8987  0.6180  1.2899
   73MOL   C15817582   2.377   1.326   2.436  0.4321  0.1654  0.4933
   73MOL   C15917583   2.515   1.271   2.493 -0.4431  0.2603  0.8065
   73MOL   C16017584   2.504   1.181   2.616  0.3735 -0.1299  0.2286
   73MOL   O16117585   2.533   1.061   2.625  0.2078 -0.2966  0.0225
   73MOL   O16217586   2.467   1.241   2.717 -0.4880 -0.4735 -0.3666
   73MOL   C16317587   2.467   1.171   2.842 -0.1663 -0.6077 -0.5060
   73MOL   H16417588   2.393   1.407   2.364 -0.6011 -1.5169 -1.6993
   73MOL   H16517589   2.320   1.374   2.516  1.6786  0.3192  1.3066
   73MOL   H16617590   2.561   1.360   2.534  0.6881 -0.8084  1.8828
   73MOL   H16717591   2.412   1.077   2.833  1.7518 -1.6639 -1.4204
   73MOL   H16817592   2.439   1.239   2.923  3.6050 -0.6099  0.8935
   73MOL   H16917593   2.571   1.147   2.863 -0.0379  1.4830  1.5212
   73MOL   C17017594   2.598   1.207   2.373 -0.6767 -0.2745 -0.1552
   73MOL   C17117595   2.741   1.167   2.411 -0.1781  0.3625  0.0753
   73MOL   C17217596   2.801   1.113   2.282  0.0298  0.0246 -0.7191
   73MOL   O17317597   2.733   1.084   2.181  0.3734 -0.0648 -0.3398
   73MOL   O17417598   2.940   1.091   2.282 -0.0598  0.0500 -0.7544
   73MOL   C17517599   3.010   1.054   2.162  0.0198 -0.4313  0.0161
   73MOL   H17617600   2.533   1.127   2.338 -1.3501 -0.5149  1.6028
   73MOL   H17717601   2.603   1.285   2.296 -1.6269  1.7798  1.8047
   73MOL   H17817602   2.750   1.077   2.472  0.1532 -0.0147 -0.5320
   73MOL   H17917603   3.064   1.138   2.119 -0.8544  0.5394  0.7785
   73MOL   H18017604   2.941   1.009   2.090  1.0129 -1.7128 -0.1399
   73MOL   H18117605   3.085   0.978   2.183  0.8291  0.6652  1.1910
   73MOL   C18217606   2.820   1.275   2.477  0.3135  0.7037 -0.5944
   73MOL   C18317607   2.882   1.397   2.393 -0.4081  0.2161  0.4496
   73MOL   C18417608   2.776   1.499   2.371  0.0477 -0.7455 -0.1592
   73MOL   O18517609   2.742   1.530   2.258  0.0086  0.6002  0.2661
   73MOL   O18617610   2.713   1.537   2.478 -0.0607  0.1124 -0.6040
   73MOL   C18717611   2.605   1.637   2.474 -0.8000 -0.5498 -0.6524
   73MOL   H18817612   2.769   1.312   2.566 -1.6681  1.3137 -1.9341
   73MOL   H18917613   2.902   1.224   2.526  0.6428  1.6919 -0.0949
   73MOL   H19017614   2.911   1.370   2.292  0.2830 -1.6599  1.1415
   73MOL   H19117615   2.559   1.625   2.572  2.0746 -0.2928  0.7614
   73MOL   H19217616   2.520   1.623   2.407 -1.1717  0.8048 -0.4766
   73MOL   H19317617   2.636   1.740   2.459 -1.8039 -0.2643 -0.8471
   73MOL   C19417618   3.002   1.470   2.472 -0.3619  0.0088  0.0897
   73MOL   C19517619   3.133   1.384   2.475  0.4010 -0.0978 -0.4633
   73MOL   C19617620   3.194   1.398   2.334 -1.1312 -0.3793  0.0335
   73MOL   O19717621   3.225   1.505   2.286 -0.1137 -0.4530 -0.2666
   73MOL   O19817622   3.203   1.284   2.275 -0.5124 -0.0444 -0.0815
   73MOL   C19917623   3.291   1.269   2.163  0.3225  0.3649  0.2651
   73MOL   H20017624   3.023   1.570   2.434  1.4600 -0.7393 -0.9635
   73MOL   H20117625   2.963   1.477   2.573  0.0111  2.0664  0.1059
   73MOL   H20217626   3.098   1.281   2.480 -1.2860  0.4866  0.5428
   73MOL   H20317627   3.396   1.279   2.191  0.5153 -1.2549  0.1488
   73MOL   H20417628   3.287   1.351   2.091  0.1365  0.8344  0.8057
   73MOL   H20517629   3.273   1.172   2.117 -1.7635  0.8929 -0.0680
   73MOL   C20617630   3.225   1.431   2.596  0.3189  0.6662 -0.0870
   73MOL   C20717631   3.347   1.349   2.646  0.5519  0.8039 -0.1606
   73MOL   C20817632   3.473   1.384   2.567  0.1643 -0.0841  0.6051
   73MOL   O20917633   3.534   1.486   2.599  0.1887 -0.7705 -0.1327
   73MOL   O21017634   3.500   1.304   2.467 -0.1380  0.6004 -0.1873
   73MOL   C21117635   3.615   1.344   2.382  0.6595  0.0347 -0.1931
   73MOL   H21217636   3.256   1.536   2.596 -0.9566  1.0658 -1.7869
   73MOL   H21317637   3.156   1.437   2.681  0.7368  0.4485  0.2706
   73MOL   H21417638   3.325   1.244   2.628  0.7528  0.8217 -0.5410
   73MOL   H21517639   3.610   1.285   2.290 -1.7509  0.8268 -0.6020
   73MOL   H21617640   3.714   1.326   2.424  0.6894  1.2760  0.2640
   73MOL   H21717641   3.607   1.447   2.350 -0.9179  0.4081  1.3297
   73MOL   C21817642   3.380   1.364   2.801 -0.1390  0.0764 -0.0983
   73MOL   C21917643   3.407   1.228   2.871  0.1536  0.1934  0.3941
   73MOL   C22017644   3.527   1.160   2.809 -0.1287 -0.2094  0.0392
   73MOL   O22117645   3.512   1.056   2.738  0.1131  0.3131  0.0363
   73MOL   O22217646   3.643   1.219   2.831  0.0741 -0.0203 -0.3465
   73MOL   C22317647   3.750   1.180   2.742  0.8422  0.4260  0.3459
   73MOL   H22417648   3.454   1.440   2.826  1.2480 -0.8724 -1.2133
   73MOL   H22517649   3.288   1.387   2.853  0.0043  0.2954  0.0576
   73MOL   H22617650   3.324   1.157   2.864  0.7689 -0.5297  0.4037
   73MOL   H22717651   3.718   1.198   2.639  1.6467 -0.6411 -0.1009
   73MOL   H22817652   3.775   1.073   2.741 -0.4019  0.0984 -2.5249
   73MOL   H22917653   3.836   1.242   2.767  1.5090  0.4879 -1.9576
   73MOL   C23017654   3.426   1.234   3.019 -0.0698 -0.0858  0.1365
   73MOL   C23117655   3.409   1.108   3.102 -0.2775 -0.1184  0.2997
   73MOL   C23217656   3.303   1.124   3.219 -0.4460 -0.1228  0.0562
   73MOL   O23317657   3.187   1.088   3.200 -0.1819 -0.0775  0.0341
   73MOL   O23417658   3.354   1.172   3.331  0.0839  0.1633 -0.1123
   73MOL   C23517659   3.261   1.177   3.441  0.6970 -0.0991  0.3982
   73MOL   H23617660   3.526   1.275   3.033  0.1159 -0.0386 -1.2691
   73MOL   H23717661   3.355   1.307   3.059 -0.4950  0.2891 -1.2868
   73MOL   H23817662   3.502   1.067   3.141 -1.6839 -1.2988  2.5187
   73MOL   H23917663   3.321   1.216   3.523 -3.1725  1.2222  2.7512
   73MOL   H24017664   3.236   1.074   3.467  0.7600 -0.1027  0.4439
   73MOL   H24117665   3.171   1.233   3.416  0.2969 -0.8340  0.1690
   73MOL   H24217666   3.368   1.031   3.035  0.1944  2.1256 -2.6588
   74MOL     C117667   4.036   1.459   5.694  0.5431 -0.4271  0.4415
   74MOL     C217668   3.950   1.565   5.758  0.6032  0.2808 -0.5916
   74MOL     C317669   3.880   1.649   5.646  0.7006  0.5424  0.4918
   74MOL     O417670   3.911   1.768   5.628  0.2750 -0.4789 -0.1179
   74MOL     O517671   3.822   1.577   5.553  0.7949 -0.1853  0.3324
   74MOL     C617672   3.752   1.646   5.450  0.0581 -0.0040  0.3032
   74MOL     H717673   4.088   1.492   5.604 -1.2193 -0.0995 -0.4979
   74MOL     H817674   3.986   1.363   5.680  1.3886 -0.9894  1.2655
   74MOL     H917675   4.010   1.642   5.807 -0.6959  0.6763  0.3997
   74MOL    H1017676   3.813   1.727   5.410  0.0015  1.1017  2.3984
   74MOL    H1117677   3.658   1.681   5.491 -0.5123 -1.0952 -0.0513
   74MOL    H1217678   3.731   1.566   5.378  0.1233  1.3331 -1.2385
   74MOL    H1317679   4.100   1.426   5.776  0.4090  1.3350  1.2709
   74MOL    C1417680   3.852   1.511   5.868 -0.4299  0.5449  1.0383
   74MOL    C1517681   3.921   1.475   6.004 -0.0387 -0.1076  0.1177
   74MOL    C1617682   3.983   1.596   6.073 -0.1200 -0.2216 -0.1459
   74MOL    O1717683   4.101   1.593   6.112 -0.4430 -0.2035  0.0099
   74MOL    O1817684   3.898   1.704   6.082 -0.6130 -0.1073 -0.1303
   74MOL    C1917685   3.950   1.831   6.122 -0.2358  0.6394  0.0078
   74MOL    H2017686   3.782   1.592   5.887 -0.0293  0.3467  3.4217
   74MOL    H2117687   3.799   1.424   5.830  0.8109  0.4389 -0.5334
   74MOL    H2217688   3.999   1.401   5.988 -0.9912 -1.0320 -0.3031
   74MOL    H2317689   3.982   1.808   6.224 -1.6459 -0.4069  0.2281
   74MOL    H2417690   3.862   1.893   6.136 -0.6980  0.1492 -0.7293
   74MOL    H2517691   4.019   1.884   6.056  0.6364 -1.7649 -1.0785
   74MOL    C2617692   3.830   1.384   6.092  0.4486 -0.0561 -0.6508
   74MOL    C2717693   3.902   1.326   6.216 -0.5221  0.2504  0.0748
   74MOL    C2817694   3.804   1.296   6.332 -0.6552  0.1413 -0.1511
   74MOL    O2917695   3.814   1.357   6.439  0.1634  0.0751 -0.4053
   74MOL    O3017696   3.710   1.206   6.302 -0.7881  0.5882  0.0040
   74MOL    C3117697   3.605   1.178   6.390  0.1153  0.1367  0.0141
   74MOL    H3217698   3.735   1.432   6.114 -0.6282 -2.0073 -0.9536
   74MOL    H3317699   3.799   1.305   6.023  1.9756 -0.1777 -1.2159
   74MOL    H3417700   3.972   1.393   6.266 -0.1606 -1.3954  1.8345
   74MOL    H3517701   3.533   1.254   6.362 -1.1501 -0.8149  0.6416
   74MOL    H3617702   3.640   1.179   6.494  0.3230 -0.2233 -0.0496
   74MOL    H3717703   3.555   1.084   6.367  2.9692 -1.1254 -1.1992
   74MOL    C3817704   3.993   1.205   6.190  1.0215 -0.1386 -0.5328
   74MOL    C3917705   4.096   1.158   6.295  0.2359  0.2624  0.1963
   74MOL    C4017706   4.152   1.017   6.265  0.3635  0.3188 -1.0217
   74MOL    O4117707   4.167   0.977   6.150 -0.0501  0.1239  0.2733
   74MOL    O4217708   4.176   0.946   6.374 -0.1337 -0.3306  0.4052
   74MOL    C4317709   4.240   0.829   6.356  0.1246 -0.1128  0.4575
   74MOL    H4417710   3.929   1.119   6.172 -0.1992  0.6696 -0.1238
   74MOL    H4517711   4.038   1.220   6.092 -0.6695  2.0428 -1.0332
   74MOL    H4617712   4.039   1.160   6.387 -1.5050 -1.9158 -0.7865
   74MOL    H4717713   4.317   0.834   6.279 -1.8065 -0.3471 -1.5336
   74MOL    H4817714   4.169   0.749   6.339  1.9709 -1.5622 -0.5871
   74MOL    H4917715   4.273   0.785   6.449  0.7474 -1.5596 -0.4358
   74MOL    C5017716   4.218   1.264   6.284 -0.3010  0.7959 -0.2613
   74MOL    C5117717   4.260   1.340   6.416  0.6906  0.5347 -0.1065
   74MOL    C5217718   4.278   1.245   6.539 -0.1168 -1.0354 -0.4094
   74MOL    O5317719   4.198   1.249   6.632  0.2838 -0.4895  0.4623
   74MOL    O5417720   4.384   1.161   6.532 -0.4601 -0.2533 -0.6992
   74MOL    C5517721   4.413   1.071   6.638 -0.5529 -0.6648  0.8223
   74MOL    H5617722   4.308   1.218   6.245 -0.6628  0.2833 -0.4845
   74MOL    H5717723   4.178   1.344   6.221 -2.5015  0.0920  0.2047
   74MOL    H5817724   4.170   1.396   6.440 -0.9692 -1.1200 -2.2818
   74MOL    H5917725   4.404   1.107   6.740 -0.3604 -1.1662  1.0142
   74MOL    H6017726   4.519   1.053   6.618 -1.0315 -1.6327 -0.9991
   74MOL    H6117727   4.364   0.974   6.630 -1.5174 -0.3047  2.2449
   74MOL    C6217728   4.384   1.433   6.397  0.1739 -0.0592  0.7112
   74MOL    C6317729   4.354   1.576   6.350  0.4386  0.3940  0.3639
   74MOL    C6417730   4.305   1.665   6.464 -0.2813  0.6213 -0.0314
   74MOL    O6517731   4.316   1.645   6.581  0.1894 -0.1923  0.6275
   74MOL    O6617732   4.236   1.771   6.409 -0.3271  0.1128  0.1300
   74MOL    C6717733   4.150   1.843   6.494 -0.0332  1.1449  0.7330
   74MOL    H6817734   4.441   1.449   6.489  1.7189 -0.3938 -0.1685
   74MOL    H6917735   4.461   1.394   6.330  0.1251  0.1096  0.5592
   74MOL    H7017736   4.266   1.567   6.286  0.3480 -2.2249  0.8056
   74MOL    H7117737   4.054   1.865   6.447  0.9794 -2.6527 -3.5134
   74MOL    H7217738   4.198   1.935   6.528  2.0971 -0.6888  2.8248
   74MOL    H7317739   4.123   1.781   6.579 -2.6036 -0.1496 -0.9556
   74MOL    C7417740   4.476   1.629   6.265  0.1126 -0.7473  0.7180
   74MOL    C7517741   4.462   1.772   6.189 -0.3187 -0.1183  0.2109
   74MOL    C7617742   4.600   1.822   6.150 -0.1936 -0.2497  0.3236
   74MOL    O7717743   4.636   1.935   6.166  0.6048  0.1985 -0.2519
   74MOL    O7817744   4.677   1.729   6.086  0.4795  0.1930  0.2454
   74MOL    C7917745   4.817   1.754   6.055 -0.0899 -0.3594  0.5139
   74MOL    H8017746   4.566   1.631   6.326  0.3804 -0.6628  0.3170
   74MOL    H8117747   4.492   1.547   6.195  1.3504 -0.4794  0.6843
   74MOL    H8217748   4.437   1.840   6.270  2.1045  0.9787  0.0773
   74MOL    H8317749   4.877   1.720   6.140 -2.7515 -1.0981  2.1957
   74MOL    H8417750   4.833   1.859   6.032  1.9730 -0.1691  2.6458
   74MOL    H8517751   4.851   1.706   5.964 -2.5938 -1.2850  0.0339
   74MOL    C8617752   4.360   1.774   6.072 -0.0409 -0.1365 -0.8284
   74MOL    C8717753   4.378   1.875   5.949  0.5738 -0.1935  0.0188
   74MOL    C8817754   4.279   1.850   5.829 -0.0484 -0.0120 -0.1767
   74MOL    O8917755   4.166   1.802   5.850 -0.0716 -0.4096 -0.1400
   74MOL    O9017756   4.330   1.872   5.711 -0.7272 -0.2048  0.4788
   74MOL    C9117757   4.254   1.863   5.596 -0.4288  0.3812  0.1561
   74MOL    H9217758   4.357   1.680   6.017  0.6379 -0.7703  0.1977
   74MOL    H9317759   4.260   1.796   6.109  0.6609  0.6120  0.6954
   74MOL    H9417760   4.480   1.854   5.917  0.7170  0.0788  0.2929
   74MOL    H9517761   4.299   1.886   5.499  0.2712 -1.1888  0.0970
   74MOL    H9617762   4.171   1.933   5.612 -0.7235  0.3668 -1.2460
   74MOL    H9717763   4.216   1.761   5.589  0.4005  0.0304  0.7108
   74MOL    C9817764   4.380   2.030   5.985 -0.0791 -0.0742 -0.1148
   74MOL    C9917765   4.414   2.131   5.872 -0.7953 -0.1365  0.4535
   74MOL   C10017766   4.416   2.269   5.936 -0.5127 -0.1328  0.3823
   74MOL   O10117767   4.314   2.335   5.952  0.4474 -0.3449 -0.1421
   74MOL   O10217768   4.542   2.314   5.972 -0.3711 -0.4376  0.1210
   74MOL   C10317769   4.572   2.441   6.009  0.4649 -0.2270 -0.2601
   74MOL   H10417770   4.280   2.052   6.022 -0.3445  0.5074 -1.1591
   74MOL   H10517771   4.451   2.049   6.066  0.3437  1.8573 -0.9234
   74MOL   H10617772   4.331   2.138   5.802 -0.3855 -2.2125 -0.2555
   74MOL   H10717773   4.677   2.442   6.037  0.8645 -1.7886 -1.5661
   74MOL   H10817774   4.513   2.469   6.096  0.6459 -2.3514  0.5949
   74MOL   H10917775   4.564   2.518   5.932  1.0803  0.8080  0.7019
   74MOL   C11017776   4.544   2.096   5.790 -0.1984  0.1699  0.9948
   74MOL   C11117777   4.555   2.101   5.636 -0.3443  0.2952  0.6535
   74MOL   C11217778   4.545   2.250   5.590 -0.3033  0.0220 -0.0435
   74MOL   O11317779   4.443   2.294   5.532 -0.0450  0.4620  0.1297
   74MOL   O11417780   4.646   2.320   5.615  0.5636  0.0488  0.1563
   74MOL   C11517781   4.645   2.459   5.593 -0.4524  0.3134 -0.0879
   74MOL   H11617782   4.628   2.159   5.821  0.3070  0.7628 -1.4606
   74MOL   H11717783   4.583   2.002   5.828 -2.3116 -1.5593 -0.9873
   74MOL   H11817784   4.472   2.062   5.577 -0.3074  1.6579 -0.3415
   74MOL   H11917785   4.746   2.491   5.571  0.2564 -0.8193  1.3708
   74MOL   H12017786   4.609   2.516   5.678 -0.1202 -0.5025  0.6171
   74MOL   H12117787   4.590   2.480   5.502 -1.0085  0.5572  0.3010
   74MOL   C12217788   4.672   2.018   5.579  0.0298 -0.6084 -0.2785
   74MOL   C12317789   4.637   1.868   5.569 -0.1085  0.5897 -0.4366
   74MOL   C12417790   4.657   1.825   5.420  0.8694 -0.0712  0.6507
   74MOL   O12517791   4.755   1.761   5.379  0.3848  0.7553  0.5435
   74MOL   O12617792   4.566   1.896   5.339 -0.7763  0.3410 -0.2396
   74MOL   C12717793   4.584   1.884   5.205  0.6695 -0.2680  0.5344
   74MOL   H12817794   4.714   2.069   5.492 -0.6425  0.5236  0.0471
   74MOL   H12917795   4.750   2.031   5.653 -1.4422  2.5947  0.7883
   74MOL   H13017796   4.529   1.855   5.577 -0.3176  1.0110 -2.2848
   74MOL   H13117797   4.683   1.882   5.160  1.2305  2.2771  1.5961
   74MOL   H13217798   4.529   1.968   5.163  1.0083  0.8507  2.2951
   74MOL   H13317799   4.541   1.791   5.167 -0.5290  0.2766  0.5420
   74MOL   C13417800   4.719   1.780   5.674 -0.6660 -1.2617  0.5902
   74MOL   C13517801   4.714   1.630   5.662 -0.6335 -0.4733  0.1620
   74MOL   C13617802   4.846   1.555   5.700  0.6170  0.1123 -0.3304
   74MOL   O13717803   4.930   1.598   5.779  0.2135  0.2260 -0.0313
   74MOL   O13817804   4.856   1.445   5.638  0.3125 -0.8889 -0.2756
   74MOL   C13917805   4.963   1.363   5.652 -0.2601  0.3570 -0.0253
   74MOL   H14017806   4.825   1.802   5.664 -0.9627 -0.0428 -0.0499
   74MOL   H14117807   4.695   1.812   5.775  0.6781  0.8139  0.2809
   74MOL   H14217808   4.706   1.600   5.557 -1.1922 -0.0355  0.0750
   74MOL   H14317809   4.940   1.262   5.618  1.2780  0.2997 -0.9316
   74MOL   H14417810   4.985   1.360   5.759  0.5475 -1.8810 -0.2139
   74MOL   H14517811   5.050   1.396   5.596 -0.4034 -0.1028 -0.5201
   74MOL   C14617812   4.594   1.562   5.736 -0.5149  0.0261 -0.7159
   74MOL   C14717813   4.514   1.461   5.649 -0.1465  0.4293 -0.3953
   74MOL   C14817814   4.433   1.370   5.738  0.5273  0.4151 -0.7456
   74MOL   O14917815   4.419   1.254   5.708 -0.1926  0.3899 -0.0829
   74MOL   O15017816   4.389   1.428   5.844 -0.5743  0.1201 -0.0565
   74MOL   C15117817   4.329   1.349   5.949 -0.1202  0.0197 -0.3645
   74MOL   H15217818   4.621   1.512   5.829  1.1911  3.0244  0.4915
   74MOL   H15317819   4.531   1.643   5.773  2.0785  1.3683  0.9224
   74MOL   H15417820   4.582   1.392   5.600 -0.2482 -0.5043  0.7647
   74MOL   H15517821   4.382   1.262   5.989  1.0398 -0.2288 -2.3818
   74MOL   H15617822   4.240   1.299   5.911  0.1266  0.8868 -2.1258
   74MOL   H15717823   4.289   1.408   6.031  1.8677 -1.2647  1.6082
   74MOL   C15817824   4.425   1.539   5.552  0.7435  0.2734 -0.4225
   74MOL   C15917825   4.393   1.473   5.418  0.1871 -0.1355 -0.3499
   74MOL   C16017826   4.250   1.511   5.367 -0.3367  0.1588 -0.7344
   74MOL   O16117827   4.171   1.415   5.341 -0.3681  0.5135 -0.2434
   74MOL   O16217828   4.232   1.645   5.342  0.0168 -0.1174 -0.1490
   74MOL   C16317829   4.137   1.677   5.249 -0.2388 -0.1826  0.4318
   74MOL   H16417830   4.333   1.554   5.608  0.6505 -3.9497  0.7556
   74MOL   H16517831   4.465   1.637   5.527  0.4016  0.6103  0.3210
   74MOL   H16617832   4.388   1.367   5.441 -0.5232  0.5493  2.7683
   74MOL   H16717833   4.174   1.628   5.159 -3.2373 -0.3901 -0.7129
   74MOL   H16817834   4.133   1.783   5.223  0.3370 -0.3946 -0.5622
   74MOL   H16917835   4.039   1.640   5.276 -0.5960 -0.4437 -1.1902
   74MOL   C17017836   4.504   1.500   5.321 -0.4405  0.3698 -0.3761
   74MOL   C17117837   4.555   1.376   5.237 -0.3940  0.8221  0.1151
   74MOL   C17217838   4.446   1.313   5.149 -0.0793  0.1604 -0.7153
   74MOL   O17317839   4.413   1.196   5.158 -0.3011  0.1835 -0.0788
   74MOL   O17417840   4.386   1.398   5.069 -0.5309 -0.1944 -0.2974
   74MOL   C17517841   4.277   1.350   4.994  1.0506  0.6554  0.2392
   74MOL   H17617842   4.484   1.582   5.252  0.7648 -0.1139 -1.3297
   74MOL   H17717843   4.591   1.542   5.370 -1.8175 -1.1968  3.6179
   74MOL   H17817844   4.586   1.295   5.302  0.4314 -0.6990 -2.1202
   74MOL   H17917845   4.317   1.276   4.925  2.3760 -0.1908  1.8940
   74MOL   H18017846   4.242   1.428   4.925  0.8743 -1.0841 -1.6827
   74MOL   H18117847   4.186   1.311   5.039  0.2535  1.5462 -0.5689
   74MOL   C18217848   4.674   1.418   5.146 -0.4832  0.0705 -0.0068
   74MOL   C18317849   4.772   1.307   5.110  0.6233 -0.2231  0.7778
   74MOL   C18417850   4.848   1.358   4.987 -0.4142 -0.1939  0.2053
   74MOL   O18517851   4.818   1.308   4.877 -0.4878 -0.0906  0.3683
   74MOL   O18617852   4.923   1.464   5.014 -0.0861 -0.0107 -0.5780
   74MOL   C18717853   5.019   1.517   4.929  0.2395  0.7262  0.8753
   74MOL   H18817854   4.623   1.458   5.059 -0.9552 -0.8704 -0.1617
   74MOL   H18917855   4.725   1.501   5.196  1.1625 -2.9178  3.5361
   74MOL   H19017856   4.718   1.220   5.071  0.4195  0.6620 -0.9558
   74MOL   H19117857   5.089   1.441   4.897 -0.8996 -0.2079  0.5726
   74MOL   H19217858   5.070   1.593   4.990 -1.9481  1.6200  1.6567
   74MOL   H19317859   4.978   1.568   4.842  2.5013 -0.1664 -0.7675
   74MOL   C19417860   4.869   1.281   5.227 -0.2088 -0.1476  0.4643
   74MOL   C19517861   4.974   1.166   5.206  0.4028 -0.2170  0.0515
   74MOL   C19617862   5.094   1.161   5.306 -0.0567 -0.1751 -0.0068
   74MOL   O19717863   5.096   1.219   5.417 -0.5446  0.3970 -0.0101
   74MOL   O19817864   5.182   1.075   5.268  0.3001  0.7884  0.1534
   74MOL   C19917865   5.294   1.052   5.349  0.0837 -0.3684  0.0104
   74MOL   H20017866   4.927   1.366   5.263 -1.1364  0.8397 -0.3551
   74MOL   H20117867   4.802   1.253   5.307 -0.1815 -0.3270  0.4247
   74MOL   H20217868   5.015   1.195   5.109  0.0522  0.2257  0.0329
   74MOL   H20317869   5.375   1.123   5.328 -0.4221  0.2894  0.2640
   74MOL   H20417870   5.342   0.961   5.313 -1.4127 -1.5179  0.8951
   74MOL   H20517871   5.276   1.034   5.455  1.9209 -0.8580  0.2604
   74MOL   C20617872   4.915   1.026   5.181 -0.1073 -0.7607 -0.3137
   74MOL   C20717873   4.882   0.946   5.312  0.0481 -0.1054  0.0029
   74MOL   C20817874   4.767   0.994   5.404  0.1068 -0.0980 -0.7877
   74MOL   O20917875   4.784   1.047   5.510  0.0487 -0.1879 -0.0404
   74MOL   O21017876   4.644   0.975   5.351  0.4888 -0.8428  0.1029
   74MOL   C21117877   4.538   0.996   5.433  0.7084 -0.0578 -0.1909
   74MOL   H21217878   4.825   1.048   5.123 -0.2568  1.4128  0.6798
   74MOL   H21317879   4.980   0.970   5.114  0.1334  0.3479 -1.0245
   74MOL   H21417880   4.964   0.950   5.385  0.0297  2.1270 -0.0739
   74MOL   H21517881   4.518   1.101   5.453  1.5192 -0.1585  1.1854
   74MOL   H21617882   4.553   0.947   5.529 -0.5609  0.0654  0.0818
   74MOL   H21717883   4.452   0.953   5.381  0.4114 -1.6382  1.5667
   74MOL   C21817884   4.835   0.800   5.273 -0.0673  0.0560 -0.1308
   74MOL   C21917885   4.944   0.702   5.225  0.0515  0.8885  0.2100
   74MOL   C22017886   5.065   0.698   5.326 -0.2503 -0.1585 -0.1570
   74MOL   O22117887   5.174   0.746   5.290 -0.5904 -0.4334 -0.2735
   74MOL   O22217888   5.053   0.630   5.442  0.3091 -0.3622 -0.0594
   74MOL   C22317889   5.160   0.617   5.539 -0.2980 -0.6637 -0.2914
   74MOL   H22417890   4.787   0.751   5.357  0.1898 -1.8026 -1.0444
   74MOL   H22517891   4.753   0.805   5.201  0.2860  0.9231 -0.4863
   74MOL   H22617892   4.978   0.738   5.128  0.7396  0.5463  0.3155
   74MOL   H22717893   5.121   0.682   5.617  0.7497 -0.3597 -0.0097
   74MOL   H22817894   5.259   0.655   5.513 -0.5152  0.7435  0.8318
   74MOL   H22917895   5.171   0.523   5.593 -1.7746 -1.3516 -1.1788
   74MOL   C23017896   4.879   0.567   5.198 -0.4398 -0.4813 -0.0931
   74MOL   C23117897   4.967   0.455   5.135  0.4273 -1.0015 -0.2574
   74MOL   C23217898   5.008   0.484   4.989  0.6017 -0.0328 -0.4224
   74MOL   O23317899   5.125   0.503   4.956 -0.8256 -0.4075 -0.1606
   74MOL   O23417900   4.901   0.478   4.909 -0.4305 -0.2541  0.7349
   74MOL   C23517901   4.916   0.482   4.767  0.2883  0.0593  0.4094
   74MOL   H23617902   4.845   0.521   5.291 -0.5952 -1.0430 -0.4261
   74MOL   H23717903   4.791   0.570   5.134  0.0763  0.4675 -0.7641
   74MOL   H23817904   4.918   0.358   5.139 -1.5452  0.0010  1.1339
   74MOL   H23917905   4.989   0.556   4.736 -1.9776  1.5854 -1.4027
   74MOL   H24017906   4.823   0.493   4.712  0.4175  4.8796  0.9180
   74MOL   H24117907   4.964   0.392   4.728  1.3516  0.3389  1.0592
   74MOL   H24217908   5.052   0.454   5.203 -0.0558 -0.7662  0.3586
   75MOL     C117909   7.343   6.318   0.084  0.3549  0.2846 -0.0232
   75MOL     C217910   7.397   6.212   0.180 -0.1096 -0.3614  0.2625
   75MOL     C317911   7.336   6.069   0.158  0.2691 -0.2226 -0.7714
   75MOL     O417912   7.305   6.033   0.045  0.0909  0.3649  0.1580
   75MOL     O517913   7.337   5.988   0.264  0.1033  0.2749 -0.3394
   75MOL     C617914   7.291   5.857   0.254  0.3370 -0.1671  0.0199
   75MOL     H717915   7.367   6.423   0.099  0.4925  0.4374 -1.3333
   75MOL     H817916   7.234   6.309   0.091  0.2428  2.2164  1.0370
   75MOL     H917917   7.373   6.249   0.280 -1.1258 -1.7513  0.5379
   75MOL    H1017918   7.284   5.816   0.355  0.6333 -1.4521 -0.4609
   75MOL    H1117919   7.357   5.793   0.195 -0.5367 -1.0374 -0.0174
   75MOL    H1217920   7.192   5.840   0.213  1.6853 -0.6883 -3.1910
   75MOL    H1317921   7.375   6.296   7.916  0.9270 -0.1796  0.2601
   75MOL    C1417922   7.550   6.204   0.163  0.6310 -0.0004 -0.0961
   75MOL    C1517923   7.626   6.334   0.187  0.5443 -0.2542  0.5016
   75MOL    C1617924   7.603   6.371   0.336 -0.5990 -0.4825 -0.1223
   75MOL    O1717925   7.659   6.308   0.425  0.0317  1.0927 -0.3199
   75MOL    O1817926   7.519   6.467   0.351  0.1337  0.2695 -0.1293
   75MOL    C1917927   7.456   6.498   0.476  0.2633  0.1001 -0.0167
   75MOL    H2017928   7.589   6.124   0.225 -0.9240 -0.0683  0.8141
   75MOL    H2117929   7.564   6.168   0.061 -1.1487  1.5292 -0.9174
   75MOL    H2217930   7.580   6.417   0.132 -0.7738  0.2233  2.2741
   75MOL    H2317931   7.476   6.591   0.528  1.3929 -1.7997  3.0743
   75MOL    H2417932   7.479   6.425   0.553  0.1918 -0.1413 -0.2229
   75MOL    H2517933   7.347   6.487   0.475  0.4306 -2.3348  3.2230
   75MOL    C2617934   7.771   6.328   0.139  0.3281 -0.5837  0.1661
   75MOL    C2717935   7.847   6.460   0.168 -0.3160 -0.1196 -0.0203
   75MOL    C2817936   7.912   6.462   0.311 -0.1956  0.1123 -0.0877
   75MOL    O2917937   7.895   6.564   0.380 -0.1810  0.1671 -0.2792
   75MOL    O3017938   0.047   6.349   0.339  0.2255  0.2603  0.4922
   75MOL    C3117939   0.060   6.323   0.476  0.8801 -0.6139 -0.2611
   75MOL    H3217940   7.827   6.246   0.185 -2.9699 -3.4284 -0.6542
   75MOL    H3317941   7.761   6.309   0.032 -0.2236 -0.4214  0.1888
   75MOL    H3417942   7.771   6.538   0.169  0.9368  1.2635 -3.8060
   75MOL    H3517943   7.897   6.292   0.517  0.4625 -0.2457 -0.9510
   75MOL    H3617944   0.090   6.411   0.533 -0.9444  1.3049 -2.1795
   75MOL    H3717945   0.130   6.240   0.489 -0.5537 -1.9602 -0.8439
   75MOL    C3817946   0.018   6.489   0.059 -0.4495  0.7693  0.6578
   75MOL    C3917947   7.925   6.625   7.922 -0.1761  0.1080 -0.6304
   75MOL    C4017948   7.783   6.641   7.864  0.0157 -0.5413 -0.0113
   75MOL    O4117949   7.759   6.595   7.749  0.3046 -0.2968  0.5166
   75MOL    O4217950   7.690   6.684   0.019  0.3266 -0.1903  0.2042
   75MOL    C4317951   7.553   6.684   7.930  0.5502 -0.0940  0.2713
   75MOL    H4417952   0.113   6.491   0.113 -1.6199  1.7988  2.7568
   75MOL    H4517953   0.032   6.416   7.912  1.1716 -0.4615  2.0204
   75MOL    H4617954   0.064   6.640   7.842  0.7823  0.5625  0.3117
   75MOL    H4717955   7.518   6.723   7.835  0.3798  0.2916  0.4911
   75MOL    H4817956   7.509   6.745   0.076 -0.6545  0.0305 -0.4956
   75MOL    H4917957   7.511   6.585   0.019 -0.2935  0.6881  2.3210
   75MOL    C5017958   0.013   6.755   0.079 -0.1155  0.3079 -0.0764
   75MOL    C5117959   0.157   6.777   0.134  0.3474 -0.4227 -0.0704
   75MOL    C5217960   0.260   6.751   0.021  0.2546 -0.2267  0.3876
   75MOL    O5317961   0.348   6.675   0.043  0.1686  0.3831  0.0455
   75MOL    O5417962   0.245   6.834   7.848 -0.2418  0.6867 -0.1272
   75MOL    C5517963   0.337   6.844   7.748  0.5040  0.1793 -0.1427
   75MOL    H5617964   7.918   6.845   0.024 -0.3545  0.5200  0.3904
   75MOL    H5717965   7.890   6.743   0.171  0.7464  0.2097  0.4415
   75MOL    H5817966   0.172   6.697   0.206  0.9997  1.8346  2.3626
   75MOL    H5917967   0.371   6.747   7.711 -0.0342  0.7216 -2.1196
   75MOL    H6017968   0.421   6.910   7.772 -0.5427  1.1808  0.8049
   75MOL    H6117969   0.288   6.900   7.668 -2.0953 -0.4032  1.0024
   75MOL    C6217970   0.166   6.912   0.210  0.2397 -0.1093  0.1098
   75MOL    C6317971   0.266   6.925   0.324  0.1732 -0.5010 -0.1000
   75MOL    C6417972   0.301   7.075   0.361  0.1441  0.8549  0.4461
   75MOL    O6517973   0.240   7.169   0.306 -0.0585  0.1729  0.4973
   75MOL    O6617974   0.396   7.081   0.452  0.4670 -0.6038  0.3543
   75MOL    C6717975   0.455   7.208   0.480  0.1519  0.4250  0.2580
   75MOL    H6817976   0.194   6.989   0.138  1.2955 -1.1128 -0.5612
   75MOL    H6917977   0.063   6.937   0.237 -0.8404 -2.9602 -1.2369
   75MOL    H7017978   0.361   6.881   0.296  0.0050  0.5307 -2.3812
   75MOL    H7117979   0.380   7.279   0.514  1.3134  1.2048  1.1989
   75MOL    H7217980   0.498   7.242   0.385 -0.3996 -0.7172 -0.4135
   75MOL    H7317981   0.530   7.207   0.558 -0.0565  0.8271  0.4653
   75MOL    C7417982   0.202   6.858   0.446  0.1445 -0.6617 -0.0452
   75MOL    C7517983   0.297   6.789   0.552 -0.2686 -0.4674  0.2603
   75MOL    C7617984   0.224   6.773   0.689  0.9472  0.0571  0.1185
   75MOL    O7717985   0.100   6.789   0.703 -0.3929 -0.0093  0.3574
   75MOL    O7817986   0.296   6.743   0.791 -0.3630  0.2188  0.5657
   75MOL    C7917987   0.235   6.737   0.919 -0.2104 -0.1122 -0.0719
   75MOL    H8017988   0.130   6.925   0.493  1.0101  0.4403 -0.2738
   75MOL    H8117989   0.141   6.778   0.403  2.6411 -1.1249 -2.8367
   75MOL    H8217990   0.368   6.868   0.577  0.1222 -0.8436  0.3471
   75MOL    H8317991   0.160   6.659   0.926  0.4947 -0.8485 -0.5409
   75MOL    H8417992   0.196   6.837   0.934  1.9104  0.5402  1.2629
   75MOL    H8517993   0.314   6.733   0.994  0.4385  2.7953 -0.5477
   75MOL    C8617994   0.356   6.650   0.515  0.2713  0.0832  0.2139
   75MOL    C8717995   0.496   6.660   0.448 -0.2927 -0.0366  0.4930
   75MOL    C8817996   0.614   6.691   0.538  0.1904 -0.1655  0.0294
   75MOL    O8917997   0.602   6.682   0.663  0.2672 -0.2839 -0.4295
   75MOL    O9017998   0.724   6.735   0.476 -0.1581  0.4459  0.3482
   75MOL    C9117999   0.837   6.777   0.539 -0.1885 -0.1551 -1.2022
   75MOL    H9218000   0.367   6.588   0.604  1.1195 -0.9188 -0.5759
   75MOL    H9318001   0.287   6.602   0.446 -1.2547  0.7056  1.2636
   75MOL    H9418002   0.485   6.755   0.398  1.1673  0.4148  0.9939
   75MOL    H9518003   0.876   6.867   0.491 -2.4166 -0.1202 -3.0716
   75MOL    H9618004   0.913   6.700   0.551 -0.6185 -0.3653  0.1952
   75MOL    H9718005   0.811   6.816   0.637 -0.5021 -2.6471 -0.2493
   75MOL    C9818006   0.527   6.562   0.331 -0.2872  0.0348  0.2447
   75MOL    C9918007   0.603   6.432   0.377  0.3061 -0.4144 -0.6621
   75MOL   C10018008   0.513   6.360   0.477  0.4587  0.6476 -0.4307
   75MOL   O10118009   0.406   6.314   0.434  0.4365 -0.1382  0.3168
   75MOL   O10218010   0.566   6.340   0.596 -0.2875  0.5594 -0.2302
   75MOL   C10318011   0.503   6.256   0.690 -0.1935  0.5190  0.6591
   75MOL   H10418012   0.438   6.535   0.274 -1.3502  1.4952  1.1661
   75MOL   H10518013   0.593   6.608   0.258 -0.0729 -0.6570 -0.0008
   75MOL   H10618014   0.699   6.457   0.422  0.3034  2.1474 -2.0208
   75MOL   H10718015   0.577   6.218   0.760  1.5835  1.3890 -0.7055
   75MOL   H10818016   0.466   6.164   0.645 -1.7045  1.3131  0.2455
   75MOL   H10918017   0.420   6.303   0.742 -0.5671  0.3608  0.2106
   75MOL   C11018018   0.637   6.353   0.257 -0.1664  0.4008  0.4394
   75MOL   C11118019   0.729   6.230   0.280 -0.2944  1.2406  0.2589
   75MOL   C11218020   0.708   6.124   0.167 -1.0180 -0.1354  0.0615
   75MOL   O11318021   0.789   6.092   0.079 -0.1458  0.2183 -0.1281
   75MOL   O11418022   0.589   6.075   0.175 -0.3943  0.2471  0.1595
   75MOL   C11518023   0.545   5.967   0.086 -0.3070 -0.2396 -0.0447
   75MOL   H11618024   0.545   6.319   0.208 -0.4573 -0.4109  1.5240
   75MOL   H11718025   0.669   6.419   0.176  0.3091  0.6259  0.8131
   75MOL   H11818026   0.699   6.183   0.374  0.9009 -1.5073 -0.6702
   75MOL   H11918027   0.611   5.881   0.087  2.6898  1.9235 -1.2612
   75MOL   H12018028   0.547   5.992   7.913 -1.2284 -0.6716 -0.1676
   75MOL   H12118029   0.441   5.954   0.115 -0.5366  2.7435  0.6717
   75MOL   C12218030   0.878   6.275   0.295  0.5650  0.7359 -0.3508
   75MOL   C12318031   0.976   6.208   0.402 -0.3895 -0.2554 -0.0243
   75MOL   C12418032   0.921   6.236   0.547  0.9367 -0.4634  0.2819
   75MOL   O12518033   0.868   6.151   0.614  0.5603 -0.5174 -0.2921
   75MOL   O12618034   0.950   6.360   0.588  0.1970  0.1234  0.5040
   75MOL   C12718035   0.883   6.413   0.703 -0.7677  0.5364  0.7108
   75MOL   H12818036   0.937   6.281   0.204 -0.2047 -1.3293 -1.0095
   75MOL   H12918037   0.874   6.384   0.299 -0.4163  0.7793 -2.0088
   75MOL   H13018038   1.067   6.267   0.406 -0.3783 -0.1636 -1.5057
   75MOL   H13118039   0.874   6.515   0.666 -1.8142 -0.3700 -1.6614
   75MOL   H13218040   0.935   6.424   0.798 -0.6296 -1.2469  0.8529
   75MOL   H13318041   0.788   6.371   0.733  0.4964 -1.7064  1.6840
   75MOL   C13418042   1.004   6.055   0.375  0.4775 -0.0285 -0.3313
   75MOL   C13518043   1.078   6.022   0.243  0.3569  0.3046  0.4839
   75MOL   C13618044   1.217   6.090   0.225 -0.1184  0.2470 -0.4131
   75MOL   O13718045   1.325   6.031   0.241 -0.1550  0.0768 -0.6645
   75MOL   O13818046   1.197   6.224   0.182  0.0062  0.5342  0.1701
   75MOL   C13918047   1.301   6.298   0.152  0.4619 -0.2618  0.5321
   75MOL   H14018048   1.057   6.006   0.457 -0.2108  4.2054  2.7914
   75MOL   H14118049   0.906   6.007   0.368  0.0536  0.1918  3.1646
   75MOL   H14218050   1.013   6.056   0.162 -1.4759 -1.6224  1.1058
   75MOL   H14318051   1.271   6.402   0.152 -2.2334 -0.9807 -0.4957
   75MOL   H14418052   1.326   6.278   0.048 -4.9296 -0.5804 -0.8449
   75MOL   H14518053   1.384   6.294   0.223  0.1320  1.7794  1.0511
   75MOL   C14618054   1.094   5.871   0.223 -0.0416 -0.2742 -0.0992
   75MOL   C14718055   0.966   5.794   0.181 -0.0282 -0.5362  0.4833
   75MOL   C14818056   0.975   5.772   0.028  0.1123  0.1622  0.9878
   75MOL   O14918057   1.066   5.709   7.911  0.6084 -0.1146 -0.1842
   75MOL   O15018058   0.861   5.820   7.895  0.2650 -0.1378  0.0476
   75MOL   C15118059   0.861   5.799   7.758  0.3775  1.1031 -0.2014
   75MOL   H15218060   1.168   5.850   0.146  0.0408  0.5827 -0.2637
   75MOL   H15318061   1.145   5.828   0.309  1.8893 -0.9537 -1.5459
   75MOL   H15418062   0.872   5.845   0.203 -0.7217 -1.2820 -0.6983
   75MOL   H15518063   0.929   5.868   7.710  2.4703  0.4299  1.6944
   75MOL   H15618064   0.761   5.823   7.722  0.4275 -0.3673 -1.3816
   75MOL   H15718065   0.893   5.696   7.739  0.1764  0.6096  1.9456
   75MOL   C15818066   0.958   5.656   0.248 -0.0793 -0.3398  0.0857
   75MOL   C15918067   0.819   5.579   0.242  0.2122  0.1756 -0.1169
   75MOL   C16018068   0.829   5.484   0.124  1.3541 -0.0194 -0.1219
   75MOL   O16118069   0.889   5.375   0.132  0.3436  0.2462 -0.2624
   75MOL   O16218070   0.763   5.530   0.011  0.1100  0.6041  0.3608
   75MOL   C16318071   0.763   5.444   7.832 -0.1819  0.0349  0.8095
   75MOL   H16418072   1.044   5.600   0.212  0.2772  1.6785 -2.3866
   75MOL   H16518073   0.985   5.658   0.354  1.6368 -0.4296 -0.3302
   75MOL   H16618074   0.740   5.652   0.226  0.0813 -0.1469 -0.9392
   75MOL   H16718075   0.847   5.376   7.818  0.2029  0.8392 -1.0662
   75MOL   H16818076   0.772   5.501   7.739  0.7985 -0.8324  0.3636
   75MOL   H16918077   0.672   5.385   7.824  0.2863 -0.9362  2.4524
   75MOL   C17018078   0.786   5.500   0.371 -0.1859 -0.1348  0.2093
   75MOL   C17118079   0.750   5.591   0.495  0.3352 -0.1534 -0.2321
   75MOL   C17218080   0.661   5.716   0.474 -0.0433  0.0159  0.4009
   75MOL   O17318081   0.546   5.710   0.438 -0.1445 -0.0048 -0.5273
   75MOL   O17418082   0.722   5.830   0.505  0.4539 -0.4272  0.3188
   75MOL   C17518083   0.660   5.951   0.475 -0.0182  0.1350  0.5197
   75MOL   H17618084   0.697   5.442   0.346  0.8677 -0.6892 -2.4107
   75MOL   H17718085   0.860   5.422   0.389  2.6765  2.1033 -1.3256
   75MOL   H17818086   0.844   5.623   0.540 -1.2755  1.2189  2.3053
   75MOL   H17918087   0.634   5.942   0.370 -1.2081  1.7645  0.6644
   75MOL   H18018088   0.726   6.034   0.499  1.8577 -0.6012 -1.8802
   75MOL   H18118089   0.570   5.953   0.537  0.6389  3.8871  1.4915
   75MOL   C18218090   0.683   5.508   0.611  0.3137  0.0948  0.1808
   75MOL   C18318091   0.774   5.391   0.670 -0.8333 -0.2047 -0.0686
   75MOL   C18418092   0.883   5.447   0.766  0.1188 -0.4561  0.8620
   75MOL   O18518093   0.999   5.405   0.759  0.5599 -0.1096 -0.3097
   75MOL   O18618094   0.842   5.552   0.834  0.4768  0.3312 -0.1320
   75MOL   C18718095   0.929   5.613   0.934 -0.2218 -0.6072 -0.5035
   75MOL   H18818096   0.639   5.573   0.686 -0.2867  0.2415 -0.2986
   75MOL   H18918097   0.603   5.454   0.559  0.0839 -0.2987  0.9352
   75MOL   H19018098   0.833   5.361   0.584 -1.4301  0.2113 -0.6317
   75MOL   H19118099   0.909   5.720   0.938  2.0368 -0.2474  3.5034
   75MOL   H19218100   1.035   5.617   0.907 -0.3419 -1.9190 -1.2047
   75MOL   H19318101   0.916   5.578   1.036  5.0109  1.7203  1.1545
   75MOL   C19418102   0.703   5.273   0.736 -1.3278 -0.2413 -0.2873
   75MOL   C19518103   0.745   5.133   0.678 -0.0747  0.8347  0.3213
   75MOL   C19618104   0.890   5.088   0.707 -0.0598 -0.2123  0.4779
   75MOL   O19718105   0.976   5.099   0.616  0.5928 -0.4560  0.7634
   75MOL   O19818106   0.914   5.050   0.838 -0.0174  0.0500 -0.3058
   75MOL   C19918107   1.039   4.997   0.877  0.4008 -0.1470  0.1706
   75MOL   H20018108   0.707   5.271   0.845  2.4514  1.3295 -0.3199
   75MOL   H20118109   0.597   5.294   0.721 -1.1013 -0.3610 -2.1966
   75MOL   H20218110   0.734   5.138   0.569  1.1284  0.1609  0.1512
   75MOL   H20318111   1.072   5.041   0.971  0.2883  0.7545 -0.2142
   75MOL   H20418112   1.119   5.023   0.809 -0.1231  0.5202 -0.1947
   75MOL   H20518113   1.026   4.888   0.878  1.0476 -0.2989 -3.4797
   75MOL   C20618114   0.649   5.021   0.706 -0.2311  0.1859  0.2006
   75MOL   C20718115   0.505   5.048   0.670  0.3980  0.3630 -0.5758
   75MOL   C20818116   0.481   5.070   0.520 -0.2630  0.4662  0.1418
   75MOL   O20918117   0.484   5.180   0.473  0.5291  0.1557  0.4319
   75MOL   O21018118   0.461   4.949   0.443  0.3974  0.3146  0.6134
   75MOL   C21118119   0.435   4.955   0.304  0.6085  0.0578 -0.1734
   75MOL   H21218120   0.677   4.930   0.653  0.2877 -0.6991  1.9328
   75MOL   H21318121   0.661   4.999   0.812  0.4670 -0.8453 -0.0884
   75MOL   H21418122   0.465   5.131   0.728 -3.0834 -1.4743 -0.1751
   75MOL   H21518123   0.426   4.858   0.254 -0.0193  0.6431 -1.2264
   75MOL   H21618124   0.519   5.002   0.253  0.6892 -1.7465 -1.7928
   75MOL   H21718125   0.348   5.019   0.291  0.8406  0.6239  1.0325
   75MOL   C21818126   0.410   4.931   0.726  1.0454  0.5213  0.1649
   75MOL   C21918127   0.260   4.958   0.710  0.4789  0.2661 -0.0286
   75MOL   C22018128   0.172   4.842   0.769 -0.0121 -0.8018  0.2715
   75MOL   O22118129   0.226   4.752   0.828  0.1202 -0.0164 -0.3563
   75MOL   O22218130   0.041   4.856   0.746 -0.4108 -0.0119 -0.1056
   75MOL   C22318131   7.883   4.760   0.801  0.1366 -0.6576 -0.1686
   75MOL   H22418132   0.426   4.837   0.674  2.8205  1.0143 -0.2436
   75MOL   H22518133   0.424   4.911   0.832 -2.7958  2.4710  1.1268
   75MOL   H22618134   0.251   4.955   0.601 -0.5245  0.1594  0.0538
   75MOL   H22718135   7.904   4.731   0.904 -0.7719  2.1078  0.8303
   75MOL   H22818136   7.882   4.677   0.730 -1.4650  0.2719 -1.2359
   75MOL   H22918137   7.781   4.796   0.797 -0.2117 -1.5553  0.3826
   75MOL   C23018138   0.205   5.094   0.755  0.3039  0.3122  0.6546
   75MOL   C23118139   0.126   5.145   0.638  0.4854 -0.7894 -0.3396
   75MOL   C23218140   0.081   5.295   0.648 -0.2419 -0.5941  0.3632
   75MOL   O23318141   0.111   5.367   0.744  0.1608  0.0246  0.3309
   75MOL   O23418142   0.030   5.332   0.533 -0.2898 -0.0584 -0.0040
   75MOL   C23518143   7.921   5.464   0.518  0.5480  0.1951  0.3135
   75MOL   H23618144   0.132   5.068   0.832 -0.6786  0.1371 -0.3203
   75MOL   H23718145   0.271   5.174   0.786 -0.6387  1.7256 -0.9238
   75MOL   H23818146   0.030   5.096   0.620 -0.4368  0.7123  0.4665
   75MOL   H23918147   7.833   5.474   0.582  0.4330 -0.7819  0.3206
   75MOL   H24018148   7.894   5.483   0.414 -0.2199 -0.0575  0.4621
   75MOL   H24118149   0.062   5.538   0.550  1.1693 -0.2196 -0.1469
   75MOL   H24218150   0.198   5.128   0.557  2.6601  1.2759  1.0819
   76MOL     C118151   5.584   1.350   3.171 -0.0049  0.1247  0.0552
   76MOL     C218152   5.653   1.217   3.216 -0.8210 -0.2183 -0.3036
   76MOL     C318153   5.774   1.170   3.130  0.2124  0.7659 -0.1323
   76MOL     O418154   5.777   1.062   3.076 -0.1163  0.0859  0.3754
   76MOL     O518155   5.867   1.269   3.121 -0.1601 -1.0637  0.6284
   76MOL     C618156   5.990   1.241   3.067  0.3638  0.0887 -0.2894
   76MOL     H718157   5.477   1.362   3.187 -0.1790 -0.3125 -0.7358
   76MOL     H818158   5.589   1.360   3.062  0.0045 -1.2017 -0.0773
   76MOL     H918159   5.582   1.136   3.199 -3.3312  1.4545  1.6912
   76MOL    H1018160   5.991   1.178   2.978  0.6959 -2.2374  1.2893
   76MOL    H1118161   6.038   1.192   3.152 -0.6066 -1.2815 -0.4928
   76MOL    H1218162   6.036   1.334   3.037  0.3648  0.0461 -0.4201
   76MOL    H1318163   5.633   1.440   3.208 -0.1523 -1.8162  5.2945
   76MOL    C1418164   5.695   1.231   3.371 -0.3721 -0.3902  1.0376
   76MOL    C1518165   5.575   1.246   3.463  0.2033 -0.1831 -0.2121
   76MOL    C1618166   5.492   1.121   3.463  0.2300  0.0331 -0.0594
   76MOL    O1718167   5.386   1.116   3.398  0.0064 -0.3543  0.4375
   76MOL    O1818168   5.545   1.030   3.542 -0.2617 -0.0300  0.4433
   76MOL    C1918169   5.485   0.901   3.554  0.4704 -0.0290  0.4782
   76MOL    H2018170   5.757   1.147   3.404 -0.6876 -1.0462 -0.0234
   76MOL    H2118171   5.756   1.320   3.384  1.6164 -1.1038 -2.9307
   76MOL    H2218172   5.504   1.318   3.422 -0.5083  0.1031  1.4952
   76MOL    H2318173   5.562   0.831   3.585 -0.3417 -1.1949 -0.1021
   76MOL    H2418174   5.444   0.858   3.462 -1.9007  0.1957  1.3866
   76MOL    H2518175   5.407   0.901   3.630 -2.1932 -0.4067 -2.1349
   76MOL    C2618176   5.620   1.292   3.605 -0.2924 -0.5954  0.0065
   76MOL    C2718177   5.531   1.397   3.677  0.4550 -0.5019 -0.2924
   76MOL    C2818178   5.383   1.374   3.677 -0.3390  0.4248 -0.6104
   76MOL    O2918179   5.306   1.461   3.647  0.6687 -0.4388  0.1701
   76MOL    O3018180   5.355   1.253   3.722 -0.0788  0.2483 -0.4735
   76MOL    C3118181   5.225   1.192   3.720  0.0676  0.2124 -0.0264
   76MOL    H3218182   5.649   1.209   3.669 -0.3799 -1.4855 -1.0993
   76MOL    H3318183   5.721   1.333   3.597 -0.9189  0.9461 -0.1452
   76MOL    H3418184   5.540   1.494   3.629 -1.3021 -0.0198  0.3168
   76MOL    H3518185   5.168   1.186   3.813  0.4078  0.6023  0.2122
   76MOL    H3618186   5.234   1.088   3.691 -1.5913 -0.1663  0.7931
   76MOL    H3718187   5.164   1.239   3.643 -0.2057  0.0734  0.1046
   76MOL    C3818188   5.597   1.387   3.826  0.2054 -0.3923 -0.3193
   76MOL    C3918189   5.540   1.494   3.925 -0.5467  0.1768 -0.2957
   76MOL    C4018190   5.615   1.478   4.057  0.1483  0.3961  0.4634
   76MOL    O4118191   5.736   1.466   4.058 -0.6834  0.3081 -0.2664
   76MOL    O4218192   5.533   1.471   4.155 -0.3594 -0.2017  0.0474
   76MOL    C4318193   5.585   1.428   4.275 -0.2677 -0.1361  0.4412
   76MOL    H4418194   5.585   1.285   3.864 -0.6699  0.1057  0.7652
   76MOL    H4518195   5.704   1.389   3.810  0.2475 -1.1142 -0.1490
   76MOL    H4618196   5.433   1.479   3.941 -0.1036 -0.4714  2.2481
   76MOL    H4718197   5.506   1.426   4.350 -0.2591  0.6022  0.4802
   76MOL    H4818198   5.668   1.485   4.318  0.1446  0.3232 -0.9629
   76MOL    H4918199   5.603   1.321   4.281  1.8402  0.2106  0.8784
   76MOL    C5018200   5.544   1.643   3.869 -0.0957  0.1061  0.1494
   76MOL    C5118201   5.502   1.754   3.967  0.2114 -0.3818 -0.1801
   76MOL    C5218202   5.559   1.890   3.933 -0.9039 -0.2494  0.1061
   76MOL    O5318203   5.548   1.931   3.818  0.5493  0.2994  0.4415
   76MOL    O5418204   5.627   1.953   4.032 -0.0923 -0.2864 -0.0170
   76MOL    C5518205   5.678   2.082   4.014 -0.5095  0.1272 -0.5568
   76MOL    H5618206   5.644   1.669   3.833 -0.8389  1.2317 -1.1647
   76MOL    H5718207   5.488   1.648   3.776  1.2198 -0.2534 -0.6735
   76MOL    H5818208   5.535   1.720   4.065 -0.5212 -1.0016 -0.1423
   76MOL    H5918209   5.776   2.079   3.967 -0.2093 -2.3669  0.1346
   76MOL    H6018210   5.682   2.132   4.111 -1.7191  1.5380 -1.2191
   76MOL    H6118211   5.610   2.144   3.956 -1.0658 -0.3045 -0.3649
   76MOL    C6218212   5.347   1.766   3.988  0.0394 -0.0693  0.0052
   76MOL    C6318213   5.300   1.829   4.123 -0.1015 -0.1302 -0.5288
   76MOL    C6418214   5.278   1.983   4.127 -0.0047  0.3407  0.3466
   76MOL    O6518215   5.280   2.047   4.027 -0.5819 -0.7362  0.5486
   76MOL    O6618216   5.234   2.031   4.245 -0.2164 -0.1568  0.1858
   76MOL    C6718217   5.182   2.165   4.262  0.4895  0.5677  0.1479
   76MOL    H6818218   5.290   1.823   3.914 -1.5799  1.0224  2.0502
   76MOL    H6918219   5.302   1.666   3.991  0.6149 -0.2871  2.8405
   76MOL    H7018220   5.389   1.816   4.186  1.4483 -0.5177 -2.7533
   76MOL    H7118221   5.178   2.179   4.370  0.9720  0.0301  0.2366
   76MOL    H7218222   5.083   2.176   4.216 -0.2540  1.9939  2.0170
   76MOL    H7318223   5.244   2.247   4.228 -0.6265  1.2899 -0.1862
   76MOL    C7418224   5.186   1.758   4.194 -0.3720  0.1476  0.1375
   76MOL    C7518225   5.042   1.799   4.153  0.3479  1.1686 -0.2655
   76MOL    C7618226   5.009   1.776   4.002 -0.8533  0.1356  0.4335
   76MOL    O7718227   5.012   1.860   3.909  0.0174  0.3632  0.0730
   76MOL    O7818228   4.998   1.645   3.970  0.4253 -0.0293 -0.0803
   76MOL    C7918229   4.993   1.602   3.834 -0.5993  0.2885  0.0623
   76MOL    H8018230   5.196   1.650   4.187 -1.3505 -0.1288  2.3980
   76MOL    H8118231   5.202   1.786   4.298  0.1237 -1.8167  0.6116
   76MOL    H8218232   5.035   1.905   4.173  2.1408  1.1205  0.6286
   76MOL    H8318233   4.888   1.607   3.805 -0.6558 -1.1297 -0.0178
   76MOL    H8418234   5.024   1.498   3.829 -1.7687 -0.0765  0.3461
   76MOL    H8518235   5.056   1.658   3.764 -1.9256  0.5120 -0.9668
   76MOL    C8618236   4.943   1.721   4.243  0.4915  0.4184  0.8129
   76MOL    C8718237   4.791   1.731   4.212 -0.2647 -0.2035  0.5870
   76MOL    C8818238   4.728   1.589   4.232  0.3182 -0.3962 -0.1419
   76MOL    O8918239   4.713   1.531   4.340 -0.1136 -0.3672  0.0388
   76MOL    O9018240   4.688   1.537   4.121  0.4663  0.5073 -0.2902
   76MOL    C9118241   4.623   1.414   4.116  0.3777  0.2389  0.0190
   76MOL    H9218242   4.978   1.618   4.237  2.9775  1.1975  1.1314
   76MOL    H9318243   4.962   1.759   4.343 -1.9051  1.6626  0.8126
   76MOL    H9418244   4.780   1.760   4.107 -1.7669  0.3509  0.8880
   76MOL    H9518245   4.568   1.394   4.024 -2.3316  0.5814  1.5110
   76MOL    H9618246   4.553   1.402   4.198  3.2426  0.8881  2.6769
   76MOL    H9718247   4.701   1.338   4.120  0.6608  0.5926  1.9168
   76MOL    C9818248   4.713   1.830   4.304 -0.9030  0.5284 -0.0257
   76MOL    C9918249   4.752   1.983   4.291 -0.0431  0.0929 -0.6684
   76MOL   C10018250   4.719   2.036   4.150 -0.4870  0.1273  1.0715
   76MOL   O10118251   4.619   2.001   4.080 -0.1520  0.1285 -0.3791
   76MOL   O10218252   4.813   2.121   4.106 -0.1386  0.7809 -0.4608
   76MOL   C10318253   4.819   2.172   3.965 -0.4755 -0.1293 -0.0393
   76MOL   H10418254   4.611   1.817   4.269 -0.3921 -2.8934 -0.3904
   76MOL   H10518255   4.729   1.795   4.407  3.4150  2.4894  0.0974
   76MOL   H10618256   4.859   1.997   4.303  0.5831 -0.1826 -5.1288
   76MOL   H10718257   4.761   2.262   3.944 -2.1399 -1.7619 -2.7698
   76MOL   H10818258   4.777   2.091   3.905  0.5391 -0.6327 -0.0916
   76MOL   H10918259   4.925   2.170   3.940 -0.6419  1.0018 -0.8403
   76MOL   C11018260   4.682   2.071   4.409 -0.4114 -0.4199 -0.0531
   76MOL   C11118261   4.768   2.106   4.529  0.7494 -0.0392  0.0581
   76MOL   C11218262   4.892   2.196   4.499  0.8439  0.0684  0.7969
   76MOL   O11318263   5.006   2.152   4.517  0.0132 -0.4124  0.1650
   76MOL   O11418264   4.855   2.319   4.462  0.0461  0.1472 -0.3655
   76MOL   C11518265   4.945   2.410   4.401 -0.2748  0.0847 -0.4880
   76MOL   H11618266   4.639   2.162   4.365  0.1633 -0.5761 -0.9641
   76MOL   H11718267   4.600   2.005   4.438  1.2861 -1.4096  2.6588
   76MOL   H11818268   4.804   2.018   4.581  0.0058  0.5916  1.6552
   76MOL   H11918269   4.895   2.500   4.365  1.9683  0.9822 -1.4692
   76MOL   H12018270   4.979   2.368   4.306  0.5111  0.9956 -0.6199
   76MOL   H12118271   5.037   2.428   4.457 -0.0004 -1.3613 -0.4524
   76MOL   C12218272   4.686   2.172   4.648  0.4535 -0.4035  0.5101
   76MOL   C12318273   4.570   2.095   4.703 -0.1489 -0.8461 -0.2151
   76MOL   C12418274   4.606   1.955   4.756  0.1819 -0.2488 -0.0670
   76MOL   O12518275   4.652   1.926   4.867 -0.4471 -0.2213 -0.3225
   76MOL   O12618276   4.589   1.863   4.652  0.1296 -0.0665 -0.2956
   76MOL   C12718277   4.632   1.730   4.660  0.4133 -1.4538 -0.1530
   76MOL   H12818278   4.753   2.197   4.729  2.1920  1.2855 -1.3755
   76MOL   H12918279   4.651   2.271   4.615  2.0558  0.9563  2.8157
   76MOL   H13018280   4.496   2.071   4.626 -0.7732  0.5954 -0.0682
   76MOL   H13118281   4.598   1.671   4.745  0.4838 -0.6201  0.4485
   76MOL   H13218282   4.739   1.733   4.678 -0.0586 -0.0965  2.7158
   76MOL   H13318283   4.610   1.682   4.564  1.2042 -1.0603 -0.5363
   76MOL   C13418284   4.510   2.182   4.821  0.2912  0.2275 -0.2686
   76MOL   C13518285   4.386   2.120   4.905  0.4859  0.0997 -1.6053
   76MOL   C13618286   4.368   2.194   5.042 -0.6041 -0.0264 -0.4445
   76MOL   O13718287   4.430   2.297   5.073 -0.3126 -0.8768 -0.2592
   76MOL   O13818288   4.286   2.127   5.126 -0.6264  0.1177 -0.0933
   76MOL   C13918289   4.273   2.166   5.261  0.6657  0.0683  0.2958
   76MOL   H14018290   4.584   2.213   4.895 -0.2459  0.9187 -0.0150
   76MOL   H14118291   4.475   2.277   4.779  0.8348  0.5709  0.0502
   76MOL   H14218292   4.411   2.019   4.937 -0.0146  0.8314  1.2031
   76MOL   H14318293   4.227   2.089   5.323 -0.3840  0.0994 -0.4308
   76MOL   H14418294   4.198   2.244   5.266 -0.1976 -0.7387  0.0570
   76MOL   H14518295   4.359   2.198   5.320 -0.4953  0.3350  1.9029
   76MOL   C14618296   4.248   2.130   4.836  0.2402  0.4371 -0.0118
   76MOL   C14718297   4.190   2.016   4.754 -0.3258  0.5855 -0.0812
   76MOL   C14818298   4.185   1.884   4.834 -0.0901  0.5249  0.2489
   76MOL   O14918299   4.083   1.837   4.882 -0.1696  0.1250  0.3632
   76MOL   O15018300   4.307   1.829   4.847  0.2249  0.4082  0.2195
   76MOL   C15118301   4.326   1.723   4.930  0.4992 -0.4407  0.2783
   76MOL   H15218302   4.167   2.174   4.896 -2.2443 -0.6043 -2.4816
   76MOL   H15318303   4.267   2.197   4.752  0.3864  0.8789  0.3688
   76MOL   H15418304   4.256   2.001   4.668 -1.3005 -1.3511 -0.5367
   76MOL   H15518305   4.241   1.656   4.922  0.7683 -1.2647  3.5835
   76MOL   H15618306   4.328   1.748   5.036  1.4599 -0.9867  0.3999
   76MOL   H15718307   4.419   1.670   4.905  1.2914 -0.6404  3.4478
   76MOL   C15818308   4.052   2.058   4.686  0.2339 -0.3660  0.4184
   76MOL   C15918309   3.950   2.147   4.770 -0.8200  0.4035 -0.6682
   76MOL   C16018310   3.840   2.205   4.682  0.1205  0.7767  0.0755
   76MOL   O16118311   3.757   2.141   4.613  0.2027  0.0888 -0.4406
   76MOL   O16218312   3.830   2.336   4.701  0.0624 -0.3997 -0.1629
   76MOL   C16318313   3.730   2.410   4.631 -0.2252  0.5051 -0.5107
   76MOL   H16418314   4.083   2.114   4.598 -0.1197 -1.9290 -0.7303
   76MOL   H16518315   3.999   1.969   4.651  1.0318 -1.1886  1.2817
   76MOL   H16618316   4.005   2.239   4.788  1.4284 -0.9669 -0.2991
   76MOL   H16718317   3.726   2.392   4.523  2.0874  0.8197 -0.6680
   76MOL   H16818318   3.741   2.515   4.660 -2.4013  1.2573 -2.2442
   76MOL   H16918319   3.629   2.383   4.664 -0.1505  2.0514  1.0786
   76MOL   C17018320   3.894   2.080   4.906  0.4144 -0.2289  0.0215
   76MOL   C17118321   3.828   2.174   5.005 -0.7498 -0.3144  0.1895
   76MOL   C17218322   3.748   2.085   5.103  0.0659 -0.0140  0.7443
   76MOL   O17318323   3.638   2.043   5.069  0.0517  0.1569  0.1547
   76MOL   O17418324   3.818   2.056   5.213  0.2472  0.4000 -0.1047
   76MOL   C17518325   3.760   1.982   5.321  0.2442 -0.3432 -0.2834
   76MOL   H17618326   3.831   1.994   4.882  0.1262 -0.4336  1.4632
   76MOL   H17718327   3.976   2.034   4.960 -0.7506 -0.1438  1.8845
   76MOL   H17818328   3.762   2.245   4.956 -1.5119  0.2686  1.9979
   76MOL   H17918329   3.695   2.053   5.373 -0.5275 -0.2077 -1.4123
   76MOL   H18018330   3.842   1.962   5.389 -1.0090 -2.0149  0.7560
   76MOL   H18118331   3.693   1.898   5.306 -0.5751  0.3129 -0.3701
   76MOL   C18218332   3.930   2.265   5.080  0.2655 -0.8120 -0.8610
   76MOL   C18318333   3.857   2.382   5.153  0.0750  0.0375 -0.6335
   76MOL   C18418334   3.883   2.386   5.310  0.0689  0.1151 -0.0661
   76MOL   O18518335   3.796   2.357   5.389  0.0083  0.3524  0.7806
   76MOL   O18618336   4.010   2.420   5.340  0.2144  0.2174  0.0568
   76MOL   C18718337   4.043   2.453   5.476 -0.1931  0.3466 -0.3811
   76MOL   H18818338   4.001   2.210   5.141  0.1973  0.3647  0.2986
   76MOL   H18918339   3.991   2.309   5.001 -0.8684  0.4260 -1.0688
   76MOL   H19018340   3.751   2.363   5.138  0.7559 -1.4958 -3.9625
   76MOL   H19118341   4.004   2.378   5.545  1.8412 -0.6375 -0.2777
   76MOL   H19218342   3.998   2.551   5.498 -0.7370  0.0905 -0.3336
   76MOL   H19318343   4.151   2.450   5.491 -0.6157  0.8630  3.3330
   76MOL   C19418344   3.892   2.511   5.081 -0.7483  0.4356  0.5722
   76MOL   C19518345   3.817   2.636   5.138 -0.4926 -0.0890  0.3115
   76MOL   C19618346   3.900   2.765   5.121  0.2504  0.0118 -0.1977
   76MOL   O19718347   3.989   2.791   5.200  0.6561 -0.2234 -0.5929
   76MOL   O19818348   3.877   2.822   5.008  0.2500  0.2519  0.0250
   76MOL   C19918349   3.936   2.945   4.988 -0.4359 -0.0773  0.6477
   76MOL   H20018350   4.000   2.526   5.073 -0.4844 -1.9270 -0.5702
   76MOL   H20118351   3.864   2.497   4.977  1.9466 -1.7756  0.0692
   76MOL   H20218352   3.811   2.626   5.247 -3.5375 -0.9462  0.1054
   76MOL   H20318353   3.866   3.000   4.926  1.3283  1.3908 -0.0732
   76MOL   H20418354   4.022   2.954   4.922  0.2931 -1.5426  1.3576
   76MOL   H20518355   3.956   2.996   5.082 -2.2004 -0.8433  1.4566
   76MOL   C20618356   3.678   2.634   5.067 -0.2830  0.5618  0.4098
   76MOL   C20718357   3.583   2.742   5.138 -0.7793  0.3552 -0.2605
   76MOL   C20818358   3.461   2.766   5.055  0.0685 -0.0184 -0.0848
   76MOL   O20918359   3.442   2.874   4.999 -0.1459 -0.5300  0.5827
   76MOL   O21018360   3.370   2.662   5.053  0.0525  0.3583  0.4616
   76MOL   C21118361   3.262   2.666   4.962  0.1743  1.2203 -0.1759
   76MOL   H21218362   3.684   2.656   4.961 -1.5000  1.3214  0.4811
   76MOL   H21318363   3.616   2.544   5.071  0.3796  0.0372 -0.9755
   76MOL   H21418364   3.642   2.834   5.140  0.0398 -0.1309 -1.4111
   76MOL   H21518365   3.186   2.731   5.005  0.2587 -1.3754  4.2061
   76MOL   H21618366   3.225   2.565   4.944 -0.3978  0.9866  2.0541
   76MOL   H21718367   3.287   2.712   4.867 -3.0923  0.1432 -1.6249
   76MOL   C21818368   3.548   2.685   5.278  0.2651 -0.2723 -0.4205
   76MOL   C21918369   3.447   2.768   5.356 -0.0101 -0.1114 -0.7349
   76MOL   C22018370   3.417   2.695   5.483 -0.4267  0.0230 -0.6170
   76MOL   O22118371   3.496   2.619   5.541 -0.1261  0.1685 -0.5897
   76MOL   O22218372   3.297   2.735   5.532 -0.2878 -0.0744  0.0648
   76MOL   C22318373   3.249   2.683   5.654 -0.0330 -0.1148 -0.3702
   76MOL   H22418374   3.507   2.585   5.268  1.2006 -0.9269  1.8550
   76MOL   H22518375   3.636   2.678   5.342  2.2767 -1.5114 -3.2061
   76MOL   H22618376   3.352   2.774   5.304  0.3661  0.1800 -1.4092
   76MOL   H22718377   3.206   2.585   5.636  3.8328 -1.9851 -0.0990
   76MOL   H22818378   3.163   2.737   5.693 -0.3050 -2.4339  2.3948
   76MOL   H22918379   3.327   2.666   5.729 -0.8259  0.8430  0.7025
   76MOL   C23018380   3.489   2.919   5.375 -0.2580 -0.9448  1.0632
   76MOL   C23118381   3.380   3.015   5.420  0.5001 -0.3985  0.1058
   76MOL   C23218382   3.255   3.011   5.340  0.7442 -0.4601  0.0409
   76MOL   O23318383   3.142   3.012   5.393  0.0050  0.2987 -0.2122
   76MOL   O23418384   3.277   3.019   5.208 -0.1591  0.5871 -0.0336
   76MOL   C23518385   3.167   3.013   5.115  0.2781 -0.0469 -0.0027
   76MOL   H23618386   3.572   2.936   5.445  0.2010 -0.7231  0.4644
   76MOL   H23718387   3.528   2.953   5.280  0.1454 -0.3626  1.4336
   76MOL   H23818388   3.418   3.117   5.425 -2.7684  0.7852  1.7761
   76MOL   H23918389   3.133   2.910   5.108 -0.4085  0.0636  1.4568
   76MOL   H24018390   3.206   3.045   5.018 -1.5909 -2.3268 -1.5324
   76MOL   H24118391   3.085   3.080   5.140 -0.1377 -0.3059 -0.6692
   76MOL   H24218392   3.363   3.000   5.526 -1.6794 -1.1937 -0.3260
   77MOL     C118393   6.265   3.433   7.278 -0.0370  0.2183  0.0451
   77MOL     C218394   6.289   3.299   7.202 -0.1810 -0.8295  0.0758
   77MOL     C318395   6.337   3.324   7.059 -0.2513 -0.2110 -0.5773
   77MOL     O418396   6.289   3.269   6.965 -0.2163 -0.3367  0.2426
   77MOL     O518397   6.439   3.401   7.053  0.3383  0.3599 -0.4744
   77MOL     C618398   6.519   3.434   6.943  1.0608  0.3495  0.6223
   77MOL     H718399   6.358   3.470   7.322  1.7963 -1.6664 -2.0667
   77MOL     H818400   6.192   3.405   7.353  0.6520 -0.5931  0.4219
   77MOL     H918401   6.194   3.245   7.200  0.0390 -1.1849 -0.7437
   77MOL    H1018402   6.561   3.348   6.891  2.3067  1.7150 -0.6823
   77MOL    H1118403   6.596   3.506   6.970  0.3552  0.7957  1.4714
   77MOL    H1218404   6.464   3.479   6.860  0.9773  0.1099  0.5485
   77MOL    H1318405   6.218   3.505   7.212 -1.5487  0.0384  0.9081
   77MOL    C1418406   6.395   3.214   7.281 -0.3854 -0.0468  0.3292
   77MOL    C1518407   6.396   3.062   7.254 -0.4901  0.7126 -0.2299
   77MOL    C1618408   6.532   2.998   7.287  0.6168  0.0209 -0.5893
   77MOL    O1718409   6.603   2.947   7.200  0.1867  0.2167  0.0204
   77MOL    O1818410   6.563   3.015   7.414 -0.1133  0.2484 -0.0122
   77MOL    C1918411   6.687   2.970   7.467  0.3741  0.3991  0.1411
   77MOL    H2018412   6.494   3.258   7.267 -0.9098  0.6612 -1.1414
   77MOL    H2118413   6.378   3.232   7.387 -0.0830  0.6005  0.2733
   77MOL    H2218414   6.399   3.049   7.146  3.8584 -1.0429  0.0224
   77MOL    H2318415   6.768   2.974   7.394 -0.8859 -1.0036 -1.3777
   77MOL    H2418416   6.668   2.868   7.499  0.0741  0.8139  1.2910
   77MOL    H2518417   6.715   3.032   7.552  2.3682  1.7261 -1.4506
   77MOL    C2618418   6.289   2.980   7.323 -0.1250  0.0899  0.4150
   77MOL    C2718419   6.237   2.846   7.252  0.7343 -0.3384 -0.6396
   77MOL    C2818420   6.199   2.876   7.106  0.0256 -0.0716  0.4844
   77MOL    O2918421   6.265   2.829   7.007 -0.1199  0.0370 -0.2458
   77MOL    O3018422   6.099   2.963   7.092  0.1804  0.0139 -0.4339
   77MOL    C3118423   6.069   3.018   6.967 -0.1982 -0.0487  0.0532
   77MOL    H3218424   6.318   2.948   7.423 -2.1625 -0.6386  0.8047
   77MOL    H3318425   6.214   3.055   7.347 -1.2296 -1.0914  0.6792
   77MOL    H3418426   6.136   2.822   7.286  0.8124  0.0179 -0.1492
   77MOL    H3518427   6.060   3.126   6.970  0.2759  0.0779 -2.1995
   77MOL    H3618428   5.979   2.966   6.932 -0.6657  0.0441  1.0790
   77MOL    H3718429   6.140   2.990   6.890  0.1545 -1.7710  0.9637
   77MOL    C3818430   6.330   2.722   7.275  0.3733  0.1565  0.1958
   77MOL    C3918431   6.256   2.584   7.294 -0.1232  0.0959 -0.1325
   77MOL    C4018432   6.192   2.532   7.165 -0.5047  0.0054  0.2867
   77MOL    O4118433   6.069   2.515   7.166  0.1617  0.3182 -0.2587
   77MOL    O4218434   6.277   2.510   7.057 -0.1935  0.2012 -0.1266
   77MOL    C4318435   6.219   2.447   6.942 -0.4183 -0.3329 -0.0033
   77MOL    H4418436   6.393   2.706   7.188 -0.7807 -3.6172 -0.0560
   77MOL    H4518437   6.400   2.741   7.356 -1.0006 -2.5680  2.0946
   77MOL    H4618438   6.176   2.606   7.364  0.3975 -0.6616  0.7191
   77MOL    H4718439   6.214   2.339   6.953 -0.8478 -0.4686 -1.4802
   77MOL    H4818440   6.263   2.481   6.849 -0.7641 -0.5409 -0.2439
   77MOL    H4918441   6.114   2.473   6.926 -0.0602  1.1735  0.0261
   77MOL    C5018442   6.346   2.469   7.353  0.0659 -0.3382  0.1583
   77MOL    C5118443   6.424   2.502   7.481 -0.1538 -0.0750 -0.2412
   77MOL    C5218444   6.334   2.529   7.604  0.5409  0.3014  0.4854
   77MOL    O5318445   6.370   2.608   7.698 -0.4974  0.5475  0.1044
   77MOL    O5418446   6.223   2.448   7.607 -1.1855 -0.0428 -0.3717
   77MOL    C5518447   6.145   2.453   7.723  0.5854  0.1130 -0.1705
   77MOL    H5618448   6.287   2.378   7.349 -1.7195  0.8633 -2.4942
   77MOL    H5718449   6.419   2.465   7.271 -1.0437 -0.8033 -0.8133
   77MOL    H5818450   6.470   2.600   7.468 -0.2929  0.2578  1.6790
   77MOL    H5918451   6.100   2.552   7.735  1.6639  0.6479 -0.3709
   77MOL    H6018452   6.207   2.437   7.812  0.3321  1.2418  0.2213
   77MOL    H6118453   6.069   2.376   7.724 -0.3084  0.9914  1.3621
   77MOL    C6218454   6.556   2.420   7.509  0.4366  0.4622 -0.2823
   77MOL    C6318455   6.642   2.398   7.389 -0.4883 -0.2041  0.5263
   77MOL    C6418456   6.681   2.527   7.316  0.3215 -0.2199 -0.6707
   77MOL    O6518457   6.697   2.636   7.375 -0.3916 -0.3712  0.0899
   77MOL    O6618458   6.697   2.502   7.185 -0.2617 -0.2581  0.3800
   77MOL    C6718459   6.757   2.605   7.112  0.2962  0.4675  0.1073
   77MOL    H6818460   6.596   2.482   7.589 -1.5776  0.3981  0.8284
   77MOL    H6918461   6.546   2.320   7.552  0.3736  0.8592  0.6325
   77MOL    H7018462   6.580   2.335   7.326  2.0153 -2.1194 -0.1123
   77MOL    H7118463   6.783   2.552   7.021 -2.2100  0.6773 -0.7510
   77MOL    H7218464   6.846   2.646   7.161 -0.7456  2.1417  0.6614
   77MOL    H7318465   6.687   2.685   7.087 -0.5591 -0.2287  0.2597
   77MOL    C7418466   6.776   2.316   7.429  0.7511 -0.3451 -0.3263
   77MOL    C7518467   6.876   2.279   7.310  0.3234 -0.5639 -0.1768
   77MOL    C7618468   7.009   2.224   7.364  0.0502 -0.3613 -0.5629
   77MOL    O7718469   7.017   2.183   7.480  0.3905 -0.0125 -0.2396
   77MOL    O7818470   7.108   2.230   7.278 -0.2974 -0.0418 -0.3835
   77MOL    C7918471   7.240   2.203   7.327  0.1502 -0.4392 -0.4693
   77MOL    H8018472   6.834   2.376   7.499 -0.5483  0.2400  0.2757
   77MOL    H8118473   6.752   2.222   7.478  2.4808 -1.5556 -1.7545
   77MOL    H8218474   6.908   2.368   7.256 -1.8136  0.1406 -0.3287
   77MOL    H8318475   7.255   2.110   7.382 -0.9759 -0.3185  0.0585
   77MOL    H8418476   7.258   2.279   7.403  1.3956 -0.1404 -1.0477
   77MOL    H8518477   7.312   2.221   7.246 -0.4643  1.2153 -0.6627
   77MOL    C8618478   6.816   2.181   7.211 -0.2530 -0.2851 -0.8723
   77MOL    C8718479   6.832   2.213   7.059 -0.0181  0.3874  0.0335
   77MOL    C8818480   6.971   2.180   6.998  0.5232 -0.3566 -0.1125
   77MOL    O8918481   7.036   2.261   6.935 -0.4599 -0.0898  0.2459
   77MOL    O9018482   7.014   2.060   7.019 -0.4292 -0.2676  0.2303
   77MOL    C9118483   7.145   2.027   6.984  0.0599 -0.5627 -0.4559
   77MOL    H9218484   6.847   2.079   7.234 -0.5870 -0.1984  0.0071
   77MOL    H9318485   6.709   2.170   7.223  0.0439 -3.7866 -1.0667
   77MOL    H9418486   6.835   2.322   7.048 -0.0196  0.3256 -0.5762
   77MOL    H9518487   7.142   1.921   7.009 -2.6106 -0.7936 -1.5595
   77MOL    H9618488   7.209   2.057   7.067 -0.1232  0.0878 -0.5450
   77MOL    H9718489   7.181   2.045   6.883 -1.9759  0.8113 -0.9663
   77MOL    C9818490   6.711   2.160   6.984  0.2339  0.7233  0.2625
   77MOL    C9918491   6.701   2.184   6.829 -0.1855 -0.3970 -0.6972
   77MOL   C10018492   6.657   2.063   6.755 -0.2608  0.9280 -0.4580
   77MOL   O10118493   6.538   2.057   6.724  0.4372 -0.2204  0.1746
   77MOL   O10218494   6.757   1.975   6.727  0.2117 -0.0465 -0.4059
   77MOL   C10318495   6.721   1.858   6.657 -0.1827 -0.3325 -0.2437
   77MOL   H10418496   6.701   2.054   7.006 -2.4446  0.1023 -3.5689
   77MOL   H10518497   6.626   2.211   7.029  0.2420  0.7394  0.2600
   77MOL   H10618498   6.803   2.189   6.792  1.3036 -1.6941  2.9617
   77MOL   H10718499   6.714   1.893   6.554 -0.0903  2.2208  0.5760
   77MOL   H10818500   6.621   1.819   6.674 -0.0648 -0.0056  1.2040
   77MOL   H10918501   6.800   1.783   6.664  0.2672 -0.0174 -1.6442
   77MOL   C11018502   6.616   2.308   6.796  0.1185  0.0112 -0.1258
   77MOL   C11118503   6.612   2.350   6.643 -0.0026  0.7959 -0.5526
   77MOL   C11218504   6.541   2.486   6.648 -0.3394 -0.1358  0.0482
   77MOL   O11318505   6.425   2.507   6.600  0.4851 -0.0012 -0.0972
   77MOL   O11418506   6.615   2.577   6.709 -0.5979  0.0270 -0.0453
   77MOL   C11518507   6.586   2.715   6.695  0.8852  0.4412 -0.2017
   77MOL   H11618508   6.511   2.302   6.827 -0.9300  1.4536 -3.1521
   77MOL   H11718509   6.665   2.387   6.854  1.0396 -0.2621 -0.5247
   77MOL   H11818510   6.553   2.280   6.584 -1.7709  1.4777  0.3820
   77MOL   H11918511   6.655   2.756   6.621 -0.3893  0.2359 -1.5371
   77MOL   H12018512   6.599   2.768   6.789 -3.7151 -1.3591  1.5881
   77MOL   H12118513   6.481   2.723   6.668  0.3048 -2.3682  1.0953
   77MOL   C12218514   6.752   2.367   6.585 -0.4319  0.1812  0.2262
   77MOL   C12318515   6.751   2.425   6.440 -1.0068  0.0591 -0.3917
   77MOL   C12418516   6.804   2.563   6.418 -0.0547 -0.4889 -0.5773
   77MOL   O12518517   6.723   2.656   6.390  0.2516  0.0789  0.4282
   77MOL   O12618518   6.934   2.569   6.426 -0.8196  0.6350 -0.4142
   77MOL   C12718519   6.993   2.695   6.391 -0.0808  0.1285  0.1846
   77MOL   H12818520   6.816   2.428   6.649  0.3342  0.7157 -1.0521
   77MOL   H12918521   6.806   2.272   6.583 -0.4321  0.2085 -1.9895
   77MOL   H13018522   6.645   2.439   6.419 -0.8654  1.1604 -0.4257
   77MOL   H13118523   7.006   2.750   6.485 -0.7744  2.3230 -0.9805
   77MOL   H13218524   6.951   2.757   6.312 -1.1281 -1.6865 -0.7121
   77MOL   H13318525   7.099   2.680   6.372 -0.0777  0.9739 -0.4772
   77MOL   C13418526   6.815   2.318   6.347  0.0991  0.1751 -0.1299
   77MOL   C13518527   6.754   2.174   6.345  0.6488 -0.3883  0.4118
   77MOL   C13618528   6.607   2.174   6.300 -0.5291 -1.2197  0.5068
   77MOL   O13718529   6.561   2.260   6.232  0.3912 -0.0824  0.4290
   77MOL   O13818530   6.554   2.057   6.331  0.2557 -0.0208  0.1584
   77MOL   C13918531   6.408   2.051   6.344  0.9344 -0.4769 -0.2372
   77MOL   H14018532   6.798   2.353   6.245  0.8211  1.4269  0.1687
   77MOL   H14118533   6.923   2.321   6.359  0.2259  1.9353 -1.4868
   77MOL   H14218534   6.757   2.127   6.443 -0.1205 -1.1079  0.0957
   77MOL   H14318535   6.352   2.076   6.254  1.2090 -0.1575 -0.3238
   77MOL   H14418536   6.367   2.104   6.430  3.7089  1.8681 -0.2666
   77MOL   H14518537   6.374   1.949   6.362 -1.2455  0.2615 -0.0427
   77MOL   C14618538   6.835   2.090   6.244  0.1171  0.7543 -0.4265
   77MOL   C14718539   6.984   2.063   6.276 -0.0529  0.5044 -0.4396
   77MOL   C14818540   7.001   2.009   6.416 -0.0503  0.5099 -0.7173
   77MOL   O14918541   6.971   1.895   6.449  0.7161 -0.5528  0.2468
   77MOL   O15018542   7.068   2.093   6.492 -0.3688 -0.1804 -0.2782
   77MOL   C15118543   7.106   2.056   6.625 -0.3846 -0.5894  0.3735
   77MOL   H15218544   6.789   1.992   6.231  0.7251  0.4780 -0.5020
   77MOL   H15318545   6.830   2.139   6.147 -0.3545  0.0690 -0.7566
   77MOL   H15418546   7.041   2.156   6.279  0.8414 -0.0750  1.2096
   77MOL   H15518547   7.136   2.143   6.684 -1.1438  0.1013 -0.2404
   77MOL   H15618548   7.195   1.995   6.619  0.1697  0.4085 -2.3203
   77MOL   H15718549   7.024   2.016   6.684  0.9210 -2.8083  0.7070
   77MOL   C15818550   7.034   1.964   6.169  0.0834  0.1491  0.2191
   77MOL   C15918551   7.019   2.016   6.023 -0.2597 -0.3117  0.1916
   77MOL   C16018552   7.094   2.153   6.009  0.3452  0.0459 -0.3703
   77MOL   O16118553   7.207   2.180   6.053 -0.5348 -0.4356 -0.2364
   77MOL   O16218554   7.029   2.241   5.932 -0.0965  0.0324 -0.0732
   77MOL   C16318555   7.086   2.366   5.892 -0.3764 -0.3680 -0.1163
   77MOL   H16418556   7.138   1.929   6.171 -0.8281 -2.7543 -1.1610
   77MOL   H16518557   6.985   1.868   6.181  1.5495 -0.7637 -0.9385
   77MOL   H16618558   6.912   2.029   6.005 -0.0046 -0.2310 -1.3676
   77MOL   H16718559   7.177   2.351   5.834  0.1254 -2.3129  1.1087
   77MOL   H16818560   7.113   2.418   5.984 -0.4219  0.4076 -0.5392
   77MOL   H16918561   7.013   2.414   5.826  1.5360  0.3073 -1.7803
   77MOL   C17018562   7.060   1.904   5.926 -0.2136 -0.4186 -0.1331
   77MOL   C17118563   7.059   1.922   5.775 -0.0202  0.8984  0.7219
   77MOL   C17218564   6.916   1.952   5.711 -0.1571  0.0155  0.6021
   77MOL   O17318565   6.834   1.864   5.689  0.0335  0.2294  0.3148
   77MOL   O17418566   6.883   2.081   5.722  0.2186  0.4713  0.7918
   77MOL   C17518567   6.757   2.123   5.693  0.1280 -0.2535  0.7099
   77MOL   H17618568   7.162   1.884   5.957 -0.3954  0.7879  1.2937
   77MOL   H17718569   6.993   1.823   5.956  0.2398 -0.5694  0.4828
   77MOL   H17818570   7.093   1.821   5.751  0.3600  0.6736  2.1543
   77MOL   H17918571   6.677   2.101   5.765  0.6316 -1.6315  0.8767
   77MOL   H18018572   6.733   2.092   5.591  0.5945  2.0483 -0.1101
   77MOL   H18118573   6.766   2.230   5.677 -0.3541 -0.1475  1.1188
   77MOL   C18218574   7.174   2.004   5.719  0.2358  0.5820 -0.3554
   77MOL   C18318575   7.319   1.955   5.747 -0.1687 -0.4170  0.3354
   77MOL   C18418576   7.349   1.801   5.719  0.2499  0.5095  0.7166
   77MOL   O18518577   7.372   1.716   5.807 -0.2287 -0.2413 -0.0318
   77MOL   O18618578   7.319   1.775   5.596 -0.2485 -0.7247 -0.0726
   77MOL   C18718579   7.316   1.639   5.555 -0.5276  0.1219  0.7381
   77MOL   H18818580   7.165   1.995   5.611 -2.0385 -0.0785 -0.1409
   77MOL   H18918581   7.158   2.111   5.734  1.6487  0.8974 -0.9985
   77MOL   H19018582   7.328   1.969   5.855 -0.8689 -1.4629  0.5453
   77MOL   H19118583   7.213   1.604   5.562 -0.2811 -0.5911  0.8383
   77MOL   H19218584   7.373   1.566   5.613  1.7056  0.8675 -0.4864
   77MOL   H19318585   7.341   1.618   5.451 -0.9205 -0.6874  0.7957
   77MOL   C19418586   7.413   2.050   5.682  0.3122  0.1493 -0.5773
   77MOL   C19518587   7.565   2.030   5.717 -0.5038 -0.6522  0.1454
   77MOL   C19618588   7.648   1.990   5.594 -0.0040  0.6739  0.0125
   77MOL   O19718589   7.702   1.883   5.581  0.2364 -0.4062  0.2929
   77MOL   O19818590   7.648   2.089   5.504  0.6119  0.1654 -0.5639
   77MOL   C19918591   7.740   2.084   5.395  0.1162 -0.4012 -0.3646
   77MOL   H20018592   7.390   2.040   5.576 -1.6054 -2.3566  0.0324
   77MOL   H20118593   7.384   2.153   5.703  1.4739  0.1334  1.1999
   77MOL   H20218594   7.569   1.945   5.785  0.5940  0.5036  1.5623
   77MOL   H20318595   7.838   2.075   5.440  0.6861  0.2097 -1.4427
   77MOL   H20418596   7.728   2.180   5.343  0.9451  0.3989  0.8955
   77MOL   H20518597   7.721   2.001   5.327  1.8591 -1.6131  0.6035
   77MOL   C20618598   7.614   2.157   5.790 -0.7816  0.5604 -0.2508
   77MOL   C20718599   7.708   2.124   5.917 -0.4603 -0.3446 -0.2869
   77MOL   C20818600   7.853   2.102   5.870  0.0570 -0.3180  0.0724
   77MOL   O20918601   0.005   2.191   5.865 -0.2979 -0.1508 -0.0336
   77MOL   O21018602   7.876   1.973   5.838 -0.4405  0.1630 -0.5356
   77MOL   C21118603   0.064   1.936   5.780 -0.3453 -0.1625 -0.2684
   77MOL   H21218604   7.664   2.227   5.723 -0.1908 -0.2822 -0.6911
   77MOL   H21318605   7.524   2.204   5.829 -0.8192  1.7448 -1.7128
   77MOL   H21418606   7.675   2.033   5.968  0.4890 -1.0308 -0.8785
   77MOL   H21518607   0.067   1.827   5.784  0.9918 -0.0982  1.1396
   77MOL   H21618608   0.153   1.968   5.834  0.5158 -0.9050 -1.2328
   77MOL   H21718609   0.068   1.975   5.679  0.2392  1.1288  0.2431
   77MOL   C21818610   7.696   2.241   6.020  0.4143  0.5312  0.0712
   77MOL   C21918611   7.762   2.222   6.156  0.0125  0.0353  0.4880
   77MOL   C22018612   7.759   2.346   6.244 -0.0424  0.4536  0.1364
   77MOL   O22118613   7.695   2.446   6.209 -0.3502 -0.2005 -0.1254
   77MOL   O22218614   7.838   2.338   6.358  0.0715 -0.4724  0.8012
   77MOL   C22318615   7.858   2.447   6.450 -0.7139 -0.2372 -0.1633
   77MOL   H22418616   7.715   2.336   5.970 -0.8122  0.6964 -0.0949
   77MOL   H22518617   7.592   2.266   6.042  0.3854 -0.9477  1.7431
   77MOL   H22618618   7.867   2.197   6.143  0.3626  1.8683 -0.3613
   77MOL   H22718619   0.020   2.430   6.499 -1.3088 -2.6325  0.2102
   77MOL   H22818620   7.774   2.476   6.513 -0.8699  1.4421 -1.1022
   77MOL   H22918621   7.859   2.541   6.394  0.1798  0.7430  1.4664
   77MOL   C23018622   7.702   2.102   6.239  0.1343 -0.8218  0.7153
   77MOL   C23118623   7.549   2.111   6.262  0.9095  0.5765  0.7104
   77MOL   C23218624   7.502   2.190   6.382  0.3676  0.8515 -0.1907
   77MOL   O23318625   7.549   2.169   6.496 -0.7630  0.0390 -0.0754
   77MOL   O23418626   7.383   2.257   6.355  0.3011  0.4622  0.4099
   77MOL   C23518627   7.323   2.331   6.463 -0.3188  1.0539 -0.1226
   77MOL   H23618628   7.727   2.009   6.187  0.6139  0.9781 -2.3358
   77MOL   H23718629   7.756   2.094   6.334  3.3791 -2.0665 -1.1503
   77MOL   H23818630   7.516   2.008   6.280  1.3987 -0.1521 -2.2320
   77MOL   H23918631   7.366   2.431   6.471 -0.6581  1.2438 -0.6709
   77MOL   H24018632   7.328   2.274   6.556 -1.7398  1.4659  0.2161
   77MOL   H24118633   7.216   2.341   6.448 -0.1920  0.8890 -1.1841
   77MOL   H24218634   7.495   2.119   6.167  0.0174  0.8760  1.2359
   78MOL     C118635   3.767   0.810   3.276 -0.1676 -0.0089 -0.1325
   78MOL     C218636   3.910   0.826   3.334 -1.4037 -0.4578 -0.0648
   78MOL     C318637   3.969   0.681   3.344 -0.1813  0.1019  0.4157
   78MOL     O418638   4.010   0.641   3.454 -0.1952  0.3053  0.5598
   78MOL     O518639   3.970   0.611   3.231 -0.0413  0.4514  0.3422
   78MOL     C618640   4.028   0.483   3.243  0.3447  0.0492 -0.1120
   78MOL     H718641   3.733   0.912   3.263  1.0824  0.5580  0.9297
   78MOL     H818642   3.690   0.767   3.340 -0.7641  2.2047  0.6577
   78MOL     H918643   3.900   0.875   3.431  0.9371  1.0776 -0.5406
   78MOL    H1018644   3.958   0.417   3.295  1.5976 -1.3257 -0.1403
   78MOL    H1118645   4.126   0.475   3.290  0.1788  1.2140  0.4442
   78MOL    H1218646   4.036   0.435   3.145 -0.5123 -1.1680  0.3909
   78MOL    H1318647   3.769   0.756   3.181  0.2064 -1.3355  0.6186
   78MOL    C1418648   3.994   0.921   3.243  0.7116  0.1193  0.8860
   78MOL    C1518649   4.131   0.965   3.290  0.2213  0.4711 -0.1884
   78MOL    C1618650   4.145   1.001   3.442 -1.3999  0.9249  0.7965
   78MOL    O1718651   4.126   1.118   3.479 -0.0843 -0.0670 -0.4457
   78MOL    O1818652   4.155   0.904   3.520 -0.0084  0.4898 -0.5114
   78MOL    C1918653   4.171   0.922   3.660 -0.1003 -0.1134  0.0483
   78MOL    H2018654   3.991   0.897   3.137 -1.2346  1.5681  0.5947
   78MOL    H2118655   3.936   1.013   3.247 -2.3102 -1.6607 -0.1841
   78MOL    H2218656   4.163   1.050   3.231 -0.1422  0.5709 -0.2420
   78MOL    H2318657   4.182   0.832   3.721 -2.4408  0.8649  1.9818
   78MOL    H2418658   4.089   0.979   3.703 -0.7111  0.3636 -1.6845
   78MOL    H2518659   4.266   0.973   3.674  0.7618 -1.3997 -0.9179
   78MOL    C2618660   4.243   0.854   3.258  0.4753  0.3661 -0.4975
   78MOL    C2718661   4.303   0.859   3.121 -0.0413  0.6059  0.0901
   78MOL    C2818662   4.397   0.968   3.097 -0.2136 -0.4457  0.6687
   78MOL    O2918663   4.426   1.053   3.180  0.6456 -0.2356 -0.6786
   78MOL    O3018664   4.430   0.978   2.972  0.3839 -0.1221 -0.2670
   78MOL    C3118665   4.499   1.091   2.924 -0.2973 -0.0076 -0.5348
   78MOL    H3218666   4.330   0.851   3.324  1.2348 -1.9770 -1.5540
   78MOL    H3318667   4.198   0.755   3.266  0.0825  0.4050 -2.1288
   78MOL    H3418668   4.227   0.877   3.044 -0.8225  2.5600  1.2753
   78MOL    H3518669   4.440   1.177   2.956 -0.5284 -0.7793  1.1862
   78MOL    H3618670   4.501   1.082   2.816  2.8035 -0.0231 -0.5130
   78MOL    H3718671   4.598   1.114   2.962 -0.0493 -1.0166 -0.5499
   78MOL    C3818672   4.373   0.723   3.086 -0.0808 -0.5641  0.2698
   78MOL    C3918673   4.356   0.659   2.947  0.5238 -0.5550 -0.1905
   78MOL    C4018674   4.466   0.559   2.920  0.2946  0.7529 -0.2928
   78MOL    O4118675   4.433   0.444   2.886 -0.5388  0.5328 -0.0286
   78MOL    O4218676   4.598   0.610   2.940  0.1277 -0.0396  0.2356
   78MOL    C4318677   4.705   0.529   2.924 -0.4148 -0.3204  0.0742
   78MOL    H4418678   4.480   0.734   3.103 -0.1551  0.9952 -0.1554
   78MOL    H4518679   4.351   0.640   3.153  1.9636 -1.8076 -0.5548
   78MOL    H4618680   4.375   0.731   2.867  1.0125 -0.8691 -0.3590
   78MOL    H4718681   4.782   0.576   2.862 -2.3801  1.5584 -1.0415
   78MOL    H4818682   4.674   0.437   2.875 -0.7452 -0.1118 -0.1038
   78MOL    H4918683   4.737   0.491   3.021  1.4602 -1.8658 -1.1130
   78MOL    C5018684   4.216   0.607   2.931 -0.0743 -0.1940  0.4579
   78MOL    C5118685   4.135   0.673   2.819 -0.5872 -0.5947  0.2167
   78MOL    C5218686   4.180   0.653   2.671 -0.3866  0.6097 -0.3905
   78MOL    O5318687   4.234   0.542   2.650  0.1241  0.3611 -0.0712
   78MOL    O5418688   4.148   0.758   2.585  0.6886 -0.1320  0.6087
   78MOL    C5518689   4.190   0.753   2.453 -0.5845 -0.3940  0.0299
   78MOL    H5618690   4.210   0.502   2.904  1.8190 -0.1444 -0.2158
   78MOL    H5718691   4.168   0.614   3.029 -0.0672  1.1317  0.3792
   78MOL    H5818692   4.165   0.778   2.828 -0.7535 -0.5853  0.7038
   78MOL    H5918693   4.285   0.808   2.453 -1.9724  2.1603  2.9945
   78MOL    H6018694   4.119   0.789   2.380 -0.5314 -0.0926  0.1257
   78MOL    H6118695   4.212   0.651   2.421  1.5498  0.4668 -1.3933
   78MOL    C6218696   3.981   0.665   2.834 -0.4560 -0.3525 -0.6315
   78MOL    C6318697   3.918   0.525   2.855 -0.6177 -0.2432  0.1724
   78MOL    C6418698   3.770   0.545   2.887  0.1124 -0.1033 -0.2454
   78MOL    O6518699   3.712   0.657   2.894  0.3315  0.4254 -0.1955
   78MOL    O6618700   3.708   0.425   2.909 -0.3558 -0.3437 -0.3379
   78MOL    C6718701   3.568   0.409   2.934  0.8636  0.0322 -0.2483
   78MOL    H6818702   3.960   0.721   2.925  1.2481 -0.2717 -0.2851
   78MOL    H6918703   3.932   0.723   2.756 -1.7726 -0.6320 -0.0227
   78MOL    H7018704   3.965   0.483   2.944 -1.5953  0.6526  1.1336
   78MOL    H7118705   3.509   0.456   2.855 -0.6487 -0.4902  0.5392
   78MOL    H7218706   3.539   0.458   3.028 -2.0211 -0.3270 -0.8888
   78MOL    H7318707   3.535   0.305   2.928 -2.4048  1.0617 -1.0781
   78MOL    C7418708   3.932   0.439   2.728 -0.3746 -0.1788  0.2700
   78MOL    C7518709   4.027   0.315   2.735 -0.7842 -0.9655 -0.0462
   78MOL    C7618710   3.967   0.211   2.833  0.8278 -0.2239  0.9459
   78MOL    O7718711   4.002   0.215   2.953  0.4354  0.3560  0.1989
   78MOL    O7818712   3.864   0.142   2.774 -0.2900  0.2594 -0.5050
   78MOL    C7918713   3.791   0.055   2.860 -0.2251  0.0361  0.3448
   78MOL    H8018714   3.838   0.394   2.694 -0.5596 -0.9774  1.8243
   78MOL    H8118715   3.965   0.502   2.646 -1.5739 -0.7733 -0.6935
   78MOL    H8218716   4.116   0.364   2.775  0.1946 -1.5016 -1.4909
   78MOL    H8318717   3.862   7.908   2.879 -0.4942  0.1157  1.7308
   78MOL    H8418718   3.699   0.029   2.806 -0.1815  1.4537 -0.4343
   78MOL    H8518719   3.770   0.087   2.962  0.9267 -1.0903  0.9418
   78MOL    C8618720   4.060   0.255   2.596 -0.5055 -0.5167  0.5435
   78MOL    C8718721   4.163   0.143   2.597 -0.5765  0.5909 -0.6365
   78MOL    C8818722   4.155   0.062   2.470  0.1988 -0.2849  0.2995
   78MOL    O8918723   4.135   7.876   2.473 -0.2373 -0.6329 -0.1517
   78MOL    O9018724   4.176   0.129   2.358 -0.2653  0.7777 -0.2205
   78MOL    C9118725   4.154   0.060   2.237 -0.1050  0.2613  0.0025
   78MOL    H9218726   3.965   0.221   2.555 -0.0282 -1.8932  0.5666
   78MOL    H9318727   4.099   0.331   2.528  0.7814 -2.4680 -0.9340
   78MOL    H9418728   4.149   0.084   2.688 -0.0535 -1.4031 -1.8318
   78MOL    H9518729   4.239   7.932   2.205  0.9707  1.1544  1.1127
   78MOL    H9618730   4.150   0.128   2.152 -0.8030 -1.1360 -1.1044
   78MOL    H9718731   4.064   7.932   2.237 -0.5485  0.8991 -0.5806
   78MOL    C9818732   4.302   0.208   2.603  0.3192  0.2798 -0.5060
   78MOL    C9918733   4.417   0.103   2.599  0.5926  0.0322 -0.2134
   78MOL   C10018734   4.504   0.113   2.472 -0.3801 -0.3804  0.4385
   78MOL   O10118735   4.519   0.016   2.390 -0.4458 -0.3680  0.1576
   78MOL   O10218736   4.564   0.236   2.460  0.5772  0.2326 -0.2600
   78MOL   C10318737   4.628   0.265   2.338 -0.2553  0.1321 -0.1964
   78MOL   H10418738   4.309   0.284   2.525  0.0846  0.3006 -0.5062
   78MOL   H10518739   4.288   0.270   2.691 -1.6056 -1.3543  0.3747
   78MOL   H10618740   4.373   0.003   2.591 -2.6350  1.5712 -2.4427
   78MOL   H10718741   4.708   0.193   2.317 -0.1110  0.6564 -1.4405
   78MOL   H10818742   4.663   0.367   2.331 -2.2951  0.7120 -2.6954
   78MOL   H10918743   4.538   0.263   2.277 -0.0544 -1.7370 -0.4718
   78MOL   C11018744   4.502   0.108   2.726 -0.4506  0.2959  0.3462
   78MOL   C11118745   4.571   7.904   2.756  0.4373 -0.0696 -0.5548
   78MOL   C11218746   4.679   7.932   2.857 -0.4957  0.2922  0.1256
   78MOL   O11318747   4.797   7.918   2.829  0.4278 -0.1966  0.2242
   78MOL   O11418748   4.643   0.042   2.975  0.5964 -0.5010  0.7121
   78MOL   C11518749   4.736   0.076   3.067 -0.2627  0.2756  0.2000
   78MOL   H11618750   4.567   0.196   2.730  0.4165 -0.2890 -0.4574
   78MOL   H11718751   4.440   0.135   2.811 -0.4964 -0.3991  0.5364
   78MOL   H11818752   4.622   7.856   2.672  1.3369  2.5588 -1.5694
   78MOL   H11918753   4.703   0.088   3.171 -0.6711  0.7059  0.0243
   78MOL   H12018754   4.781   0.171   3.037  0.3664 -0.3071 -0.7080
   78MOL   H12118755   4.816   0.003   3.077 -0.4411  0.0434 -0.0652
   78MOL   C12218756   4.462   7.807   2.814  0.0619  0.4522  0.6315
   78MOL   C12318757   4.486   7.655   2.800 -0.0331  0.3358  0.6160
   78MOL   C12418758   4.496   7.611   2.655 -0.0720  0.0990  0.0993
   78MOL   O12518759   4.605   7.577   2.602  0.5751 -0.2800  0.5821
   78MOL   O12618760   4.387   7.630   2.589  0.6069 -0.2061  0.2298
   78MOL   C12718761   4.376   7.593   2.451 -0.0028 -0.5247  0.0251
   78MOL   H12818762   4.428   7.835   2.913  2.0075 -0.2902  1.5240
   78MOL   H12918763   4.369   7.827   2.760  1.7445  2.6486 -1.5622
   78MOL   H13018764   4.386   7.619   2.825 -0.7888  1.4190 -0.7328
   78MOL   H13118765   4.297   7.656   2.409 -1.9089 -1.3145  2.3231
   78MOL   H13218766   4.346   7.490   2.429  0.9659 -1.0511  1.1449
   78MOL   H13318767   4.467   7.617   2.396 -0.6789 -1.7039 -1.6490
   78MOL   C13418768   4.587   7.594   2.897 -0.0701 -0.8406  0.3524
   78MOL   C13518769   4.575   7.438   2.925 -0.3555  0.1619 -0.3414
   78MOL   C13618770   4.673   7.358   2.834 -1.1417  0.0080 -0.2820
   78MOL   O13718771   4.633   7.282   2.748  0.0039 -0.4019  0.3284
   78MOL   O13818772   4.802   7.394   2.854 -0.3965 -0.3482 -0.8556
   78MOL   C13918773   4.899   7.357   2.759  0.1254  0.2797 -0.2835
   78MOL   H14018774   4.681   7.620   2.848 -0.2753 -2.2721 -0.8266
   78MOL   H14118775   4.582   7.658   2.985  1.1032  0.6366 -0.6107
   78MOL   H14218776   4.475   7.398   2.911  0.8224 -1.9744 -2.8676
   78MOL   H14318777   5.003   7.377   2.784  0.3060  1.1197 -1.6710
   78MOL   H14418778   4.892   7.429   2.677 -0.1760 -0.2478 -0.7243
   78MOL   H14518779   4.879   7.256   2.723  0.3056  0.6813 -1.5512
   78MOL   C14618780   4.591   7.405   3.075  0.0083 -0.4592 -0.5637
   78MOL   C14718781   4.570   7.261   3.128  0.8831 -0.2240  0.5290
   78MOL   C14818782   4.436   7.208   3.080  0.2128  0.1626 -0.7406
   78MOL   O14918783   4.431   7.106   3.016  0.4457 -0.3886 -0.0654
   78MOL   O15018784   4.334   7.294   3.111 -0.1440 -0.3301  0.1225
   78MOL   C15118785   4.202   7.268   3.070 -0.2137  0.5164  0.5706
   78MOL   H15218786   4.681   7.447   3.119 -0.5243 -0.0556  0.1561
   78MOL   H15318787   4.514   7.460   3.129 -0.8599 -3.8389  1.8789
   78MOL   H15418788   4.556   7.267   3.236 -1.9218  1.4213  0.1120
   78MOL   H15518789   4.138   7.338   3.124  0.5026  0.5598  1.3802
   78MOL   H15618790   4.176   7.170   3.111  1.7368 -0.5213 -0.6568
   78MOL   H15718791   4.186   7.286   2.964 -1.3778  0.9486  0.8029
   78MOL   C15818792   4.688   7.155   3.103  0.1924  0.0044 -0.1707
   78MOL   C15918793   4.822   7.206   3.163 -0.0644 -0.0101 -0.0218
   78MOL   C16018794   4.811   7.192   3.315  0.2289  0.0387 -0.5433
   78MOL   O16118795   4.769   7.089   3.374 -0.1057  0.3649  0.6534
   78MOL   O16218796   4.817   7.311   3.382  0.0950 -0.3481 -0.0843
   78MOL   C16318797   4.789   7.310   3.525 -0.0334 -0.2054 -0.2226
   78MOL   H16418798   4.666   7.057   3.144  2.2588 -0.5713 -0.4152
   78MOL   H16518799   4.707   7.140   2.996  0.4140  1.8808 -0.4084
   78MOL   H16618800   4.846   7.308   3.136 -0.4142  0.9952  3.2506
   78MOL   H16718801   4.691   7.275   3.557 -1.3153  1.9816 -1.6324
   78MOL   H16818802   4.805   7.412   3.559  1.4253  0.4254 -2.6182
   78MOL   H16918803   4.863   7.255   3.584 -0.2743 -0.1255  0.1533
   78MOL   C17018804   4.932   7.115   3.112  0.2176  0.7910  0.0241
   78MOL   C17118805   5.068   7.156   3.157 -0.8936  0.9587 -0.6156
   78MOL   C17218806   5.165   7.037   3.178  0.4211  0.1808 -0.2276
   78MOL   O17318807   5.239   6.990   3.090  0.2084 -0.0257 -0.1406
   78MOL   O17418808   5.161   6.981   3.304 -0.0398 -0.0637  0.6205
   78MOL   C17518809   5.275   6.895   3.335 -0.3448  0.1472  0.4038
   78MOL   H17618810   4.913   7.012   3.143 -0.4078  1.1559  0.8925
   78MOL   H17718811   4.930   7.113   3.003  1.0973 -0.3202  0.0195
   78MOL   H17818812   5.058   7.186   3.261 -1.9116 -2.0674  0.2459
   78MOL   H17918813   5.283   6.891   3.444  0.7738  0.2531  0.3295
   78MOL   H18018814   5.372   6.927   3.297 -0.8330  0.1841 -0.8304
   78MOL   H18118815   5.259   6.792   3.304 -1.6309  0.8041 -1.2075
   78MOL   C18218816   5.124   7.272   3.072  0.0248 -0.6566  0.1462
   78MOL   C18318817   5.257   7.328   3.124 -0.3853  0.0515 -0.0132
   78MOL   C18418818   5.306   7.427   3.011  0.6217 -0.0091  0.7165
   78MOL   O18518819   5.397   7.399   2.930  0.0670  0.6782  0.6807
   78MOL   O18618820   5.236   7.546   3.006 -0.6289  0.4628  0.3703
   78MOL   C18718821   5.301   7.657   2.936  0.6784 -0.2821 -0.7583
   78MOL   H18818822   5.135   7.231   2.971  0.9907 -0.0190 -0.0159
   78MOL   H18918823   5.052   7.354   3.075  0.2591 -0.4772  0.8303
   78MOL   H19018824   5.326   7.244   3.122 -0.6827 -0.1819 -1.9921
   78MOL   H19118825   5.247   7.751   2.940  1.3793  0.0234  2.8673
   78MOL   H19218826   5.324   7.635   2.831 -0.2449  0.3020 -1.0922
   78MOL   H19318827   5.397   7.674   2.984  0.7932 -1.1286 -0.6815
   78MOL   C19418828   5.249   7.394   3.263 -1.0123  0.2787 -0.7593
   78MOL   C19518829   5.304   7.317   3.388  0.3065 -0.0201  0.7407
   78MOL   C19618830   5.455   7.295   3.382  0.6460  0.1239 -1.0459
   78MOL   O19718831   5.504   7.194   3.336  0.2250  0.2680 -0.3572
   78MOL   O19818832   5.525   7.399   3.426 -0.1055  0.2904 -0.4048
   78MOL   C19918833   5.660   7.393   3.455  0.1521 -0.0406  0.1320
   78MOL   H20018834   5.307   7.487   3.263 -1.1670  0.3739 -1.1554
   78MOL   H20118835   5.144   7.412   3.286 -0.9733  0.8838 -1.0420
   78MOL   H20218836   5.250   7.223   3.381 -1.1732  0.8985 -0.5013
   78MOL   H20318837   5.679   7.473   3.528 -0.3538 -1.6530  2.0831
   78MOL   H20418838   5.704   7.424   3.361 -0.7050  0.3738 -0.1336
   78MOL   H20518839   5.705   7.304   3.499  0.3802 -0.4077 -0.8292
   78MOL   C20618840   5.249   7.373   3.521  0.3783 -0.3054  0.1616
   78MOL   C20718841   5.275   7.267   3.641  0.3298 -0.2142 -0.2913
   78MOL   C20818842   5.411   7.297   3.704 -0.4116  0.3552 -0.4501
   78MOL   O20918843   5.501   7.216   3.694 -0.3198  0.6369  0.6036
   78MOL   O21018844   5.420   7.420   3.771  0.6401 -0.5097  0.4540
   78MOL   C21118845   5.534   7.456   3.838  1.0017 -0.1584 -0.0175
   78MOL   H21218846   5.299   7.469   3.538  0.7582 -0.2109 -1.4134
   78MOL   H21318847   5.144   7.400   3.517  0.1711 -1.0064  0.9536
   78MOL   H21418848   5.277   7.169   3.594  0.2635 -0.5475  0.3865
   78MOL   H21518849   5.577   7.540   3.782  1.5168 -0.9546 -0.8192
   78MOL   H21618850   5.604   7.374   3.853  1.6260 -0.1624 -2.7360
   78MOL   H21718851   5.509   7.497   3.936 -1.1683  0.4761 -0.7980
   78MOL   C21818852   5.163   7.270   3.755 -0.0467  0.0940 -0.3308
   78MOL   C21918853   5.145   7.138   3.836  0.1969  1.0127  1.0829
   78MOL   C22018854   5.057   7.164   3.956 -0.7797 -0.1741  0.1049
   78MOL   O22118855   5.108   7.205   4.060  0.3873  0.2886 -0.0649
   78MOL   O22218856   4.927   7.148   3.932  0.3001  0.0790  0.3733
   78MOL   C22318857   4.825   7.172   4.024  0.0047 -0.6830 -0.5153
   78MOL   H22418858   5.180   7.353   3.823  1.0558  1.6850 -2.4985
   78MOL   H22518859   5.071   7.298   3.703  0.9791 -0.1219 -2.3269
   78MOL   H22618860   5.247   7.111   3.866 -0.6437 -2.2081  1.2338
   78MOL   H22718861   4.826   7.101   4.107 -3.1529 -0.4244 -0.2095
   78MOL   H22818862   4.731   7.164   3.970 -2.1339 -1.0373  3.1091
   78MOL   H22918863   4.842   7.275   4.056 -0.2638 -0.4414 -1.1541
   78MOL   C23018864   5.085   7.017   3.757 -0.2100  0.2352  0.0982
   78MOL   C23118865   5.089   6.878   3.819 -0.4613  0.4033 -0.4760
   78MOL   C23218866   5.219   6.793   3.813 -0.5244 -0.4336  0.4577
   78MOL   O23318867   5.278   6.773   3.919  0.2269  0.1557 -0.1510
   78MOL   O23418868   5.264   6.765   3.694 -0.0694  0.6907 -0.2791
   78MOL   C23518869   5.381   6.694   3.681 -0.2973  0.2018  0.1152
   78MOL   H23618870   4.980   7.032   3.735 -0.0874  1.6970  0.4559
   78MOL   H23718871   5.116   7.011   3.652  0.5040 -0.8959  0.3694
   78MOL   H23818872   5.020   6.810   3.770 -0.6848  1.2580 -1.3447
   78MOL   H23918873   5.473   6.748   3.704 -0.4808 -0.2186  1.9375
   78MOL   H24018874   5.394   6.665   3.577 -0.5701 -2.4361  0.8010
   78MOL   H24118875   5.385   6.611   3.751  0.5811  0.5049  0.4301
   78MOL   H24218876   5.053   6.877   3.922 -0.6166 -2.4496 -0.5135
   79MOL     C118877   1.353   2.869   4.837 -0.6245  0.4044  0.1639
   79MOL     C218878   1.421   2.745   4.782  0.5913 -0.1411 -0.4310
   79MOL     C318879   1.521   2.682   4.878 -0.3340 -0.9417  0.5689
   79MOL     O418880   1.516   2.573   4.929 -0.4211  0.2209 -0.6019
   79MOL     O518881   1.615   2.773   4.910  0.3185  0.4223 -0.1562
   79MOL     C618882   1.726   2.739   4.996  0.3603  0.1793  0.1412
   79MOL     H718883   1.274   2.832   4.902 -0.2027  0.0034  0.4508
   79MOL     H818884   1.290   2.919   4.763 -1.2146  0.6700  0.8492
   79MOL     H918885   1.470   2.776   4.689  0.3213  0.7602 -0.2686
   79MOL    H1018886   1.747   2.805   5.081  0.6575  2.0599 -1.3438
   79MOL    H1118887   1.812   2.738   4.929  0.8800 -0.8936  0.8108
   79MOL    H1218888   1.715   2.639   5.037  0.2396 -0.5831 -1.7120
   79MOL    H1318889   1.423   2.934   4.889  0.1223  0.9515 -1.4777
   79MOL    C1418890   1.322   2.636   4.738 -0.0750  0.3390  0.5037
   79MOL    C1518891   1.209   2.680   4.636 -0.5205  0.2152  0.1679
   79MOL    C1618892   1.262   2.724   4.497 -0.3077 -1.4789 -0.6972
   79MOL    O1718893   1.259   2.642   4.403 -0.1232 -0.3259 -0.5373
   79MOL    O1818894   1.326   2.843   4.506 -0.0305 -0.0617  0.8930
   79MOL    C1918895   1.400   2.895   4.399 -0.3669  0.1515  0.3393
   79MOL    H2018896   1.388   2.560   4.694 -0.4562  0.3922 -0.1582
   79MOL    H2118897   1.269   2.591   4.822 -0.3477 -2.2969 -1.0249
   79MOL    H2218898   1.166   2.768   4.684  0.9945  0.0363  1.8890
   79MOL    H2318899   1.366   2.993   4.366  0.2303  1.1393  2.6003
   79MOL    H2418900   1.377   2.830   4.314 -0.0704 -0.4901  0.7466
   79MOL    H2518901   1.508   2.891   4.414  0.0492  2.1080 -1.8097
   79MOL    C2618902   1.099   2.569   4.616 -0.0843  0.1275  0.5491
   79MOL    C2718903   1.016   2.550   4.739 -0.0760 -0.3541  0.5078
   79MOL    C2818904   0.923   2.663   4.772  0.8253  0.2628  0.3858
   79MOL    O2918905   0.903   2.762   4.695  0.2539  0.3426  0.1148
   79MOL    O3018906   0.855   2.637   4.886  0.0141 -0.4428  0.3199
   79MOL    C3118907   0.758   2.730   4.934  0.7425 -0.2843 -0.3572
   79MOL    H3218908   1.027   2.596   4.538 -0.7667  2.1721  1.8525
   79MOL    H3318909   1.148   2.475   4.592 -1.3186 -0.9463  2.1261
   79MOL    H3418910   1.090   2.554   4.819  1.9247 -0.2195 -1.3075
   79MOL    H3518911   0.785   2.833   4.911  1.6982 -0.3508  0.4496
   79MOL    H3618912   0.750   2.740   5.042 -1.7170 -1.5946 -0.4063
   79MOL    H3718913   0.660   2.728   4.886  1.0868  1.0470 -1.1546
   79MOL    C3818914   0.952   2.408   4.756 -0.2638  0.1493 -0.0713
   79MOL    C3918915   0.816   2.385   4.685  0.1508  0.4984  0.4514
   79MOL    C4018916   0.829   2.323   4.539 -0.0612  0.8501  0.1425
   79MOL    O4118917   0.939   2.292   4.492 -0.4032 -0.2641  0.0752
   79MOL    O4218918   0.708   2.316   4.477 -0.0292  0.3321  0.4684
   79MOL    C4318919   0.711   2.288   4.336  0.5106  0.6575 -0.2655
   79MOL    H4418920   1.027   2.336   4.725  0.8002  0.3454  1.9939
   79MOL    H4518921   0.940   2.386   4.862  1.5623  0.6557  0.2586
   79MOL    H4618922   0.764   2.479   4.668  0.0954  0.2737 -0.6317
   79MOL    H4718923   0.613   2.261   4.296 -0.1883 -0.1912  1.9417
   79MOL    H4818924   0.773   2.202   4.310 -2.5178 -1.8749  0.4597
   79MOL    H4918925   0.742   2.377   4.282 -2.1704  1.6129 -0.3351
   79MOL    C5018926   0.725   2.290   4.764 -0.0780  0.3720  0.1514
   79MOL    C5118927   0.658   2.362   4.888 -0.5011  0.1820 -0.3613
   79MOL    C5218928   0.537   2.451   4.848  0.6739 -0.2159  0.1425
   79MOL    O5318929   0.495   2.452   4.729  0.3785 -0.2888  0.2625
   79MOL    O5418930   0.474   2.511   4.949 -0.6154 -0.6996 -0.0972
   79MOL    C5518931   0.365   2.596   4.922  0.1965 -0.3749  0.4503
   79MOL    H5618932   0.641   2.253   4.705 -0.8633  0.8828  0.9265
   79MOL    H5718933   0.778   2.198   4.786  0.7010  1.0583  1.1844
   79MOL    H5818934   0.727   2.429   4.940 -0.0863  1.1312 -2.0899
   79MOL    H5918935   0.351   2.647   5.017  0.5301  0.8583 -0.1508
   79MOL    H6018936   0.282   2.541   4.877  1.4036 -0.8625 -1.2190
   79MOL    H6118937   0.401   2.679   4.862  3.0117 -2.5396 -0.9660
   79MOL    C6218938   0.624   2.259   4.995  0.6136  0.6619  0.3717
   79MOL    C6318939   0.589   2.287   5.141  0.0880  0.9794  1.0917
   79MOL    C6418940   0.482   2.192   5.193  0.4385 -0.3719  0.7354
   79MOL    O6518941   0.366   2.234   5.222 -0.8230  0.8019 -0.4888
   79MOL    O6618942   0.525   2.065   5.219  0.0546  0.3201  0.7502
   79MOL    C6718943   0.433   1.977   5.270  0.5546 -0.3233  0.6130
   79MOL    H6818944   0.547   2.192   4.956 -0.5232  2.5503 -0.7408
   79MOL    H6918945   0.711   2.195   5.007  1.1786  1.8376  2.8362
   79MOL    H7018946   0.543   2.386   5.148 -0.4256  1.0125 -2.0758
   79MOL    H7118947   0.336   1.976   5.221 -0.2844  0.6552  2.2003
   79MOL    H7218948   0.422   2.015   5.372 -0.1211  0.7253  0.1516
   79MOL    H7318949   0.463   1.872   5.277 -0.5463 -0.6697  0.2943
   79MOL    C7418950   0.722   2.291   5.229  0.1721 -0.0214 -0.0478
   79MOL    C7518951   0.707   2.360   5.370 -0.1979  0.4577  0.1862
   79MOL    C7618952   0.696   2.513   5.344 -0.0606 -0.5305 -0.3347
   79MOL    O7718953   0.800   2.566   5.314  0.1105 -0.0392 -0.3826
   79MOL    O7818954   0.570   2.560   5.328 -0.4532 -0.0677  0.6144
   79MOL    C7918955   0.559   2.697   5.300 -0.1705  0.0473  0.1277
   79MOL    H8018956   0.766   2.194   5.252  0.4101  0.0505 -0.1935
   79MOL    H8118957   0.792   2.347   5.166 -0.4312 -2.0095 -2.5670
   79MOL    H8218958   0.801   2.342   5.422  0.1653 -2.6282 -1.4480
   79MOL    H8318959   0.527   2.756   5.386 -3.0988 -0.0534 -0.8514
   79MOL    H8418960   0.468   2.708   5.241  0.6061  0.5324 -1.0074
   79MOL    H8518961   0.640   2.748   5.249  1.7898 -1.9601  1.1516
   79MOL    C8618962   0.599   2.300   5.466 -0.8872  0.2470  0.4690
   79MOL    C8718963   0.578   2.360   5.606  0.5071 -0.2990 -0.2755
   79MOL    C8818964   0.466   2.315   5.697  0.5177  0.0866 -0.0584
   79MOL    O8918965   0.447   2.348   5.814  0.1807 -0.2408  0.6250
   79MOL    O9018966   0.386   2.231   5.624  0.6207 -1.0315  0.2295
   79MOL    C9118967   0.254   2.205   5.670 -0.2369  0.0307 -0.0495
   79MOL    H9218968   0.507   2.326   5.413 -0.6189 -1.5137 -0.8770
   79MOL    H9318969   0.597   2.192   5.473  0.3425  0.0131 -2.1595
   79MOL    H9418970   0.556   2.467   5.602  0.4357 -0.2742  0.7316
   79MOL    H9518971   0.188   2.169   5.591  0.2692  0.8258 -0.8308
   79MOL    H9618972   0.213   2.300   5.704 -0.2949  1.1176 -3.0495
   79MOL    H9718973   0.265   2.141   5.758 -1.8770 -0.5332 -0.2328
   79MOL    C9818974   0.714   2.346   5.687 -0.0314  0.3359  0.6083
   79MOL    C9918975   0.785   2.203   5.686  0.1589  0.4934 -0.1233
   79MOL   C10018976   0.927   2.210   5.748 -0.4382  0.7552 -0.3829
   79MOL   O10118977   1.024   2.162   5.696  0.0949  0.6629 -0.3601
   79MOL   O10218978   0.932   2.272   5.867  0.4363 -0.3728 -0.2168
   79MOL   C10318979   1.056   2.284   5.941 -0.7136 -0.4164 -0.1308
   79MOL   H10418980   0.786   2.414   5.641 -0.5542 -1.0048 -2.3480
   79MOL   H10518981   0.708   2.370   5.793 -2.4001  0.4088  0.4793
   79MOL   H10618982   0.799   2.178   5.580  1.4502 -1.9608  0.5877
   79MOL   H10718983   1.119   2.350   5.882 -1.7689  0.2361 -0.5463
   79MOL   H10818984   1.106   2.188   5.958  1.6971  0.7091 -0.7697
   79MOL   H10918985   1.048   2.326   6.042  0.8905  0.4145 -0.3461
   79MOL   C11018986   0.696   2.100   5.756  0.5381  0.3753  0.3127
   79MOL   C11118987   0.749   1.956   5.784  0.4999  0.4505 -0.1613
   79MOL   C11218988   0.800   1.949   5.932 -0.0294 -0.0076 -0.2848
   79MOL   O11318989   0.755   2.025   6.023 -0.9736  0.8710 -0.1985
   79MOL   O11418990   0.893   1.860   5.952  0.4477 -0.1759 -0.8970
   79MOL   C11518991   0.944   1.834   6.088 -0.5563  0.0182  0.1875
   79MOL   H11618992   0.654   2.142   5.846 -0.0976  0.1750  0.1131
   79MOL   H11718993   0.613   2.086   5.686  0.0301  1.3543  0.7146
   79MOL   H11818994   0.835   1.934   5.721 -0.1875  0.0921 -0.9731
   79MOL   H11918995   1.024   1.907   6.101  0.6704 -1.3135  0.2182
   79MOL   H12018996   0.994   1.739   6.101 -1.1267 -0.7078 -2.6264
   79MOL   H12118997   0.864   1.847   6.161 -0.8471  2.7815 -0.5605
   79MOL   C12218998   0.643   1.848   5.746  0.6332 -0.2497 -0.1111
   79MOL   C12318999   0.510   1.859   5.822 -0.0888  0.4414 -0.1256
   79MOL   C12419000   0.398   1.815   5.723  0.3598 -0.7276 -0.0305
   79MOL   O12519001   0.335   1.896   5.657  0.2844 -1.2473 -0.3159
   79MOL   O12619002   0.377   1.685   5.719  0.5759 -0.3908  0.2132
   79MOL   C12719003   0.291   1.633   5.618 -0.8172  0.8513 -0.7144
   79MOL   H12819004   0.616   1.857   5.641  1.2930 -1.1224 -0.3584
   79MOL   H12919005   0.675   1.744   5.755  0.5279 -0.4815 -2.0978
   79MOL   H13019006   0.492   1.964   5.847  1.0971  1.2742 -2.6679
   79MOL   H13119007   0.337   1.660   5.523 -0.1792  0.3607 -0.5550
   79MOL   H13219008   0.190   1.672   5.615 -1.0752  0.7675  3.4825
   79MOL   H13319009   0.288   1.524   5.620  1.5297  0.7556 -0.6484
   79MOL   C13419010   0.504   1.777   5.949 -0.0974 -0.8893  0.4841
   79MOL   C13519011   0.366   1.782   6.021  0.3489 -0.2054  0.1948
   79MOL   C13619012   0.286   1.653   6.031 -0.0062  0.1548 -0.1450
   79MOL   O13719013   0.197   1.635   5.948 -0.4743 -0.1430  0.0911
   79MOL   O13819014   0.330   1.576   6.125 -0.1595  0.5156 -0.5718
   79MOL   C13919015   0.274   1.453   6.158 -0.0684 -0.5500  0.5566
   79MOL   H14019016   0.536   1.674   5.936 -0.1229 -0.7456 -0.8210
   79MOL   H14119017   0.578   1.821   6.015 -0.4681 -0.3846  0.5696
   79MOL   H14219018   0.288   1.848   5.983  1.4964  1.4061  0.5950
   79MOL   H14319019   0.340   1.408   6.231  4.1339 -1.1075 -3.3648
   79MOL   H14419020   0.262   1.383   6.075 -0.5608 -1.6545  1.5473
   79MOL   H14519021   0.173   1.463   6.197  0.6321  1.3054  1.9647
   79MOL   C14619022   0.383   1.833   6.164 -0.3227  0.0809 -0.2989
   79MOL   C14719023   0.417   1.983   6.158  0.2227 -0.7881 -0.4776
   79MOL   C14819024   0.298   2.076   6.123 -0.1257  0.2648 -0.0793
   79MOL   O14919025   0.177   2.035   6.119 -0.4991 -0.0073 -0.1978
   79MOL   O15019026   0.331   2.202   6.093 -0.4802  0.1801  0.0277
   79MOL   C15119027   0.226   2.287   6.033 -0.3508  0.1151  0.1752
   79MOL   H15219028   0.297   1.821   6.229  0.9177 -1.5987  1.0843
   79MOL   H15319029   0.454   1.769   6.216  0.2661  1.1879  0.2714
   79MOL   H15419030   0.489   2.006   6.079  1.0493  0.7051  0.6718
   79MOL   H15519031   0.230   2.271   5.925  1.8964  5.1332 -0.6305
   79MOL   H15619032   0.239   2.394   6.052  1.3395 -0.0449 -0.0557
   79MOL   H15719033   0.125   2.271   6.071  0.4679 -1.7801  1.6051
   79MOL   C15819034   0.487   2.024   6.293  0.6133 -0.4851 -0.8411
   79MOL   C15919035   0.420   2.135   6.383  0.7243  0.3308  0.1365
   79MOL   C16019036   0.287   2.091   6.437 -0.0796  0.3356 -0.8989
   79MOL   O16119037   0.257   1.974   6.454  0.2768 -0.2747 -0.2721
   79MOL   O16219038   0.203   2.199   6.462 -0.2038  0.7108  0.2712
   79MOL   C16319039   0.080   2.171   6.528 -0.2561 -0.3804  0.5145
   79MOL   H16419040   0.509   1.934   6.351  2.0886 -0.2074 -0.9410
   79MOL   H16519041   0.584   2.060   6.259  1.1668 -0.0220  1.1952
   79MOL   H16619042   0.409   2.226   6.325  1.1330 -1.9770 -3.6888
   79MOL   H16719043   0.005   2.135   6.458  2.3235 -1.9854 -1.5352
   79MOL   H16819044   0.061   2.255   6.594  1.1481  0.9570 -0.7144
   79MOL   H16919045   0.087   2.082   6.590 -0.8684 -0.3198  0.6643
   79MOL   C17019046   0.523   2.194   6.489  0.0103  0.1616  0.3088
   79MOL   C17119047   0.470   2.327   6.561  0.0568  0.1055  0.4986
   79MOL   C17219048   0.565   2.378   6.665 -0.2936 -0.1537  0.4541
   79MOL   O17319049   0.689   2.351   6.667 -0.6593 -0.2561  0.0404
   79MOL   O17419050   0.507   2.451   6.762 -0.0363 -0.2831  0.2293
   79MOL   C17519051   0.586   2.544   6.833  0.7835 -0.0593 -0.1197
   79MOL   H17619052   0.547   2.123   6.567 -0.3964 -0.9666 -0.5788
   79MOL   H17719053   0.621   2.200   6.441 -0.7366 -2.1994 -1.6187
   79MOL   H17819054   0.376   2.292   6.603  0.3833 -0.4376  0.7710
   79MOL   H17919055   0.633   2.606   6.757  1.0535 -1.4365 -1.1018
   79MOL   H18019056   0.660   2.495   6.896  1.3887  0.7409 -0.2011
   79MOL   H18119057   0.526   2.609   6.896 -0.8711  0.1442 -1.8668
   79MOL   C18219058   0.448   2.443   6.454 -0.1897 -0.4379 -0.2096
   79MOL   C18319059   0.430   2.596   6.488 -0.1732 -0.1033 -0.9223
   79MOL   C18419060   0.464   2.684   6.364  0.0860  0.6188  0.9080
   79MOL   O18519061   0.386   2.699   6.270  0.5110 -0.3986 -0.2759
   79MOL   O18619062   0.580   2.748   6.372  0.4322  0.0612 -0.5563
   79MOL   C18719063   0.605   2.839   6.265 -0.4104 -0.5620 -0.2542
   79MOL   H18819064   0.526   2.433   6.379  0.7961  0.3594  0.7043
   79MOL   H18919065   0.351   2.422   6.409 -1.2378  0.1226  1.7286
   79MOL   H19019066   0.497   2.624   6.570 -1.0697  1.8022 -0.8159
   79MOL   H19119067   0.706   2.881   6.269 -0.9869  0.7228  1.4828
   79MOL   H19219068   0.530   2.917   6.281 -1.0033 -1.6393  2.2967
   79MOL   H19319069   0.588   2.791   6.168 -0.2284 -0.5982 -0.2679
   79MOL   C19419070   0.289   2.630   6.538  0.6660 -0.1258 -0.3412
   79MOL   C19519071   0.281   2.686   6.681 -0.4287  0.8099  0.1058
   79MOL   C19619072   0.355   2.819   6.694 -0.1440 -0.1227  0.3294
   79MOL   O19719073   0.386   2.878   6.591  0.0310  0.0979 -0.4453
   79MOL   O19819074   0.385   2.867   6.825 -0.1386  0.5186  0.0567
   79MOL   C19919075   0.417   3.002   6.840 -0.1893  1.0063 -1.1171
   79MOL   H20019076   0.237   2.702   6.476  2.2383  0.1412 -1.3833
   79MOL   H20119077   0.222   2.544   6.535 -0.6743  0.9647 -2.8812
   79MOL   H20219078   0.349   2.631   6.745 -0.5470  0.8723  0.2867
   79MOL   H20319079   0.343   3.043   6.908  1.3559 -0.8018  1.7368
   79MOL   H20419080   0.398   3.053   6.745  0.0317  0.8527 -1.2430
   79MOL   H20519081   0.520   3.009   6.876  0.1084  0.6479 -1.8784
   79MOL   C20619082   0.140   2.699   6.742  0.2070 -0.3376 -0.0126
   79MOL   C20719083   0.067   2.567   6.765  0.9744 -0.2041 -0.6778
   79MOL   C20819084   0.150   2.474   6.858  0.0356 -0.6058 -0.3701
   79MOL   O20919085   0.194   2.368   6.812  0.3678  0.2317 -0.7523
   79MOL   O21019086   0.177   2.534   6.971  0.5197  0.1455 -0.8298
   79MOL   C21119087   0.269   2.469   7.061  0.1226 -0.6274 -0.7410
   79MOL   H21219088   0.149   2.751   6.837 -1.9816 -0.2093  0.1496
   79MOL   H21319089   0.077   2.776   6.697  1.2138 -0.1385 -1.1207
   79MOL   H21419090   0.060   2.515   6.669  1.5235  0.2837 -0.9867
   79MOL   H21519091   0.269   2.510   7.162  1.8924 -2.2548 -0.0606
   79MOL   H21619092   0.371   2.468   7.023  0.4433  0.3114  0.0774
   79MOL   H21719093   0.243   2.363   7.065  2.2274 -1.1152  1.2713
   79MOL   C21819094   7.860   2.604   6.814  0.0149  0.4220  0.7434
   79MOL   C21919095   7.772   2.493   6.888 -0.5446 -0.2786 -0.2701
   79MOL   C22019096   7.664   2.560   6.975  0.1468  0.6827  0.0414
   79MOL   O22119097   7.606   2.662   6.943 -0.4699 -0.0254 -0.2130
   79MOL   O22219098   7.635   2.485   7.082 -0.0234 -0.2769 -0.3248
   79MOL   C22319099   7.536   2.523   7.171  0.9451  0.1302 -0.1553
   79MOL   H22419100   7.870   2.681   6.890  2.2341  0.9334 -0.0268
   79MOL   H22519101   7.804   2.636   6.726 -0.7799 -2.0570  0.3012
   79MOL   H22619102   7.844   2.446   6.955  0.0687 -1.1801 -1.5183
   79MOL   H22719103   7.440   2.492   7.128  0.9793 -1.8088  1.0678
   79MOL   H22819104   7.534   2.631   7.185  3.4899  0.0513  1.0520
   79MOL   H22919105   7.541   2.479   7.270  2.1295 -0.4701 -0.4709
   79MOL   C23019106   7.713   2.387   6.787  0.8723 -0.3672  0.4921
   79MOL   C23119107   7.639   2.265   6.850 -0.0320 -0.2996 -0.4228
   79MOL   C23219108   7.486   2.273   6.884  0.4036  0.4926  0.7690
   79MOL   O23319109   7.433   2.190   6.956  0.9534 -0.3126  0.5197
   79MOL   O23419110   7.434   2.388   6.839 -0.4333  0.9073 -0.5452
   79MOL   C23519111   7.297   2.412   6.878  0.6956  0.2155 -0.0444
   79MOL   H23619112   7.663   2.428   6.699 -1.6190 -0.6502  1.7311
   79MOL   H23719113   7.800   2.341   6.739  1.1082 -0.0218  0.5882
   79MOL   H23819114   7.698   2.227   6.933 -0.7358  0.4890  0.4437
   79MOL   H23919115   7.282   2.388   6.983  1.1691 -2.2821 -0.5022
   79MOL   H24019116   7.230   2.343   6.826 -1.1090  0.7932  1.4645
   79MOL   H24119117   7.266   2.514   6.855 -2.4666 -0.4203  1.0909
   79MOL   H24219118   7.639   2.181   6.780 -0.3898 -0.4611 -0.2315
   80MOL     C119119   5.693   6.297   3.707 -0.1519  0.1198  0.8873
   80MOL     C219120   5.551   6.264   3.653  0.2704  0.2949  0.1761
   80MOL     C319121   5.502   6.360   3.541 -0.8746 -0.1332 -0.5174
   80MOL     O419122   5.581   6.415   3.463  0.1793  0.4071 -0.8643
   80MOL     O519123   5.369   6.362   3.522  0.2594  0.0473 -0.6510
   80MOL     C619124   5.305   6.451   3.435  0.2427  0.5433  0.1984
   80MOL     H719125   5.695   6.401   3.737 -1.5088  0.8183 -1.3009
   80MOL     H819126   5.761   6.269   3.627 -1.7986  0.6812 -0.7521
   80MOL     H919127   5.485   6.267   3.740 -1.6737 -1.5132 -1.1896
   80MOL    H1019128   5.262   6.528   3.499 -0.9100 -0.6712  0.9361
   80MOL    H1119129   5.226   6.387   3.395  0.0522 -0.4102  2.0102
   80MOL    H1219130   5.362   6.499   3.356 -0.4572  1.3643  0.1866
   80MOL    H1319131   5.723   6.230   3.787 -2.1957  0.2069  1.7645
   80MOL    C1419132   5.551   6.113   3.606 -0.2541  0.1807  0.1412
   80MOL    C1519133   5.452   6.017   3.682  0.4516 -0.1430 -1.3834
   80MOL    C1619134   5.316   6.074   3.708 -0.9899 -0.3065  0.1538
   80MOL    O1719135   5.289   6.118   3.824 -0.3534 -0.2045  0.2360
   80MOL    O1819136   5.231   6.081   3.605  0.5698 -0.6397  0.6307
   80MOL    C1919137   5.104   6.147   3.618 -0.0037 -0.1003 -0.1694
   80MOL    H2019138   5.537   6.104   3.499  0.0787 -2.7866  0.3247
   80MOL    H2119139   5.648   6.065   3.615  0.7820  1.9342 -1.3038
   80MOL    H2219140   5.497   6.008   3.781 -2.0918  1.5101 -0.0250
   80MOL    H2319141   5.113   6.256   3.619 -1.7123  0.0471  0.8165
   80MOL    H2419142   5.047   6.108   3.702  0.0468  1.0241  0.4034
   80MOL    H2519143   5.054   6.124   3.524  0.7973  0.4458 -0.7377
   80MOL    C2619144   5.442   5.870   3.611 -0.3367 -0.3680 -0.5223
   80MOL    C2719145   5.377   5.756   3.695  0.5297 -0.2297  0.5735
   80MOL    C2819146   5.377   5.621   3.621  0.5247 -0.2475 -0.1286
   80MOL    O2919147   5.268   5.563   3.600  0.2883 -0.3231 -0.3138
   80MOL    O3019148   5.495   5.584   3.570  0.2219  0.5512 -0.1031
   80MOL    C3119149   5.504   5.460   3.505  0.6332  0.4876 -0.0182
   80MOL    H3219150   5.398   5.876   3.512 -0.8599  0.1463 -0.2634
   80MOL    H3319151   5.546   5.844   3.593 -0.2894  0.5364 -1.6328
   80MOL    H3419152   5.272   5.787   3.691  0.1452 -1.6833 -1.5780
   80MOL    H3519153   5.451   5.465   3.410  1.0998 -0.2123 -0.3196
   80MOL    H3619154   5.457   5.382   3.564  1.1502 -0.2504 -0.5663
   80MOL    H3719155   5.604   5.426   3.476 -0.8196 -1.3721 -3.1829
   80MOL    C3819156   5.433   5.750   3.843  0.5445 -0.0281  0.6400
   80MOL    C3919157   5.373   5.626   3.912 -0.2588 -0.1994 -0.6271
   80MOL    C4019158   5.468   5.575   4.016  0.5341  0.3071  0.2825
   80MOL    O4119159   5.520   5.459   4.005 -0.1965 -0.7607 -0.0962
   80MOL    O4219160   5.493   5.663   4.119  0.2182 -0.0762  0.1626
   80MOL    C4319161   5.614   5.648   4.192 -0.0216 -0.7570  0.9570
   80MOL    H4419162   5.541   5.751   3.840  0.5050  1.4850 -1.4113
   80MOL    H4519163   5.412   5.840   3.900  0.8198  0.2950  0.2292
   80MOL    H4619164   5.363   5.542   3.842  1.0049  0.1996 -1.3093
   80MOL    H4719165   5.591   5.599   4.287  0.2849 -0.2970  1.2701
   80MOL    H4819166   5.639   5.750   4.221 -1.3267 -0.2618  0.3278
   80MOL    H4919167   5.704   5.612   4.141  1.8332  3.1401  1.3443
   80MOL    C5019168   5.230   5.645   3.972  0.0351 -0.2285 -0.2682
   80MOL    C5119169   5.156   5.524   4.017 -0.1041 -0.2573 -0.3541
   80MOL    C5219170   5.182   5.494   4.168 -0.6623 -0.6613  0.6956
   80MOL    O5319171   5.184   5.378   4.209 -0.2414 -0.0693 -0.0052
   80MOL    O5419172   5.190   5.594   4.246 -1.0106 -0.3445  0.3274
   80MOL    C5519173   5.194   5.565   4.387  0.2091  0.5344 -0.1570
   80MOL    H5619174   5.233   5.719   4.052 -2.8242 -0.4399  0.0728
   80MOL    H5719175   5.174   5.693   3.891  0.0130 -0.3788 -0.3430
   80MOL    H5819176   5.204   5.438   3.971 -1.8703 -0.0123 -2.7440
   80MOL    H5919177   5.091   5.543   4.417  1.3939 -0.9680  3.0301
   80MOL    H6019178   5.218   5.658   4.439 -0.5303  1.3016 -1.1562
   80MOL    H6119179   5.260   5.485   4.421  0.0256  0.5387  0.2092
   80MOL    C6219180   5.004   5.534   3.991 -0.5500 -0.3683 -0.0808
   80MOL    C6319181   4.971   5.504   3.841 -0.5470 -0.5331  0.0876
   80MOL    C6419182   4.957   5.355   3.813 -0.0820 -0.6274 -0.6802
   80MOL    O6519183   4.957   5.268   3.899 -0.6000 -0.0564 -0.0258
   80MOL    O6619184   4.944   5.325   3.684  0.4105 -0.2229 -0.4551
   80MOL    C6719185   4.912   5.196   3.643  0.8586 -0.1509 -0.7599
   80MOL    H6819186   4.953   5.467   4.060  1.0042 -2.8727 -1.2570
   80MOL    H6919187   4.973   5.625   4.042  1.0318  0.0342  0.1847
   80MOL    H7019188   5.047   5.547   3.776 -0.8288 -0.1791 -0.0090
   80MOL    H7119189   4.830   5.156   3.703 -0.3980  0.3316 -2.1358
   80MOL    H7219190   5.003   5.136   3.650  1.3171  0.7696  1.5056
   80MOL    H7319191   4.885   5.199   3.537  2.4389  1.5760 -1.1364
   80MOL    C7419192   4.841   5.582   3.806  0.8865 -0.4436  0.2875
   80MOL    C7519193   4.844   5.741   3.813  0.2452  0.3477  0.1359
   80MOL    C7619194   4.947   5.801   3.720  0.1243 -0.3726 -0.0024
   80MOL    O7719195   5.036   5.866   3.773 -0.9204  0.3031  0.2618
   80MOL    O7819196   4.925   5.766   3.593  0.4903 -0.1361 -0.2831
   80MOL    C7919197   5.024   5.804   3.494 -0.6442 -0.1189  0.0701
   80MOL    H8019198   4.823   5.551   3.703  0.7145 -0.8103  0.4281
   80MOL    H8119199   4.758   5.550   3.869 -0.3412 -0.5443 -1.3424
   80MOL    H8219200   4.864   5.783   3.912 -0.0262  0.3251  0.2012
   80MOL    H8319201   5.032   5.911   3.472  1.6577 -0.4839 -1.0934
   80MOL    H8419202   4.987   5.748   3.409  1.2181 -0.7940 -0.3172
   80MOL    H8519203   5.123   5.767   3.522 -0.1464 -0.1465 -1.6922
   80MOL    C8619204   4.703   5.792   3.781  0.1570 -0.6742  0.4619
   80MOL    C8719205   4.671   5.944   3.769 -0.1603  0.4357  0.2736
   80MOL    C8819206   4.527   5.967   3.707  0.3789  0.2211 -0.7355
   80MOL    O8919207   4.505   6.057   3.631  0.2939 -0.3785  0.2279
   80MOL    O9019208   4.425   5.889   3.762  0.3912 -0.1119 -0.4199
   80MOL    C9119209   4.297   5.919   3.733 -0.9721 -0.3720 -0.1766
   80MOL    H9219210   4.651   5.734   3.704 -0.7929  0.0231  0.5732
   80MOL    H9319211   4.650   5.758   3.870 -1.6461 -1.1370 -0.7558
   80MOL    H9419212   4.745   5.986   3.700  0.4746  1.8048  1.7433
   80MOL    H9519213   4.287   5.922   3.625 -0.8341  1.0812 -0.1574
   80MOL    H9619214   4.259   6.011   3.778 -1.2191 -0.5911  0.0651
   80MOL    H9719215   4.233   5.839   3.771 -0.1798 -1.0593 -0.2842
   80MOL    C9819216   4.682   6.020   3.901  0.7716  0.7975  0.3846
   80MOL    C9919217   4.694   6.176   3.905  0.0536  0.2464 -0.3778
   80MOL   C10019218   4.685   6.225   4.052 -0.3413 -0.1109 -0.3780
   80MOL   O10119219   4.785   6.218   4.127 -0.2706 -0.0497 -0.0696
   80MOL   O10219220   4.574   6.292   4.085 -0.1693 -0.3176  0.2351
   80MOL   C10319221   4.542   6.328   4.217  0.4164 -0.4476  0.7802
   80MOL   H10419222   4.603   5.987   3.969 -0.0299  0.3206 -0.7547
   80MOL   H10519223   4.774   5.994   3.953  0.0360  0.3506  1.4928
   80MOL   H10619224   4.613   6.216   3.845 -0.4184 -1.8944 -1.2115
   80MOL   H10719225   4.559   6.435   4.223  0.5177 -0.3929 -0.3722
   80MOL   H10819226   4.586   6.271   4.298 -0.8764 -1.5193  0.7596
   80MOL   H10919227   4.434   6.313   4.223  0.1176  1.7758  1.2448
   80MOL   C11019228   4.822   6.232   3.832  0.0295  0.5110  0.4352
   80MOL   C11119229   4.830   6.385   3.826 -0.0024  0.3330 -0.0748
   80MOL   C11219230   4.974   6.436   3.810 -0.4205 -0.2364 -0.6558
   80MOL   O11319231   5.007   6.525   3.730 -0.3130 -0.2978 -0.0726
   80MOL   O11419232   5.060   6.381   3.898  0.4685  0.0347 -0.0681
   80MOL   C11519233   5.194   6.427   3.890  0.2334 -0.5751 -0.8055
   80MOL   H11619234   4.911   6.190   3.878  0.2623  1.1320  0.5524
   80MOL   H11719235   4.833   6.198   3.729  1.5916 -1.2419  1.1366
   80MOL   H11819236   4.806   6.419   3.927  0.0833 -0.6869  0.2972
   80MOL   H11919237   5.244   6.396   3.982 -1.9479  1.6552  1.1877
   80MOL   H12019238   5.196   6.535   3.895 -1.3729 -0.5811 -0.0610
   80MOL   H12119239   5.231   6.383   3.797 -2.6542 -3.0030 -0.8665
   80MOL   C12219240   4.737   6.444   3.721 -0.0136 -0.3280  0.1870
   80MOL   C12319241   4.613   6.502   3.784 -0.3793  0.2692  0.2402
   80MOL   C12419242   4.628   6.634   3.862  0.6198  0.1729 -0.0247
   80MOL   O12519243   4.603   6.631   3.982  0.0343  0.4739 -0.0870
   80MOL   O12619244   4.655   6.742   3.788 -0.7219 -0.0322 -0.4215
   80MOL   C12719245   4.697   6.865   3.854  0.4992 -0.2098 -0.3076
   80MOL   H12819246   4.781   6.525   3.662  2.8586 -0.4977  1.9799
   80MOL   H12919247   4.709   6.365   3.652 -0.7535 -1.2276  1.4810
   80MOL   H13019248   4.574   6.426   3.852 -1.3021 -0.8441 -1.4960
   80MOL   H13119249   4.686   6.949   3.785  1.5751  1.3937  1.4406
   80MOL   H13219250   4.804   6.852   3.869  0.6566 -0.0001 -1.2467
   80MOL   H13319251   4.663   6.878   3.957  1.0994 -2.3279  0.1803
   80MOL   C13419252   4.495   6.519   3.687 -0.6027 -0.4905 -0.3543
   80MOL   C13519253   4.407   6.392   3.665  0.3628  0.3560  0.2390
   80MOL   C13619254   4.352   6.337   3.801 -0.5156  0.1987 -0.2161
   80MOL   O13719255   4.371   6.221   3.839 -0.0935 -0.3877  0.1854
   80MOL   O13819256   4.286   6.425   3.868 -0.1511  0.6468 -0.4788
   80MOL   C13919257   4.228   6.384   3.993  0.1566 -0.1779  0.1999
   80MOL   H14019258   4.429   6.601   3.714  1.9313  1.7677 -0.7313
   80MOL   H14119259   4.530   6.560   3.592  0.0454  0.8242  0.4336
   80MOL   H14219260   4.467   6.317   3.614 -1.0464  0.0141 -0.9424
   80MOL   H14319261   4.268   6.294   4.039  0.3333  0.0549  0.5103
   80MOL   H14419262   4.122   6.361   3.977  0.0034  0.2305  0.6179
   80MOL   H14519263   4.246   6.464   4.066  1.0129  0.2601 -0.4906
   80MOL   C14619264   4.290   6.430   3.567 -0.2771  0.0929  0.3256
   80MOL   C14719265   4.198   6.313   3.528 -0.3101  0.2064  0.0820
   80MOL   C14819266   4.093   6.283   3.640  0.0499  0.2074 -0.4203
   80MOL   O14919267   4.037   6.370   3.709 -0.6893 -0.2150  0.4001
   80MOL   O15019268   4.073   6.149   3.654  0.1648 -0.5026 -0.2424
   80MOL   C15119269   3.985   6.106   3.755 -0.3798  0.2386 -0.7420
   80MOL   H15219270   4.232   6.514   3.604 -1.6535 -0.3044 -0.8811
   80MOL   H15319271   4.322   6.463   3.468 -0.1649 -1.9082 -0.3311
   80MOL   H15419272   4.270   6.231   3.524 -2.8099 -2.1390  1.5521
   80MOL   H15519273   3.943   6.188   3.814 -1.4843 -2.7120  2.7728
   80MOL   H15619274   4.035   6.044   3.830 -2.8538  0.4275  1.1459
   80MOL   H15719275   3.903   6.050   3.709 -1.4187  1.7182 -0.7463
   80MOL   C15819276   4.128   6.331   3.392  0.1008 -0.2520  0.0967
   80MOL   C15919277   4.049   6.467   3.380  0.2857 -0.0779 -0.8867
   80MOL   C16019278   4.126   6.571   3.301 -0.1674 -0.2740  0.1032
   80MOL   O16119279   4.171   6.672   3.351  0.0618  0.6128  0.1098
   80MOL   O16219280   4.149   6.530   3.174  0.5600  0.5016  0.4484
   80MOL   C16319281   4.236   6.611   3.104 -0.5718  0.1264 -0.0879
   80MOL   H16419282   4.201   6.324   3.311  0.1625 -0.0832  0.1375
   80MOL   H16519283   4.054   6.254   3.369  1.6830 -1.7596 -0.0340
   80MOL   H16619284   4.011   6.512   3.471 -0.3554 -0.9505 -0.7124
   80MOL   H16719285   4.237   6.719   3.115 -1.3495  0.1057  0.2456
   80MOL   H16819286   4.213   6.591   2.999 -0.7952  0.3937 -0.0909
   80MOL   H16919287   4.336   6.571   3.118 -0.6817  0.0681  0.5385
   80MOL   C17019288   3.915   6.443   3.296  0.2737 -0.3538 -0.1287
   80MOL   C17119289   3.817   6.562   3.291 -0.0261  0.1112  0.4483
   80MOL   C17219290   3.709   6.540   3.185 -0.5845  0.0299  0.0779
   80MOL   O17319291   3.597   6.499   3.214  0.1442 -0.0582  0.2618
   80MOL   O17419292   3.748   6.578   3.067 -0.4658 -0.1718  0.1252
   80MOL   C17519293   3.656   6.576   2.960  0.3739  0.5455 -0.0731
   80MOL   H17619294   3.939   6.393   3.202  2.1456 -2.8356  1.6388
   80MOL   H17719295   3.864   6.360   3.345 -0.1829 -0.0813 -0.1422
   80MOL   H17819296   3.880   6.650   3.277 -0.3771  0.2766 -0.1344
   80MOL   H17919297   3.620   6.473   2.961 -0.7690  0.9273 -1.0857
   80MOL   H18019298   3.716   6.600   2.872 -1.5362  0.7038 -1.3512
   80MOL   H18119299   3.586   6.659   2.975 -1.3790 -1.0956  0.9512
   80MOL   C18219300   3.752   6.584   3.439 -0.0876  0.4247  0.1410
   80MOL   C18319301   3.701   6.726   3.483  0.4206 -0.5105 -0.3152
   80MOL   C18419302   3.826   6.817   3.516  0.0473 -0.1547 -0.2357
   80MOL   O18519303   3.825   6.941   3.495 -0.8585  0.3203 -0.2038
   80MOL   O18619304   3.930   6.745   3.565 -0.5714  0.5391 -0.0050
   80MOL   C18719305   4.041   6.819   3.610 -0.3369  0.0582 -0.6427
   80MOL   H18819306   3.671   6.514   3.457  0.4768 -0.0947  0.6565
   80MOL   H18919307   3.819   6.548   3.517 -1.6287 -0.5937  1.0230
   80MOL   H19019308   3.649   6.728   3.578 -1.1278  2.6123 -1.1761
   80MOL   H19119309   4.001   6.901   3.669  0.8349  0.8503 -0.9195
   80MOL   H19219310   4.085   6.865   3.521  2.4427 -0.0055  0.6193
   80MOL   H19319311   4.115   6.755   3.660  0.8065  1.8068 -0.0427
   80MOL   C19419312   3.595   6.787   3.384  0.1833  0.3596  0.5836
   80MOL   C19519313   3.483   6.870   3.454  0.2810 -0.6141 -0.2889
   80MOL   C19619314   3.430   6.978   3.360 -0.5290  0.4665 -0.8022
   80MOL   O19719315   3.422   7.095   3.392 -0.6590 -0.1836 -0.0046
   80MOL   O19819316   3.389   6.926   3.240  0.4104 -0.2573  1.1317
   80MOL   C19919317   3.339   7.017   3.143  0.3813 -0.2202 -0.3592
   80MOL   H20019318   3.654   6.854   3.321  0.9552 -0.6736  0.1941
   80MOL   H20119319   3.548   6.711   3.321 -0.3615  0.5559  0.7491
   80MOL   H20219320   3.532   6.929   3.531  0.8366  0.3396 -1.3499
   80MOL   H20319321   3.262   7.082   3.185  1.3576  0.2715  0.6913
   80MOL   H20419322   3.297   6.956   3.062  0.8529 -1.7822  0.5401
   80MOL   H20519323   3.414   7.076   3.092 -1.3871  1.5168 -1.0135
   80MOL   C20619324   3.360   6.782   3.495  0.1143 -0.6302  0.1785
   80MOL   C20719325   3.320   6.812   3.641 -0.3579 -0.5083 -0.3990
   80MOL   C20819326   3.227   6.929   3.641 -0.4949  0.2078 -0.8993
   80MOL   O20919327   3.270   7.040   3.664 -0.4235 -0.0313 -0.0462
   80MOL   O21019328   3.099   6.899   3.608  0.3431 -0.1936 -0.5060
   80MOL   C21119329   3.006   7.001   3.611 -0.2284  0.2998 -0.4833
   80MOL   H21219330   3.271   6.796   3.434  1.0393  1.8009 -0.6518
   80MOL   H21319331   3.396   6.681   3.476  0.8341 -0.5180  0.8933
   80MOL   H21419332   3.407   6.831   3.704  0.1335 -0.5424 -1.0609
   80MOL   H21519333   3.017   7.065   3.524 -0.1386  0.7497 -0.1458
   80MOL   H21619334   2.997   7.057   3.705 -1.3584 -0.2871 -0.2271
   80MOL   H21719335   2.908   6.952   3.611 -0.5075  0.7844  1.5684
   80MOL   C21819336   3.252   6.691   3.717  0.7344 -0.0604  0.3608
   80MOL   C21919337   3.365   6.592   3.753  0.2819  0.0796  0.0884
   80MOL   C22019338   3.436   6.639   3.878 -0.0693 -0.1781  0.5268
   80MOL   O22119339   3.531   6.719   3.868  0.3824 -0.0970 -0.2311
   80MOL   O22219340   3.380   6.587   3.996  0.0273  0.3222  0.1908
   80MOL   C22319341   3.463   6.605   4.108  0.7210  0.1312 -0.0011
   80MOL   H22419342   3.194   6.721   3.804  0.5026  1.9086 -0.4290
   80MOL   H22519343   3.189   6.644   3.642  1.8358  1.4985 -1.6280
   80MOL   H22619344   3.443   6.600   3.678  0.2071  0.6484  0.0685
   80MOL   H22719345   3.565   6.591   4.074  0.2342 -1.0582 -1.0245
   80MOL   H22819346   3.466   6.524   4.181  0.0816  1.1824  1.2124
   80MOL   H22919347   3.441   6.704   4.148  2.1823  0.7491 -0.6976
   80MOL   C23019348   3.327   6.442   3.754  0.1944  0.2889 -0.2904
   80MOL   C23119349   3.429   6.341   3.792 -0.3441  0.6033 -0.4414
   80MOL   C23219350   3.544   6.328   3.681  0.0295  1.3138  0.1512
   80MOL   O23319351   3.649   6.392   3.680  0.3315 -0.4462 -0.2368
   80MOL   O23419352   3.511   6.241   3.584  0.1699 -0.4513  0.7000
   80MOL   C23519353   3.602   6.218   3.473 -0.4404  0.2240 -0.4219
   80MOL   H23619354   3.241   6.429   3.820 -1.6126  0.7644 -2.5044
   80MOL   H23719355   3.288   6.419   3.655 -2.7152  0.2383  0.8261
   80MOL   H23819356   3.391   6.242   3.817 -0.5596  0.7290 -0.2723
   80MOL   H23919357   3.642   6.118   3.490  2.0851  1.4922  1.4569
   80MOL   H24019358   3.689   6.284   3.475  0.2698 -0.7202  0.6359
   80MOL   H24119359   3.565   6.220   3.371  1.7419 -1.4912 -1.3012
   80MOL   H24219360   3.479   6.374   3.883 -2.0071 -0.1499  0.7702
   81MOL     C119361   4.171   7.719   5.349  0.0966 -0.2341 -0.2481
   81MOL     C219362   4.080   7.722   5.476 -0.1177 -0.0261 -0.4863
   81MOL     C319363   4.169   7.750   5.598  0.0155 -0.1530 -0.3595
   81MOL     O419364   4.191   7.862   5.643 -0.3080 -0.3762 -0.6166
   81MOL     O519365   4.219   7.633   5.660  0.3969  1.0845  0.3023
   81MOL     C619366   4.286   7.644   5.785  0.3688  1.6417  0.5609
   81MOL     H719367   4.266   7.672   5.375  0.2725  0.6102  0.6613
   81MOL     H819368   4.193   7.820   5.313  0.8682  0.2262  1.4603
   81MOL     H919369   4.029   7.627   5.491 -0.6012  0.4661  1.1257
   81MOL    H1019370   4.229   7.707   5.854 -2.9222  0.8169 -1.2958
   81MOL    H1119371   4.381   7.693   5.762  0.5718  1.0683  0.1549
   81MOL    H1219372   4.292   7.548   5.835 -1.8516  0.6290 -1.0006
   81MOL    H1319373   4.125   7.659   5.270 -0.3056  0.6611 -0.7093
   81MOL    C1419374   3.962   7.830   5.468 -0.0933 -0.5290 -0.0846
   81MOL    C1519375   3.875   7.853   5.590 -0.4677  0.4995 -0.4328
   81MOL    C1619376   3.831   0.066   5.601 -0.4520  0.1770  0.1520
   81MOL    O1719377   3.726   0.109   5.553  0.6626 -0.1836  0.2983
   81MOL    O1819378   3.924   0.143   5.657 -0.0532 -0.0636  0.1442
   81MOL    C1919379   3.909   0.280   5.679  0.3162 -0.4537 -0.0140
   81MOL    H2019380   4.006   7.926   5.445  0.1551 -0.7160 -0.3931
   81MOL    H2119381   3.902   7.816   5.379 -0.8438  0.9542  0.1897
   81MOL    H2219382   3.936   7.847   5.681  2.1846  2.2078 -2.0125
   81MOL    H2319383   3.966   0.319   5.764  0.7017 -0.0343 -0.4686
   81MOL    H2419384   3.809   0.309   5.711 -1.0715 -1.3474 -3.4022
   81MOL    H2519385   3.927   0.343   5.592 -0.1254  0.1447  0.3276
   81MOL    C2619386   3.748   7.761   5.587  0.7044 -0.4532 -0.2581
   81MOL    C2719387   3.767   7.610   5.614 -0.2076  0.2293  0.2549
   81MOL    C2819388   3.800   7.585   5.762  0.3561  0.6376 -0.4612
   81MOL    O2919389   3.912   7.537   5.785 -0.1446 -0.6379  0.1173
   81MOL    O3019390   3.707   7.615   5.849 -0.5380 -0.0674  0.1697
   81MOL    C3119391   3.736   7.600   5.989 -0.2734 -0.2985  0.0393
   81MOL    H3219392   3.673   7.794   5.660  0.3847  1.5036 -1.4184
   81MOL    H3319393   3.696   7.784   5.494 -0.2979  3.3291  1.1163
   81MOL    H3419394   3.852   7.577   5.554  0.2220 -0.9644  1.4909
   81MOL    H3519395   3.642   7.591   6.043 -0.6644  2.1169 -0.1769
   81MOL    H3619396   3.794   7.678   6.038  0.0401 -1.1402  1.0430
   81MOL    H3719397   3.789   7.507   6.009  0.5319 -0.1586 -1.4165
   81MOL    C3819398   3.655   7.518   5.563  0.1138 -0.2296 -0.4602
   81MOL    C3919399   3.649   7.502   5.410 -0.4178 -0.3613  0.0829
   81MOL    C4019400   3.778   7.450   5.349 -0.1191  0.5760 -0.2159
   81MOL    O4119401   3.857   7.513   5.275 -0.0155  0.0096 -0.3008
   81MOL    O4219402   3.800   7.327   5.382 -0.0141 -0.2697  0.0543
   81MOL    C4319403   3.922   7.261   5.342 -0.2457 -0.2497  0.6212
   81MOL    H4419404   3.685   7.423   5.608 -1.2571  0.5130  2.1085
   81MOL    H4519405   3.559   7.546   5.605 -0.8054 -1.0017 -1.9916
   81MOL    H4619406   3.624   7.596   5.361 -2.7392  0.5947  2.9656
   81MOL    H4719407   3.934   7.247   5.234 -0.9443  1.9080  0.2369
   81MOL    H4819408   3.939   7.172   5.402 -0.8737 -1.0849 -0.4158
   81MOL    H4919409   3.997   7.338   5.362  1.1161 -1.9250  2.0683
   81MOL    C5019410   3.524   7.407   5.366  0.4579 -0.5178 -0.0597
   81MOL    C5119411   3.388   7.467   5.323 -0.1690 -0.2294  0.3356
   81MOL    C5219412   3.328   7.564   5.422 -0.4859  0.4962 -0.3666
   81MOL    O5319413   3.232   7.540   5.494  0.4018 -0.2636 -0.1856
   81MOL    O5419414   3.400   7.676   5.431 -0.3966 -0.6724 -0.2167
   81MOL    C5519415   3.365   7.792   5.505  0.4005 -0.7364  0.4139
   81MOL    H5619416   3.560   7.345   5.284  2.5422  1.4802 -0.7113
   81MOL    H5719417   3.505   7.337   5.447  2.3388 -1.5004 -0.4258
   81MOL    H5819418   3.319   7.384   5.312 -0.2610 -0.1480  0.2959
   81MOL    H5919419   3.407   7.879   5.455 -1.0692  1.3410  2.7100
   81MOL    H6019420   3.404   7.786   5.607  0.6107 -2.0245  0.2676
   81MOL    H6119421   3.258   7.811   5.506  0.2945 -1.3344  0.7191
   81MOL    C6219422   3.378   7.521   5.173 -0.4966  0.4605  0.4916
   81MOL    C6319423   3.358   7.411   5.063  0.2848  0.3967 -0.5105
   81MOL    C6419424   3.205   7.368   5.057 -0.4873  0.6077  0.5837
   81MOL    O6519425   3.120   7.408   5.138 -0.1253 -0.2023  0.6915
   81MOL    O6619426   3.179   7.264   4.962 -0.1216 -0.4457 -0.1020
   81MOL    C6719427   3.050   7.213   4.944  0.0609 -0.1956 -0.1559
   81MOL    H6819428   3.296   7.591   5.158 -0.6685 -0.1345 -1.5294
   81MOL    H6919429   3.473   7.566   5.145 -0.5023  0.7352  0.9121
   81MOL    H7019430   3.407   7.324   5.106 -3.0099 -0.5252  1.5515
   81MOL    H7119431   3.037   7.109   4.973  0.2728  0.0609  0.8949
   81MOL    H7219432   3.038   7.225   4.836  1.4486 -0.5748 -0.3589
   81MOL    H7319433   2.969   7.274   4.986 -1.6373 -3.6305  1.7387
   81MOL    C7419434   3.419   7.438   4.928  0.0433 -0.4972 -0.5202
   81MOL    C7519435   3.333   7.515   4.819  0.1441 -0.7105 -0.0264
   81MOL    C7619436   3.302   7.660   4.864  0.1185 -0.3087  0.0612
   81MOL    O7719437   3.201   7.719   4.839  0.2163 -0.3363  0.1832
   81MOL    O7819438   3.409   7.716   4.922 -0.3278 -0.6996 -0.6428
   81MOL    C7919439   3.392   7.848   4.963  0.6517  0.2235 -0.4577
   81MOL    H8019440   3.526   7.460   4.933 -0.3552  1.6315 -1.0544
   81MOL    H8119441   3.424   7.338   4.883  1.6018 -1.8118  2.4335
   81MOL    H8219442   3.240   7.459   4.817 -0.0423 -0.4536  0.9043
   81MOL    H8319443   3.485   7.868   5.017  0.4346  0.9497 -0.3540
   81MOL    H8419444   3.299   7.860   5.018  0.4662 -1.7184 -0.2904
   81MOL    H8519445   3.394   7.907   4.871 -2.6464  0.4987 -0.3948
   81MOL    C8619446   3.390   7.522   4.676 -0.7971  0.2060 -0.2265
   81MOL    C8719447   3.367   7.398   4.588  0.2468  0.1389 -0.1596
   81MOL    C8819448   3.224   7.359   4.549 -0.3374  0.4609  0.2901
   81MOL    O8919449   3.131   7.444   4.546 -0.6248  0.2188 -0.4904
   81MOL    O9019450   3.217   7.228   4.521  0.5073  0.0977 -0.0382
   81MOL    C9119451   3.097   7.178   4.461 -0.0748  0.2093 -0.2505
   81MOL    H9219452   3.355   7.610   4.622  0.0166  1.6932  1.5987
   81MOL    H9319453   3.498   7.535   4.680 -0.2604 -2.6659 -3.2554
   81MOL    H9419454   3.405   7.321   4.655 -0.4096  0.0125  0.0783
   81MOL    H9519455   3.087   7.188   4.353  2.0264  0.6048 -0.4298
   81MOL    H9619456   3.005   7.221   4.499  1.2231  3.8674 -1.0338
   81MOL    H9719457   3.089   7.076   4.497 -0.0723  0.0310 -0.7443
   81MOL    C9819458   3.462   7.399   4.465  0.1159 -0.6010  0.4467
   81MOL    C9919459   3.504   7.258   4.415  0.1293 -0.4838 -0.2693
   81MOL   C10019460   3.554   7.276   4.269 -1.2028 -0.1095  0.3190
   81MOL   O10119461   3.488   7.222   4.182 -0.8016  0.3396 -0.1332
   81MOL   O10219462   3.665   7.356   4.253  0.0402 -0.2848 -0.2166
   81MOL   C10319463   3.689   7.395   4.119 -0.1894  0.3281  0.1734
   81MOL   H10419464   3.423   7.462   4.384 -0.9392  0.2580  1.5830
   81MOL   H10519465   3.557   7.449   4.485 -0.1553  0.2943 -0.4211
   81MOL   H10619466   3.420   7.192   4.393 -1.5708  2.3518 -2.6635
   81MOL   H10719467   3.776   7.460   4.118  0.8969 -1.1023 -0.9120
   81MOL   H10819468   3.602   7.449   4.082 -0.7569  0.3136  1.4743
   81MOL   H10919469   3.703   7.308   4.054  1.7907 -0.1004  1.1407
   81MOL   C11019470   3.615   7.189   4.505  0.5415  0.6711 -0.3323
   81MOL   C11119471   3.609   7.033   4.538 -0.2026 -0.0000 -0.0180
   81MOL   C11219472   3.487   6.994   4.626 -0.1727 -0.3924 -0.3563
   81MOL   O11319473   3.390   6.927   4.582  0.4432  0.0741  0.3777
   81MOL   O11419474   3.498   7.040   4.755  0.0706 -0.0649  0.1123
   81MOL   C11519475   3.373   7.036   4.823  0.3746 -0.5499  0.0681
   81MOL   H11619476   3.718   7.215   4.478  0.2730  2.7929  0.5894
   81MOL   H11719477   3.607   7.238   4.602  1.4992 -0.5657  0.3819
   81MOL   H11819478   3.696   7.023   4.602  0.0343  1.9571  0.0069
   81MOL   H11919479   3.308   7.121   4.801  3.2462  2.3690  2.1924
   81MOL   H12019480   3.390   7.032   4.931  0.9202  0.4364  0.0292
   81MOL   H12119481   3.324   6.940   4.808  1.4012 -0.8614 -1.2935
   81MOL   C12219482   3.629   6.950   4.409  0.8253  0.0277  0.7747
   81MOL   C12319483   3.765   6.878   4.405 -0.4315  0.1241 -0.8830
   81MOL   C12419484   3.826   6.816   4.535 -0.4827 -0.2207 -1.6101
   81MOL   O12519485   3.940   6.839   4.570 -0.2053  0.9670  0.1420
   81MOL   O12619486   3.747   6.734   4.603 -0.4303 -0.8162 -0.1302
   81MOL   C12719487   3.801   6.650   4.708 -0.8298  0.0774 -0.1987
   81MOL   H12819488   3.557   6.869   4.402  1.8487 -0.8093 -0.3852
   81MOL   H12919489   3.622   7.024   4.330 -2.9564  1.9810  2.8259
   81MOL   H13019490   3.848   6.949   4.395  0.6095 -0.9242  0.0461
   81MOL   H13119491   3.904   6.674   4.736  0.2646 -1.8051 -2.4523
   81MOL   H13219492   3.795   6.547   4.674 -0.3371 -0.0593  0.1140
   81MOL   H13319493   3.742   6.667   4.798 -1.5092  0.3064 -0.6854
   81MOL   C13419494   3.767   6.775   4.294 -0.0771  0.3366 -0.0827
   81MOL   C13519495   3.903   6.760   4.215  0.3849 -0.3715 -0.3809
   81MOL   C13619496   3.902   6.651   4.108 -0.0778  0.6187 -0.1233
   81MOL   O13719497   3.969   6.549   4.124  0.8495  0.1106 -0.2234
   81MOL   O13819498   3.820   6.675   4.009  0.2153  0.2979  0.4187
   81MOL   C13919499   3.833   6.600   3.890 -0.4938 -0.0327 -0.7976
   81MOL   H14019500   3.722   6.678   4.318 -0.4348 -0.6034 -4.2244
   81MOL   H14119501   3.695   6.811   4.220  0.4303 -0.8396 -1.1650
   81MOL   H14219502   3.977   6.715   4.280 -0.0535 -0.3770  0.1166
   81MOL   H14319503   3.873   6.500   3.909  1.5988  1.0027  0.4536
   81MOL   H14419504   3.900   6.665   3.833 -0.7495 -0.6275 -1.8044
   81MOL   H14519505   3.735   6.591   3.844 -0.7138 -3.5533  0.1847
   81MOL   C14619506   3.965   6.901   4.162  0.1802  0.1101 -1.1455
   81MOL   C14719507   4.105   6.941   4.222 -0.0434  0.2861 -0.1212
   81MOL   C14819508   4.215   6.848   4.164 -0.1795  0.0349 -0.0165
   81MOL   O14919509   4.264   6.760   4.233 -0.3730  0.0068  0.6058
   81MOL   O15019510   4.257   6.872   4.039 -0.4073 -0.3126  0.3524
   81MOL   C15119511   4.359   6.789   3.996 -0.3585 -0.3760  0.8015
   81MOL   H15219512   3.965   6.909   4.054  0.7676 -0.1599 -1.1680
   81MOL   H15319513   3.884   6.973   4.176  0.0350  0.0456 -1.6373
   81MOL   H15419514   4.103   6.910   4.327  0.3974  0.0536 -0.1810
   81MOL   H15519515   4.454   6.814   4.044 -0.7596  0.5591  1.1202
   81MOL   H15619516   4.372   6.823   3.893 -0.0733  0.1353  1.0025
   81MOL   H15719517   4.334   6.683   4.000 -3.0620  0.2236  0.7689
   81MOL   C15819518   4.134   7.086   4.232 -0.4315 -0.1862  0.1880
   81MOL   C15919519   4.036   7.159   4.326  0.1325  0.0046  0.2534
   81MOL   C16019520   4.082   7.148   4.473  0.4576  0.5281  0.1350
   81MOL   O16119521   4.195   7.142   4.512  0.2854  0.7358  1.1748
   81MOL   O16219522   3.968   7.164   4.550  0.3126 -0.1576  0.0028
   81MOL   C16319523   3.984   7.181   4.692 -0.7166 -0.3886  0.3081
   81MOL   H16419524   4.241   7.095   4.250 -0.2504 -0.0633 -0.9298
   81MOL   H16519525   4.127   7.131   4.133  1.6115 -0.3027 -0.0203
   81MOL   H16619526   3.934   7.121   4.325 -0.2664  0.8346  3.7648
   81MOL   H16719527   4.060   7.110   4.724  1.6564  0.2977 -3.4392
   81MOL   H16819528   3.900   7.151   4.753 -1.2348  2.2063  0.8986
   81MOL   H16919529   4.017   7.281   4.721  1.0510 -0.8816  0.1098
   81MOL   C17019530   4.020   7.310   4.285  0.8343  0.0413  0.3602
   81MOL   C17119531   4.141   7.404   4.294 -1.3490  0.5218 -0.0332
   81MOL   C17219532   4.183   7.444   4.153 -0.0048  0.5613 -0.1921
   81MOL   O17319533   4.286   7.401   4.102  0.2893  0.2353  0.1906
   81MOL   O17419534   4.087   7.517   4.092  0.1160 -0.4495  0.4747
   81MOL   C17519535   4.108   7.574   3.967  0.4654 -0.2704  0.2795
   81MOL   H17619536   3.984   7.298   4.183  1.2534  2.2237 -0.0543
   81MOL   H17719537   3.930   7.358   4.324  0.6797  0.8015 -0.9037
   81MOL   H17819538   4.222   7.341   4.330  0.3926  2.4485 -0.4908
   81MOL   H17919539   4.194   7.640   3.976  1.5185 -1.6859  0.7250
   81MOL   H18019540   4.021   7.635   3.943  0.5822  0.8350  2.5411
   81MOL   H18119541   4.134   7.501   3.890  0.1316  0.2611 -0.3340
   81MOL   C18219542   4.123   7.521   4.385 -0.2223 -0.3885 -0.3354
   81MOL   C18319543   4.126   7.492   4.532 -0.3270  0.3649 -0.6673
   81MOL   C18419544   4.262   7.442   4.582 -0.5072 -0.5028  0.0540
   81MOL   O18519545   4.364   7.479   4.521 -0.0762 -0.1299 -0.1039
   81MOL   O18619546   4.249   7.362   4.697  0.2625 -0.1177 -0.2988
   81MOL   C18719547   4.367   7.312   4.758 -0.3693 -0.0171  0.0905
   81MOL   H18819548   4.188   7.607   4.368 -2.0437  1.2795  0.9234
   81MOL   H18919549   4.026   7.568   4.370  0.7442  1.5348 -0.7804
   81MOL   H19019550   4.062   7.407   4.554 -2.3570  2.2052  0.8221
   81MOL   H19119551   4.434   7.259   4.691 -0.4637  1.3495 -1.0881
   81MOL   H19219552   4.335   7.243   4.837  0.8693  0.5077  1.0642
   81MOL   H19319553   4.432   7.388   4.801 -1.6180  0.3184  1.4451
   81MOL   C19419554   4.082   7.617   4.610 -0.0563 -0.4529 -0.3430
   81MOL   C19519555   3.927   7.644   4.627  0.1797 -0.2349 -0.2575
   81MOL   C19619556   3.855   7.550   4.721 -0.3900  0.3195  0.3853
   81MOL   O19719557   3.769   7.471   4.687 -0.0381  0.4772 -0.5756
   81MOL   O19819558   3.895   7.555   4.850  0.0138 -0.0722  0.0942
   81MOL   C19919559   3.851   7.446   4.933 -0.1744  0.4204  0.2686
   81MOL   H20019560   4.145   7.637   4.696 -0.1487 -1.7982  0.0490
   81MOL   H20119561   4.131   7.697   4.555  1.5731 -2.5688 -2.1055
   81MOL   H20219562   3.880   7.636   4.529 -2.5084 -1.4526  1.0591
   81MOL   H20319563   3.917   7.436   5.019  0.7627 -2.2824 -0.7403
   81MOL   H20419564   3.868   7.353   4.881  0.1484  0.9583 -0.5957
   81MOL   H20519565   3.753   7.480   4.967 -1.2894 -0.0811 -2.3635
   81MOL   C20619566   3.903   7.796   4.670 -0.7282 -0.3175  0.4723
   81MOL   C20719567   3.760   7.853   4.658 -0.4533  0.5343 -0.5414
   81MOL   C20819568   3.742   0.054   4.729  0.4700 -0.3458  0.0901
   81MOL   O20919569   3.661   0.063   4.826  0.0156  0.6645  0.6582
   81MOL   O21019570   3.807   0.146   4.675 -0.2620 -0.2734 -0.0985
   81MOL   C21119571   3.772   0.282   4.706  0.6816 -0.1293 -0.6825
   81MOL   H21219572   3.934   7.806   4.774 -0.5589 -0.2806  0.4185
   81MOL   H21319573   3.976   7.864   4.626  0.7600 -2.7959 -0.9869
   81MOL   H21419574   3.697   7.779   4.709 -0.8230  0.3877 -1.2122
   81MOL   H21519575   3.780   0.297   4.814 -0.0639  0.0773 -0.6532
   81MOL   H21619576   3.666   0.298   4.686  1.2448  3.1489 -1.4002
   81MOL   H21719577   3.834   0.353   4.652 -0.6853  1.9139  0.3792
   81MOL   C21819578   3.701   7.862   4.518  0.1774 -0.5318  0.4341
   81MOL   C21919579   3.548   7.850   4.498 -0.2592  0.1317 -0.0045
   81MOL   C22019580   3.456   0.048   4.516  0.0801 -1.0435 -0.2389
   81MOL   O22119581   3.351   0.055   4.580  0.0009 -0.2380  0.7910
   81MOL   O22219582   3.506   0.151   4.453 -0.3144  0.2412  0.1617
   81MOL   C22319583   3.456   0.276   4.478 -0.1305 -0.0067 -0.4327
   81MOL   H22419584   3.748   0.016   4.470 -0.3657  0.7386  2.1377
   81MOL   H22519585   3.743   7.775   4.467  0.5890 -0.3869  0.5233
   81MOL   H22619586   3.509   7.785   4.576  1.8406 -0.8896  0.2202
   81MOL   H22719587   3.496   0.344   4.402 -0.9074  4.6002  3.0616
   81MOL   H22819588   3.485   0.322   4.573  0.2930 -0.2877 -0.4256
   81MOL   H22919589   3.347   0.277   4.479 -0.1310 -0.2971  0.5588
   81MOL   C23019590   3.502   7.779   4.373  0.7229 -0.6274  0.4478
   81MOL   C23119591   3.523   7.860   4.237 -0.2616  0.1509 -0.6930
   81MOL   C23219592   3.483   7.776   4.124  0.1744  0.5682  0.4500
   81MOL   O23319593   3.474   7.653   4.135 -0.3787 -0.0856  0.5515
   81MOL   O23419594   3.450   7.852   4.013 -0.3548 -0.0095  0.3884
   81MOL   C23519595   3.400   7.790   3.895 -0.3803  0.4108 -0.9039
   81MOL   H23619596   3.557   7.685   4.364  1.6585  0.0349 -1.0345
   81MOL   H23719597   3.395   7.758   4.377  0.2597  1.5929  0.2179
   81MOL   H23819598   3.630   7.877   4.233 -0.4038  1.4641  0.5720
   81MOL   H23919599   3.470   7.724   3.844  0.9937 -1.0676  2.7714
   81MOL   H24019600   3.384   7.881   3.836  0.9275  0.3360 -1.3937
   81MOL   H24119601   3.302   7.741   3.904 -1.6058  2.5022 -2.4168
   81MOL   H24219602   3.470   0.022   4.222 -1.7334 -0.6722 -0.8021
   82MOL     C119603   7.872   6.536   6.078  0.1786  0.1079 -0.0066
   82MOL     C219604   7.783   6.662   6.059 -1.3563 -0.0710  0.7851
   82MOL     C319605   7.712   6.703   6.189  0.5971  0.4424 -0.0839
   82MOL     O419606   7.725   6.811   6.247 -0.3710 -0.1652  0.1879
   82MOL     O519607   7.628   6.610   6.227 -0.5729  0.3741 -0.0113
   82MOL     C619608   7.562   6.626   6.350  0.2126 -0.2437 -0.6167
   82MOL     H719609   7.852   6.472   5.993  1.7400 -0.0064 -0.3061
   82MOL     H819610   7.846   6.478   6.166  2.4985 -1.2308 -0.1488
   82MOL     H919611   7.701   6.633   5.992  0.2931 -0.6794 -1.0356
   82MOL    H1019612   7.511   6.545   6.401  3.3500 -1.8803 -0.0209
   82MOL    H1119613   7.492   6.709   6.333 -0.2842 -0.2773  1.1849
   82MOL    H1219614   7.635   6.651   6.426 -1.2030 -2.2642  1.4614
   82MOL    H1319615   0.048   6.544   6.073  0.1153  2.8987  1.6717
   82MOL    C1419616   7.858   6.784   5.996 -0.7583 -0.3539  0.2565
   82MOL    C1519617   7.787   6.920   5.956  0.2585 -0.0289  0.3529
   82MOL    C1619618   7.867   7.042   5.987  0.1581  0.7474  0.1183
   82MOL    O1719619   7.821   7.127   6.058  0.1953  0.1479  0.1581
   82MOL    O1819620   0.059   7.040   5.939  0.0027  0.3264  0.6152
   82MOL    C1919621   0.149   7.138   5.977 -0.2712  0.1144  0.2266
   82MOL    H2019622   7.929   6.803   6.076  0.0620 -0.9215 -0.3308
   82MOL    H2119623   7.912   6.741   5.912 -1.7601  0.7779 -1.0093
   82MOL    H2219624   7.693   6.928   6.011  0.3696  1.4573  0.3449
   82MOL    H2319625   0.236   7.134   5.911 -0.8808  0.2875 -0.6008
   82MOL    H2419626   0.170   7.121   6.083 -0.7394  0.8264  0.4421
   82MOL    H2519627   0.102   7.236   5.971 -0.6706  0.0047  1.4046
   82MOL    C2619628   7.740   6.935   5.808 -0.2052  0.6034  0.3770
   82MOL    C2719629   7.638   6.828   5.748  0.6414 -0.1644 -0.2273
   82MOL    C2819630   7.512   6.807   5.832 -0.7205  0.3462  0.5654
   82MOL    O2919631   7.449   6.906   5.865  0.2297 -0.1424 -0.1101
   82MOL    O3019632   7.491   6.682   5.879 -0.6456  0.1102 -0.2554
   82MOL    C3119633   7.403   6.653   5.986 -0.0468  0.2451 -0.0650
   82MOL    H3219634   7.705   7.037   5.794 -0.4963  0.1867 -2.0624
   82MOL    H3319635   7.831   6.936   5.748 -0.8051  0.3989 -0.5334
   82MOL    H3419636   7.685   6.730   5.752  1.2359  0.0834 -1.1736
   82MOL    H3519637   7.413   6.550   6.021  1.6748  0.6294  0.6367
   82MOL    H3619638   7.301   6.678   5.958  0.5259  0.9194 -1.5875
   82MOL    H3719639   7.432   6.708   6.076 -0.9431  1.8255 -0.7261
   82MOL    C3819640   7.590   6.837   5.596  0.6528 -0.1599 -0.1049
   82MOL    C3919641   7.712   6.865   5.492  0.0118  0.0164  0.0804
   82MOL    C4019642   7.820   6.764   5.493  0.4973  0.6654 -0.3208
   82MOL    O4119643   7.812   6.656   5.549  0.2435  0.0019  0.6853
   82MOL    O4219644   7.923   6.803   5.423 -0.1234  0.3857  0.8511
   82MOL    C4319645   0.097   6.714   5.395 -0.2362 -0.0198  0.1876
   82MOL    H4419646   7.542   6.745   5.564  0.3848  0.7349 -2.3358
   82MOL    H4519647   7.513   6.913   5.587  1.0217  0.1163 -0.9102
   82MOL    H4619648   7.748   6.953   5.546 -0.7138 -1.6950  3.5022
   82MOL    H4719649   0.159   6.775   5.329 -1.2837 -0.3721 -1.1477
   82MOL    H4819650   0.056   6.622   5.353 -2.5289  2.0257 -2.2657
   82MOL    H4919651   0.145   6.691   5.490  1.7686 -0.8909 -0.9876
   82MOL    C5019652   7.656   6.903   5.354  0.1739 -0.1633 -0.1920
   82MOL    C5119653   7.685   7.050   5.322 -0.2981 -0.0833  0.0827
   82MOL    C5219654   7.817   7.076   5.255  0.2523  0.3334 -0.3822
   82MOL    O5319655   7.906   7.150   5.309 -0.2065 -0.5029  0.4778
   82MOL    O5419656   7.833   7.000   5.142 -0.2655 -0.1757 -0.3627
   82MOL    C5519657   0.030   6.984   5.082 -0.9792  0.0470 -0.1201
   82MOL    H5619658   7.706   6.834   5.287  0.9253  0.9640 -0.8107
   82MOL    H5719659   7.550   6.880   5.340  0.2357 -1.3153  1.1186
   82MOL    H5819660   7.683   7.104   5.417 -1.6439 -3.7781  2.2454
   82MOL    H5919661   0.112   6.985   5.154 -1.0184 -1.3878 -0.0562
   82MOL    H6019662   0.052   7.044   4.993 -0.3133  0.4089  0.2862
   82MOL    H6119663   0.014   6.880   5.054 -2.7591  0.2938 -0.0960
   82MOL    C6219664   7.565   7.109   5.243 -0.4112 -0.4325  0.6484
   82MOL    C6319665   7.441   7.147   5.324 -0.8583  0.3247  0.1260
   82MOL    C6419666   7.463   7.264   5.426 -0.4546  0.8513 -0.0649
   82MOL    O6519667   7.459   7.240   5.545  0.0140  1.0452 -0.1107
   82MOL    O6619668   7.481   7.381   5.370  0.6109  0.6870 -0.1226
   82MOL    C6719669   7.534   7.498   5.435  0.3799  0.1264 -0.5086
   82MOL    H6819670   7.600   7.202   5.199  0.7282  0.5186  3.4461
   82MOL    H6919671   7.541   7.044   5.159 -1.3324  0.4438  0.2251
   82MOL    H7019672   7.414   7.056   5.378 -1.0262  0.8797  0.9877
   82MOL    H7119673   7.628   7.479   5.487  0.5342 -0.3284 -0.9505
   82MOL    H7219674   7.453   7.541   5.494  0.5938 -0.0976 -0.0519
   82MOL    H7319675   7.556   7.576   5.362  1.0639  2.2281  1.8479
   82MOL    C7419676   7.320   7.170   5.227 -0.4243  0.2301 -0.8345
   82MOL    C7519677   7.241   7.040   5.188 -0.2479  0.8937 -0.4683
   82MOL    C7619678   7.188   6.976   5.315  0.2678  0.2452  0.1149
   82MOL    O7719679   7.099   7.025   5.380  0.4066  0.6153  0.0280
   82MOL    O7819680   7.245   6.860   5.356  0.2238 -0.3246 -0.0604
   82MOL    C7919681   7.201   6.797   5.478  0.3803  0.3670 -0.4510
   82MOL    H8019682   7.244   7.234   5.271  0.3629 -0.6963  1.9874
   82MOL    H8119683   7.350   7.212   5.131  1.6436  1.5739  0.3724
   82MOL    H8219684   7.319   6.974   5.149 -0.4129  1.0759 -1.1189
   82MOL    H8319685   7.278   6.736   5.524  1.7574  1.8703 -0.7325
   82MOL    H8419686   7.114   6.738   5.449  1.2114 -1.6617  1.0895
   82MOL    H8519687   7.168   6.865   5.557  2.6085  2.3313 -1.1346
   82MOL    C8619688   7.143   7.054   5.067 -0.1711 -0.5708 -0.2534
   82MOL    C8719689   7.214   7.078   4.931 -0.7121  0.0836 -0.2615
   82MOL    C8819690   7.326   6.973   4.893 -0.0433 -0.1987 -0.0097
   82MOL    O8919691   7.436   7.005   4.860 -0.2609 -0.3713 -0.1670
   82MOL    O9019692   7.286   6.847   4.908  0.1524 -0.0771  0.2354
   82MOL    C9119693   7.380   6.748   4.871  0.2929 -0.5550  0.3973
   82MOL    H9219694   7.082   6.964   5.059  1.8405 -1.9596 -0.4867
   82MOL    H9319695   7.072   7.131   5.098  0.9188  0.4758 -0.3083
   82MOL    H9419696   7.269   7.172   4.940 -2.1721  0.8872  0.6072
   82MOL    H9519697   7.479   6.762   4.915  0.9028  0.8231 -1.3200
   82MOL    H9619698   7.379   6.740   4.762  0.7394 -1.8792  0.4848
   82MOL    H9719699   7.342   6.654   4.910  0.2540 -0.4640  0.5843
   82MOL    C9819700   7.108   7.088   4.821  0.1803  0.2916  0.4404
   82MOL    C9919701   7.045   7.231   4.827  0.0852 -0.0550 -0.2836
   82MOL   C10019702   7.136   7.338   4.761 -0.4909 -0.3116 -0.1642
   82MOL   O10119703   7.245   7.304   4.707 -0.7154 -0.2360 -0.4793
   82MOL   O10219704   7.083   7.455   4.748 -0.2675 -0.1359  0.0695
   82MOL   C10319705   7.155   7.547   4.667 -0.0581  0.1670 -0.1239
   82MOL   H10419706   7.152   7.073   4.722 -0.7978 -1.7096  0.2699
   82MOL   H10519707   7.031   7.011   4.828 -0.2034  0.6543  0.2392
   82MOL   H10619708   7.064   7.259   4.931  1.2514 -1.4452 -0.0959
   82MOL   H10719709   7.160   7.506   4.566  3.3777  1.4955 -0.5510
   82MOL   H10819710   7.256   7.557   4.705  0.0577 -0.7682 -0.1900
   82MOL   H10919711   7.106   7.645   4.667 -3.0972 -1.2738 -0.6273
   82MOL   C11019712   6.891   7.227   4.793 -0.4382 -0.7457 -0.1185
   82MOL   C11119713   6.851   7.222   4.643 -0.3004  0.1323 -0.4109
   82MOL   C11219714   6.831   7.075   4.600 -0.0554  0.4176 -0.2674
   82MOL   O11319715   6.915   7.010   4.543 -0.2415 -0.0532 -0.4181
   82MOL   O11419716   6.707   7.024   4.646  0.1410  0.4365  0.0658
   82MOL   C11519717   6.692   6.880   4.648 -0.5266 -0.1262 -0.0907
   82MOL   H11619718   6.835   7.156   4.855 -0.5487  0.2605  0.9540
   82MOL   H11719719   6.857   7.324   4.830 -0.2851 -1.1658  1.1758
   82MOL   H11819720   6.935   7.263   4.587 -0.9084 -1.0258 -2.2119
   82MOL   H11919721   6.717   6.845   4.748 -0.0926 -0.7254 -0.4075
   82MOL   H12019722   6.755   6.825   4.579  0.0274  1.0954 -0.5737
   82MOL   H12119723   6.588   6.847   4.639 -0.0390 -1.9122  0.6662
   82MOL   C12219724   6.724   7.302   4.623  0.2216  0.8941 -0.3201
   82MOL   C12319725   6.655   7.293   4.484  0.4259 -0.2010 -0.8050
   82MOL   C12419726   6.507   7.326   4.503 -0.2857 -0.3885  0.3749
   82MOL   O12519727   6.470   7.401   4.593  0.0015 -0.6046 -0.1378
   82MOL   O12619728   6.431   7.272   4.396  0.0171 -0.3445  0.6184
   82MOL   C12719729   6.288   7.291   4.399  0.0558  0.2281 -0.1114
   82MOL   H12819730   6.649   7.258   4.689  1.2297  0.4958  0.5701
   82MOL   H12919731   6.733   7.405   4.657 -2.1317  0.8790  0.4298
   82MOL   H13019732   6.648   7.188   4.456  1.2979 -0.3349 -0.5284
   82MOL   H13119733   6.246   7.319   4.496 -0.7743  0.1206 -0.4414
   82MOL   H13219734   6.235   7.202   4.366 -1.4882  1.3511 -0.6671
   82MOL   H13319735   6.268   7.374   4.332 -1.2427  1.0433  1.2552
   82MOL   C13419736   6.728   7.378   4.373  0.0851  0.3913 -0.0733
   82MOL   C13519737   6.848   7.293   4.305  0.0068 -0.2914  0.2383
   82MOL   C13619738   6.799   7.226   4.178 -0.0849  0.0415  0.0428
   82MOL   O13719739   6.762   7.106   4.177  0.0565 -0.0018 -0.6131
   82MOL   O13819740   6.786   7.310   4.067  0.4315  0.0119  0.4064
   82MOL   C13919741   6.741   7.258   3.938  0.5639 -0.5477 -0.2273
   82MOL   H14019742   6.650   7.399   4.300 -0.4616  3.0756  1.2367
   82MOL   H14119743   6.775   7.469   4.411  1.4675  0.3232 -1.5455
   82MOL   H14219744   6.863   7.203   4.366  0.4437 -0.5218 -0.2094
   82MOL   H14319745   6.748   7.327   3.854 -2.4357 -1.2791 -1.1173
   82MOL   H14419746   6.634   7.242   3.947  0.6206 -0.5798  0.4536
   82MOL   H14519747   6.792   7.172   3.895  2.9067  0.9782 -0.6057
   82MOL   C14619748   6.980   7.369   4.285  0.6456  0.2372  0.5685
   82MOL   C14719749   7.111   7.293   4.253 -0.0337  0.0538  0.4539
   82MOL   C14819750   7.232   7.390   4.221  0.5960  0.4077 -0.7078
   82MOL   O14919751   7.245   7.498   4.279  0.0600  0.1631  0.0033
   82MOL   O15019752   7.322   7.332   4.146 -0.0150 -0.1433 -0.1157
   82MOL   C15119753   7.451   7.391   4.131  0.6170  0.3491 -0.2902
   82MOL   H15219754   6.949   7.438   4.207  0.2491  1.9690  2.1935
   82MOL   H15319755   6.996   7.431   4.374  1.1241 -0.8563  1.2652
   82MOL   H15419756   7.091   7.234   4.164  1.4692  1.7454 -1.0471
   82MOL   H15519757   7.516   7.329   4.069 -0.0710 -0.6409 -0.0338
   82MOL   H15619758   7.488   7.407   4.232 -0.5946  1.3694 -0.0062
   82MOL   H15719759   7.439   7.493   4.095  1.0509  0.1217 -1.1049
   82MOL   C15819760   7.149   7.197   4.365  0.3217  0.2484 -0.4630
   82MOL   C15919761   7.246   7.083   4.348  0.9897 -0.2181 -0.5734
   82MOL   C16019762   7.359   7.088   4.445 -0.4964  0.1002  1.3168
   82MOL   O16119763   7.394   6.998   4.522 -0.1460 -0.2664  0.4607
   82MOL   O16219764   7.431   7.195   4.433 -0.1281 -0.5292 -0.3442
   82MOL   C16319765   7.562   7.189   4.487 -0.4168 -0.1123 -0.1427
   82MOL   H16419766   7.169   7.262   4.450  0.4671  2.9069 -2.4789
   82MOL   H16519767   7.062   7.143   4.403  2.3108 -0.4654  3.3526
   82MOL   H16619768   7.303   7.101   4.256 -0.0833 -1.3466 -1.4687
   82MOL   H16719769   7.614   7.103   4.447  0.9274  0.6791 -0.1311
   82MOL   H16819770   7.555   7.170   4.594  1.2905 -2.9720 -0.4887
   82MOL   H16919771   7.617   7.283   4.480 -0.6035 -0.1985 -3.1556
   82MOL   C17019772   7.182   6.947   4.338  0.3054  0.0666  0.4359
   82MOL   C17119773   7.075   6.921   4.225  0.0985 -0.1149  0.5977
   82MOL   C17219774   7.148   6.892   4.088  0.0296  0.5835  0.3854
   82MOL   O17319775   7.270   6.873   4.075 -0.0047 -0.3130  0.1135
   82MOL   O17419776   7.058   6.881   3.992  0.3568 -0.0544 -0.3208
   82MOL   C17519777   7.109   6.844   3.863  0.1740  0.4151  0.4130
   82MOL   H17619778   7.261   6.873   4.332  0.3634  0.1344  0.3769
   82MOL   H17719779   7.127   6.924   4.429 -2.3521 -0.2195 -1.1853
   82MOL   H17819780   7.026   7.017   4.210 -0.2322 -0.6359 -1.9515
   82MOL   H17919781   7.145   6.935   3.815 -0.6586  0.2380 -0.5551
   82MOL   H18019782   7.022   6.810   3.807  0.1983  0.7529  0.1711
   82MOL   H18119783   7.190   6.771   3.860  1.5261  1.9568 -1.6832
   82MOL   C18219784   6.968   6.811   4.247  0.7237 -0.2535 -0.3287
   82MOL   C18319785   7.020   6.680   4.316 -0.0405  0.5322 -0.6320
   82MOL   C18419786   6.969   6.676   4.460  0.2460 -0.3470  0.5871
   82MOL   O18519787   6.861   6.619   4.492  0.4224  0.4562  0.1721
   82MOL   O18619788   7.057   6.724   4.551  0.1007  0.7111  0.4418
   82MOL   C18719789   7.018   6.726   4.689  0.0673  0.1476 -0.4693
   82MOL   H18819790   6.893   6.864   4.306  3.3297  0.6894  2.2320
   82MOL   H18919791   6.923   6.788   4.150 -3.0935  0.0694  1.2702
   82MOL   H19019792   7.129   6.684   4.312  0.1134 -1.5219  1.0721
   82MOL   H19119793   6.967   6.821   4.702 -3.6605 -1.7076 -1.0038
   82MOL   H19219794   7.113   6.728   4.743  0.8251 -1.0990 -1.7237
   82MOL   H19319795   6.956   6.646   4.728  0.6783  0.1311  0.4955
   82MOL   C19419796   6.988   6.549   4.230  0.3022 -0.3039  0.6031
   82MOL   C19519797   7.027   6.414   4.303  0.6385  0.4596 -0.0021
   82MOL   C19619798   6.964   6.294   4.234  0.2001  0.6638 -0.3765
   82MOL   O19719799   7.034   6.214   4.180 -0.5060  0.1785  1.3492
   82MOL   O19819800   6.829   6.270   4.250 -0.3716 -0.3285  0.3903
   82MOL   C19919801   6.773   6.156   4.186  0.5120  0.1195 -0.6451
   82MOL   H20019802   6.887   6.542   4.191  0.5083  1.4004 -0.2897
   82MOL   H20119803   7.042   6.552   4.136 -3.0038  3.1460 -1.3114
   82MOL   H20219804   6.983   6.409   4.403  1.9502  1.2653  0.6357
   82MOL   H20319805   6.666   6.174   4.188  0.2632 -1.3653 -0.0617
   82MOL   H20419806   6.803   6.071   4.248  1.7405 -0.2377 -1.7028
   82MOL   H20519807   6.793   6.137   4.080  0.4713 -0.2271 -0.5912
   82MOL   C20619808   7.189   6.395   4.325 -0.0114  0.4572  1.1062
   82MOL   C20719809   7.216   6.289   4.435  0.1750  0.3084  0.9151
   82MOL   C20819810   7.336   6.201   4.415  0.1550  0.1163  0.5662
   82MOL   O20919811   7.329   6.079   4.433  0.3349  0.3629 -0.0344
   82MOL   O21019812   7.440   6.274   4.379  0.2056  0.0463  0.0088
   82MOL   C21119813   7.565   6.219   4.367 -1.1518 -0.3552  0.2385
   82MOL   H21219814   7.233   6.372   4.228  0.0832  1.5539  0.8846
   82MOL   H21319815   7.238   6.490   4.344 -0.9943  1.2920 -0.4032
   82MOL   H21419816   7.128   6.224   4.431 -0.1674  0.8627 -1.0417
   82MOL   H21519817   7.562   6.133   4.299 -0.0949 -1.2536  1.2847
   82MOL   H21619818   7.589   6.197   4.471  1.5970 -2.1618 -0.6938
   82MOL   H21719819   7.637   6.288   4.324 -0.9251 -0.0523  1.0950
   82MOL   C21819820   7.223   6.359   4.578 -0.7667 -0.0359  0.2823
   82MOL   C21919821   7.208   6.277   4.707 -0.0646 -0.1887 -0.1738
   82MOL   C22019822   7.180   6.362   4.829  0.3962  0.5409 -0.2140
   82MOL   O22119823   7.133   6.478   4.824 -0.5128  0.5138  0.3550
   82MOL   O22219824   7.223   6.300   4.945 -0.2596  0.1700 -0.4507
   82MOL   C22319825   7.209   6.371   5.066 -0.5036 -0.0500  0.5080
   82MOL   H22419826   7.315   6.418   4.580 -0.2292 -0.6664 -2.6736
   82MOL   H22519827   7.144   6.432   4.566 -0.7932  0.0575  1.0453
   82MOL   H22619828   7.299   6.225   4.737  0.4779  0.1449 -1.2527
   82MOL   H22719829   7.246   6.473   5.055  0.3709 -0.7085 -3.4345
   82MOL   H22819830   7.257   6.323   5.152  1.7257  2.4951  0.7411
   82MOL   H22919831   7.101   6.374   5.079 -0.2886  0.2788  2.3798
   82MOL   C23019832   7.098   6.167   4.694 -0.7838  0.8611 -0.6303
   82MOL   C23119833   6.954   6.206   4.660 -0.7440 -1.3021  0.1702
   82MOL   C23219834   6.866   6.097   4.615 -0.6912  0.3323  0.1647
   82MOL   O23319835   6.886   6.033   4.513  0.7110 -0.4172  0.0230
   82MOL   O23419836   6.765   6.092   4.705 -0.3246  0.3324 -0.0537
   82MOL   C23519837   6.662   5.999   4.674 -0.1172 -0.2509  0.4195
   82MOL   H23619838   7.142   6.097   4.624 -1.0404 -0.4176  0.4582
   82MOL   H23719839   7.105   6.113   4.789 -2.5474 -0.2201 -1.1100
   82MOL   H23819840   6.950   6.292   4.594  3.1455 -2.2449 -1.4204
   82MOL   H23919841   6.605   6.028   4.586  0.7973  1.5429  0.4109
   82MOL   H24019842   6.584   6.022   4.746 -2.8705 -1.8657 -1.9352
   82MOL   H24119843   6.699   5.896   4.677  3.2708  0.9220  4.9035
   82MOL   H24219844   6.916   6.252   4.751 -1.1310  0.7607 -1.0040
   83MOL     C119845   4.145   6.140   6.829  0.2054  0.6375  0.1314
   83MOL     C219846   4.119   5.991   6.874  0.4380  0.4286  0.3079
   83MOL     C319847   4.167   5.907   6.759 -0.6238  0.1687 -0.0914
   83MOL     O419848   4.283   5.867   6.749 -0.3005 -0.6059  0.4369
   83MOL     O519849   4.069   5.889   6.673 -0.1884  0.4708 -0.2696
   83MOL     C619850   4.102   5.836   6.546 -0.0426 -0.5245  0.0570
   83MOL     H719851   4.099   6.162   6.733  1.2911  0.6967 -0.3828
   83MOL     H819852   4.249   6.172   6.830 -0.1477  1.8368 -0.1403
   83MOL     H919853   4.012   5.976   6.888  0.1079  0.5884 -1.8242
   83MOL    H1019854   4.018   5.833   6.476  0.4705 -1.2368 -0.5377
   83MOL    H1119855   4.129   5.731   6.559 -0.6482 -0.5319  1.3961
   83MOL    H1219856   4.174   5.895   6.491  0.9356 -1.0180  0.7964
   83MOL    H1319857   4.092   6.208   6.897 -1.0958 -0.3219  0.0972
   83MOL    C1419858   4.189   5.949   7.006  0.2073  0.1979 -0.4843
   83MOL    C1519859   4.117   6.011   7.131 -0.3644  0.2751 -0.2102
   83MOL    C1619860   4.176   6.148   7.162  0.8721 -0.6540  0.8410
   83MOL    O1719861   4.105   6.240   7.202  0.2223  0.3052  0.6272
   83MOL    O1819862   4.299   6.151   7.148 -0.3832  0.3123 -0.1936
   83MOL    C1919863   4.376   6.262   7.190 -0.7196 -0.0653 -0.9423
   83MOL    H2019864   4.193   5.840   7.013  0.4008  0.2391  0.0246
   83MOL    H2119865   4.293   5.980   6.997 -0.3220  1.7301 -1.4493
   83MOL    H2219866   4.167   5.948   7.204  1.2414 -0.3403 -1.8000
   83MOL    H2319867   4.322   6.336   7.249  0.1947  0.4115 -0.6845
   83MOL    H2419868   4.405   6.313   7.099  0.2385 -0.5431 -0.9097
   83MOL    H2519869   4.466   6.237   7.246 -1.1739  0.6295  0.1280
   83MOL    C2619870   3.963   6.006   7.135  0.6822  0.0271  0.4807
   83MOL    C2719871   3.900   5.862   7.135  0.2984 -0.2582  0.7044
   83MOL    C2819872   3.964   5.782   7.255  0.5914  0.7045  0.1243
   83MOL    O2919873   3.942   5.810   7.373  0.0341  0.1693 -0.0528
   83MOL    O3019874   4.032   5.677   7.219 -0.2019 -0.3123 -0.0179
   83MOL    C3119875   4.076   5.582   7.316 -0.3701  0.5470  0.1647
   83MOL    H3219876   3.924   6.064   7.219  0.1746  0.5686 -0.1258
   83MOL    H3319877   3.921   6.053   7.047 -1.0536 -1.1017  0.6685
   83MOL    H3419878   3.929   5.805   7.047 -1.3877  0.0082 -0.0323
   83MOL    H3519879   4.161   5.532   7.271  0.2993  1.8861 -0.0662
   83MOL    H3619880   3.992   5.515   7.338 -1.2438  1.5449 -0.0795
   83MOL    H3719881   4.093   5.628   7.413  1.5200 -0.2758  0.2400
   83MOL    C3819882   3.743   5.854   7.132  0.0870  0.0747  0.4334
   83MOL    C3919883   3.681   5.875   6.994 -0.1139 -0.3442 -0.0694
   83MOL    C4019884   3.683   5.748   6.909  0.0071  0.0088 -0.4279
   83MOL    O4119885   3.786   5.722   6.841 -0.1134  0.8953  0.6040
   83MOL    O4219886   3.561   5.686   6.908  0.0424 -1.0368  0.3534
   83MOL    C4319887   3.542   5.581   6.821  0.2507  0.4169  0.1383
   83MOL    H4419888   3.703   5.758   7.165 -0.6544 -0.0097 -0.7181
   83MOL    H4519889   3.703   5.928   7.201 -2.0000  0.8855 -1.5904
   83MOL    H4619890   3.748   5.942   6.939 -1.2544  1.2750  0.4904
   83MOL    H4719891   3.444   5.533   6.828 -0.6856  1.9694 -1.8567
   83MOL    H4819892   3.614   5.503   6.844 -0.7749 -0.0379  1.9389
   83MOL    H4919893   3.545   5.619   6.719 -1.2860 -1.9894 -0.8565
   83MOL    C5019894   3.544   5.951   7.003 -1.2732  0.4707  0.1645
   83MOL    C5119895   3.491   6.011   6.862  1.4890  0.4990 -0.6452
   83MOL    C5219896   3.361   5.940   6.830  0.2163 -0.3791  0.0148
   83MOL    O5319897   3.351   5.884   6.726 -0.0086  0.0516  0.4764
   83MOL    O5419898   3.264   5.958   6.924  0.2768 -0.5054  0.1885
   83MOL    C5519899   3.131   5.915   6.905 -1.0404  0.0524  0.1817
   83MOL    H5619900   3.462   5.891   7.042 -0.2074 -1.1993 -0.1041
   83MOL    H5719901   3.554   6.028   7.080  2.1747  1.2926 -1.0438
   83MOL    H5819902   3.551   5.981   6.777  2.2611 -2.5770  0.9027
   83MOL    H5919903   3.077   5.979   6.834 -1.9969 -2.9294 -1.9112
   83MOL    H6019904   3.064   5.894   6.988 -1.7908 -1.7379 -0.8502
   83MOL    H6119905   3.116   5.817   6.860 -3.1369 -0.0943  1.1367
   83MOL    C6219906   3.468   6.166   6.867  0.3308  0.5517 -0.0446
   83MOL    C6319907   3.594   6.246   6.906 -0.2194  0.3700 -0.1293
   83MOL    C6419908   3.704   6.234   6.797  0.5002 -0.2466  0.1238
   83MOL    O6519909   3.780   6.134   6.787 -0.0189  0.0392  0.1338
   83MOL    O6619910   3.693   6.331   6.710  0.9590  0.2552  0.2322
   83MOL    C6719911   3.765   6.315   6.586 -0.3437  0.2265  0.1138
   83MOL    H6819912   3.440   6.215   6.773  2.1084 -2.7945 -2.4175
   83MOL    H6919913   3.389   6.188   6.939  1.2956  3.3261  0.2239
   83MOL    H7019914   3.652   6.200   6.986 -2.0699 -0.8433  0.5385
   83MOL    H7119915   3.872   6.324   6.603  0.0226  0.0112 -1.8952
   83MOL    H7219916   3.740   6.393   6.514  0.6129 -1.6502 -2.3444
   83MOL    H7319917   3.744   6.218   6.542  0.9271 -0.7862  1.6841
   83MOL    C7419918   3.567   6.391   6.945  0.2615  0.1242  1.0638
   83MOL    C7519919   3.490   6.406   7.079 -0.0827  1.0224  1.0616
   83MOL    C7619920   3.587   6.360   7.195  0.3704 -0.5361  0.6024
   83MOL    O7719921   3.569   6.257   7.253  0.0718 -0.2028 -0.0518
   83MOL    O7819922   3.693   6.448   7.211  0.9203 -0.0207 -0.3444
   83MOL    C7919923   3.799   6.392   7.290  0.5293 -0.1582  0.7030
   83MOL    H8019924   3.656   6.454   6.945 -0.4191  1.1067  0.9172
   83MOL    H8119925   3.503   6.423   6.863 -2.1364 -0.4296  2.6487
   83MOL    H8219926   3.412   6.330   7.086 -0.2100  0.9426 -0.8765
   83MOL    H8319927   3.861   6.479   7.313 -0.1756  0.4146  0.4632
   83MOL    H8419928   3.848   6.319   7.227 -0.6160 -0.4698  0.1516
   83MOL    H8519929   3.762   6.338   7.377 -1.0459 -1.4450 -0.7252
   83MOL    C8619930   3.423   6.544   7.112 -0.4373 -0.1191  0.2046
   83MOL    C8719931   3.309   6.584   7.019 -0.6400 -0.2219 -0.2719
   83MOL    C8819932   3.211   6.469   6.997 -0.6483  0.1780 -0.9318
   83MOL    O8919933   3.215   6.409   6.892  0.4004 -0.0830 -0.0481
   83MOL    O9019934   3.129   6.440   7.105  0.5534  0.7692 -0.2899
   83MOL    C9119935   3.026   6.347   7.088  0.7336  0.2965  0.5124
   83MOL    H9219936   3.379   6.545   7.212 -0.9928  0.7085 -0.0415
   83MOL    H9319937   3.506   6.614   7.101 -0.5544 -0.3464 -2.4374
   83MOL    H9419938   3.357   6.594   6.922  2.6159  0.9479  1.3895
   83MOL    H9519939   2.942   6.371   7.024 -0.3165 -3.3433  0.4317
   83MOL    H9619940   2.990   6.337   7.191 -0.7524 -0.3098 -0.0643
   83MOL    H9719941   3.064   6.246   7.074 -1.7470 -0.7053  0.9194
   83MOL    C9819942   3.235   6.717   7.050  0.4154  0.6434  0.0511
   83MOL    C9919943   3.182   6.793   6.927  0.4327 -0.8268  0.0286
   83MOL   C10019944   3.061   6.880   6.962  0.0769 -0.2015 -0.3452
   83MOL   O10119945   3.057   6.934   7.072  0.1342  0.1592  0.0019
   83MOL   O10219946   2.963   6.896   6.867 -0.2972 -0.5621  0.4592
   83MOL   C10319947   2.849   6.966   6.911  0.3194  0.2885 -0.1725
   83MOL   H10419948   3.153   6.702   7.120  0.3858  0.7237  0.0327
   83MOL   H10519949   3.305   6.781   7.104 -0.4186  0.3189  1.5478
   83MOL   H10619950   3.152   6.727   6.845 -0.0580 -1.5037  0.7568
   83MOL   H10719951   2.803   6.911   6.993  1.5265  0.7300  0.8093
   83MOL   H10819952   2.770   6.972   6.836 -0.9610  0.2928  1.1630
   83MOL   H10919953   2.876   7.068   6.937 -1.0549  0.9858 -1.4412
   83MOL   C11019954   3.286   6.887   6.850 -0.5599  0.4706 -1.1144
   83MOL   C11119955   3.411   6.824   6.790  0.1417  0.1318 -0.6268
   83MOL   C11219956   3.384   6.716   6.686  0.0596  0.0527  0.1367
   83MOL   O11319957   3.284   6.723   6.620  0.2369 -0.4435  0.3395
   83MOL   O11419958   3.472   6.624   6.675 -0.0341  0.0993  0.2301
   83MOL   C11519959   3.451   6.509   6.593  0.9012 -0.3324 -0.4559
   83MOL   H11619960   3.234   6.931   6.765 -1.5600 -1.5223 -1.5540
   83MOL   H11719961   3.313   6.977   6.906 -0.8030 -1.2767  1.9086
   83MOL   H11819962   3.468   6.772   6.868  1.0096 -0.0752 -1.3859
   83MOL   H11919963   3.542   6.485   6.538  1.0535 -1.3527  0.2116
   83MOL   H12019964   3.378   6.528   6.514  1.0353  1.2057 -0.2079
   83MOL   H12119965   3.412   6.426   6.653 -1.1855 -0.5266 -2.0113
   83MOL   C12219966   3.514   6.923   6.737 -0.0028  0.0783 -0.4015
   83MOL   C12319967   3.651   6.920   6.815 -0.4032  0.4079  0.9866
   83MOL   C12419968   3.635   6.959   6.960  0.2516  0.5655 -0.1334
   83MOL   O12519969   3.605   7.077   6.988 -0.4032  0.4286 -0.2417
   83MOL   O12619970   3.667   6.855   7.039  0.3945  0.0139  0.1060
   83MOL   C12719971   3.664   6.872   7.181  0.0274  0.4715  0.6629
   83MOL   H12819972   3.540   6.901   6.634  0.1277 -0.4616 -0.2578
   83MOL   H12919973   3.474   7.024   6.742  0.1236  0.0587  1.9745
   83MOL   H13019974   3.699   7.010   6.776 -0.9360  0.1733 -0.2525
   83MOL   H13119975   3.597   6.797   7.224  1.2051 -0.1289  1.4616
   83MOL   H13219976   3.641   6.973   7.216  1.7511  1.4311 -0.9080
   83MOL   H13319977   3.762   6.847   7.222  0.3391 -1.1118 -1.0060
   83MOL   C13419978   3.748   6.802   6.777  0.7827 -0.1007 -0.0458
   83MOL   C13519979   3.896   6.840   6.800  0.2542 -0.6332  0.0032
   83MOL   C13619980   3.974   6.722   6.863 -0.3844  0.4528  0.1997
   83MOL   O13719981   4.033   6.647   6.784 -0.2882 -0.2652  0.5234
   83MOL   O13819982   3.966   6.708   6.997 -0.1306 -0.3596 -0.2967
   83MOL   C13919983   4.013   6.589   7.064  0.2007 -0.1818 -0.2078
   83MOL   H14019984   3.709   6.716   6.832  1.4803 -1.1376 -1.1386
   83MOL   H14119985   3.732   6.779   6.671 -1.6776  1.4561 -0.0610
   83MOL   H14219986   3.896   6.918   6.875 -2.2659  0.5690 -1.1701
   83MOL   H14319987   3.933   6.527   7.105  1.1598 -0.2324  1.6564
   83MOL   H14419988   4.076   6.623   7.147  1.0141  1.3959 -1.4395
   83MOL   H14519989   4.070   6.536   6.987  1.0925  2.2503 -1.2901
   83MOL   C14619990   3.960   6.895   6.665  0.0651  0.7089  0.4547
   83MOL   C14719991   3.990   7.041   6.680 -0.3074 -0.1952 -0.2589
   83MOL   C14819992   4.127   7.066   6.749  0.1292 -0.1222 -0.0221
   83MOL   O14919993   4.137   7.055   6.870  0.4280 -0.5700 -0.2827
   83MOL   O15019994   4.226   7.100   6.666  0.3725  0.0571 -0.0657
   83MOL   C15119995   4.360   7.094   6.712  0.2158 -0.6539 -0.7288
   83MOL   H15219996   4.053   6.841   6.643 -1.2193 -0.6928 -1.7794
   83MOL   H15319997   3.899   6.877   6.576 -0.3542  0.2313  0.8352
   83MOL   H15419998   3.911   7.087   6.740 -0.2039  0.3324 -0.5201
   83MOL   H15519999   4.431   7.094   6.630 -0.7240  1.5964 -1.5713
   83MOL   H15620000   4.375   7.004   6.771 -0.4584  0.1387  0.7018
   83MOL   H15720001   4.386   7.185   6.768  2.4426 -0.7256 -1.5848
   83MOL   C15820002   3.987   7.117   6.540  0.4906 -0.4317  0.2545
   83MOL   C15920003   3.849   7.143   6.482  0.1371  0.1900 -0.1009
   83MOL   C16020004   3.771   7.233   6.573 -0.3907  0.0601 -0.0796
   83MOL   O16120005   3.663   7.196   6.622 -0.4209 -0.2340  0.3570
   83MOL   O16220006   3.832   7.355   6.586  0.5920 -0.5280  0.4623
   83MOL   C16320007   3.760   7.450   6.665 -0.2591 -0.5087 -0.6220
   83MOL   H16420008   4.042   7.210   6.528 -0.5523  0.1011 -0.3436
   83MOL   H16520009   4.052   7.053   6.479  3.0992  0.1167  2.3330
   83MOL   H16620010   3.801   7.045   6.480 -2.2833  1.3287 -3.9776
   83MOL   H16720011   3.827   7.534   6.683  1.3327 -2.0539  0.8371
   83MOL   H16820012   3.721   7.416   6.761  0.6225  0.4047  0.0750
   83MOL   H16920013   3.674   7.477   6.604 -0.2641 -0.1676 -0.4659
   83MOL   C17020014   3.856   7.195   6.334  0.1028 -0.4575  0.6860
   83MOL   C17120015   3.745   7.129   6.248 -0.4511 -0.6688 -0.0737
   83MOL   C17220016   3.722   7.205   6.120 -0.4527  0.1097  0.1485
   83MOL   O17320017   3.613   7.258   6.102  0.5259 -0.2696 -0.2403
   83MOL   O17420018   3.825   7.190   6.024 -0.1287 -0.0225 -0.4018
   83MOL   C17520019   3.799   7.218   5.885  0.1061  0.1798  0.5624
   83MOL   H17620020   3.824   7.300   6.334  2.5418  0.3150  0.1081
   83MOL   H17720021   3.953   7.193   6.286 -0.3755  0.1740 -0.3233
   83MOL   H17820022   3.658   7.141   6.312  1.1390  3.3368  1.4714
   83MOL   H17920023   3.698   7.256   5.870  0.0781  0.5001  1.5460
   83MOL   H18020024   3.815   7.131   5.821 -0.5830 -0.9959  1.9906
   83MOL   H18120025   3.876   7.286   5.847 -0.1046 -0.1806 -0.5435
   83MOL   C18220026   3.758   6.976   6.221  0.2046 -0.1499 -0.2892
   83MOL   C18320027   3.629   6.894   6.194 -0.1952  0.3657 -0.0366
   83MOL   C18420028   3.668   6.752   6.151 -0.2246  0.3206  0.2039
   83MOL   O18520029   3.678   6.725   6.029  0.3977  0.0493 -0.3252
   83MOL   O18620030   3.691   6.676   6.260  0.3533  0.2218  0.1082
   83MOL   C18720031   3.748   6.546   6.232 -0.3879 -0.2179 -0.2236
   83MOL   H18820032   3.832   6.944   6.147  1.4091  0.1578  0.7680
   83MOL   H18920033   3.789   6.926   6.312 -0.4152  0.2441  0.1399
   83MOL   H19020034   3.574   6.938   6.110  0.3064  0.4291 -0.3336
   83MOL   H19120035   3.723   6.482   6.317 -1.4895  3.2867  2.2491
   83MOL   H19220036   3.856   6.539   6.218 -0.2985  2.1248 -0.9517
   83MOL   H19320037   3.706   6.503   6.142 -1.3572 -1.7403  0.9272
   83MOL   C19420038   3.529   6.894   6.309  0.3721  0.5449 -0.7801
   83MOL   C19520039   3.411   6.995   6.287  0.7064  0.5106 -0.0953
   83MOL   C19620040   3.296   6.944   6.205 -0.3114 -0.6482  0.5080
   83MOL   O19720041   3.191   6.920   6.260  0.0633 -0.7379  0.0687
   83MOL   O19820042   3.329   6.935   6.074  0.6591  0.4512  0.3312
   83MOL   C19920043   3.227   6.893   5.986  0.2142  0.6086  0.5665
   83MOL   H20020044   3.484   6.796   6.328 -0.2811  1.1870  1.0637
   83MOL   H20120045   3.570   6.916   6.408  1.7282  0.0626 -1.2166
   83MOL   H20220046   3.452   7.076   6.227  1.6678 -1.7239 -2.5636
   83MOL   H20320047   3.130   6.886   6.035  1.7107 -0.9872  3.4629
   83MOL   H20420048   3.252   6.794   5.947 -0.5756  0.6603 -0.0807
   83MOL   H20520049   3.216   6.961   5.902  0.0305  1.0026  0.9099
   83MOL   C20620050   3.364   7.060   6.420 -0.1378  0.4541  1.0600
   83MOL   C20720051   3.290   7.192   6.406 -0.1219 -0.1338 -0.2934
   83MOL   C20820052   3.194   7.212   6.520  0.6708 -0.0643 -0.1812
   83MOL   O20920053   3.073   7.234   6.502  0.2566 -0.2863  0.0369
   83MOL   O21020054   3.246   7.195   6.638 -0.3019 -0.5362  0.3533
   83MOL   C21120055   3.175   7.221   6.756 -0.1356  0.0774  0.2461
   83MOL   H21220056   3.303   6.985   6.470 -0.1174 -0.3280 -0.0786
   83MOL   H21320057   3.449   7.074   6.487  1.0222  0.7229 -0.4224
   83MOL   H21420058   3.225   7.189   6.319  0.6792  1.5148 -0.9690
   83MOL   H21520059   3.096   7.146   6.765  0.3915 -0.4218  0.7382
   83MOL   H21620060   3.120   7.315   6.749  0.0047  0.0662 -1.0174
   83MOL   H21720061   3.251   7.211   6.833  2.9732 -1.9776 -2.9442
   83MOL   C21820062   3.389   7.314   6.394  0.6127  0.1765 -0.1226
   83MOL   C21920063   3.326   7.462   6.396 -0.0061 -0.3521  0.0535
   83MOL   C22020064   3.368   7.535   6.526 -0.1669 -0.1590 -0.0390
   83MOL   O22120065   3.464   7.612   6.527 -0.6170 -0.0490 -0.2555
   83MOL   O22220066   3.288   7.509   6.631  0.4951 -0.3439 -0.0074
   83MOL   C22320067   3.273   7.591   6.745  0.5668  0.3693  0.5467
   83MOL   H22420068   3.449   7.308   6.484 -0.0148 -0.8196  0.2372
   83MOL   H22520069   3.466   7.286   6.321 -1.5279 -1.1716 -1.9674
   83MOL   H22620070   3.218   7.471   6.389 -0.1963 -2.7645 -0.5930
   83MOL   H22720071   3.359   7.612   6.808  0.4343  1.1762  0.4663
   83MOL   H22820072   3.189   7.552   6.803 -1.7102  1.0281 -2.1733
   83MOL   H22920073   3.241   7.691   6.717  1.2035  0.6033  0.6563
   83MOL   C23020074   3.370   7.535   6.268  0.0476  0.1828 -0.4116
   83MOL   C23120075   3.283   7.660   6.241  0.1156 -0.0937  0.2845
   83MOL   C23220076   3.350   7.724   6.126  0.0981  0.0621 -0.6027
   83MOL   O23320077   3.403   7.836   6.141  0.2321 -0.1044  0.2944
   83MOL   O23420078   3.343   7.662   6.014  0.0294  0.0310  0.1885
   83MOL   C23520079   3.398   7.722   5.898 -0.2332 -0.1553  0.0792
   83MOL   H23620080   3.475   7.562   6.283 -0.5734  2.6880 -0.3962
   83MOL   H23720081   3.374   7.474   6.178  1.4673 -0.6158  0.1641
   83MOL   H23820082   3.296   7.721   6.330 -1.8192 -0.2270  0.6899
   83MOL   H23920083   3.483   7.786   5.920 -0.2121 -0.5810  1.2680
   83MOL   H24020084   3.331   7.803   5.869  0.4986  0.5647  0.3796
   83MOL   H24120085   3.413   7.662   5.808 -0.4750  0.2083 -0.2057
   83MOL   H24220086   3.177   7.634   6.236  0.0110  0.5009 -0.6870
   84MOL     C120087   6.755   7.866   6.084  0.3363 -0.8547  0.9513
   84MOL     C220088   6.623   7.895   6.015  0.1536 -0.0403 -0.5970
   84MOL     C320089   6.512   7.861   6.118 -0.0097  0.1606  0.1858
   84MOL     O420090   6.415   7.797   6.084  0.6998  0.3191 -0.4198
   84MOL     O520091   6.540   7.904   6.244  0.4825 -0.8270  0.2406
   84MOL     C620092   6.445   7.874   6.349  0.0884  0.1954  0.2542
   84MOL     H720093   6.754   7.765   6.127  2.0583 -1.1683  0.3089
   84MOL     H820094   6.784   7.932   6.165  0.8052 -0.8893  0.8131
   84MOL     H920095   6.610   7.834   5.926 -2.9616 -0.2187 -0.1011
   84MOL    H1020096   6.342   7.907   6.335  0.0956  0.5505  0.9795
   84MOL    H1120097   6.477   7.924   6.441 -0.0433  0.1591  0.3198
   84MOL    H1220098   6.448   7.767   6.365  1.1582  0.1134 -0.4614
   84MOL    H1320099   6.828   7.878   6.004 -1.2333 -4.3514 -1.1588
   84MOL    C1420100   6.599   0.109   5.966  0.4076 -0.1990  0.4049
   84MOL    C1520101   6.655   0.128   5.832 -0.1559  0.7565 -0.0759
   84MOL    C1620102   6.576   0.069   5.712  0.1395 -0.1349 -1.0709
   84MOL    O1720103   6.477   7.925   5.726  0.5290 -0.1231 -0.2749
   84MOL    O1820104   6.638   0.079   5.593 -0.4249 -0.3158 -0.0513
   84MOL    C1920105   6.607   7.931   5.485  0.4808  0.0675  0.0549
   84MOL    H2020106   6.497   0.146   5.956  1.1065  1.3488 -1.1060
   84MOL    H2120107   6.656   0.169   6.037 -0.9543 -0.0998  1.4462
   84MOL    H2220108   6.746   0.069   5.842  0.5230  1.9593  1.0317
   84MOL    H2320109   6.692   7.917   5.419 -0.7867 -0.5962 -1.4725
   84MOL    H2420110   6.528   0.044   5.425 -0.2716  2.0836  2.4698
   84MOL    H2520111   6.582   7.833   5.523 -1.5285  0.6740  0.3507
   84MOL    C2620112   6.705   0.285   5.809  0.4025  0.2732 -0.4994
   84MOL    C2720113   6.856   0.300   5.799 -0.3677 -0.0424 -0.1231
   84MOL    C2820114   6.895   0.442   5.768  0.1539 -0.3395 -0.5206
   84MOL    O2920115   6.959   0.470   5.670  0.0685 -0.2492 -0.1188
   84MOL    O3020116   6.866   0.528   5.875  0.0687 -0.0065  0.3423
   84MOL    C3120117   6.900   0.665   5.875  0.6458 -0.0518 -0.5584
   84MOL    H3220118   6.663   0.312   5.712  0.2090  0.6015 -0.3230
   84MOL    H3320119   6.668   0.345   5.892 -0.2731  0.7111 -1.1091
   84MOL    H3420120   6.896   0.241   5.717 -1.6967  1.5203 -1.9561
   84MOL    H3520121   6.847   0.702   5.787  0.1436 -0.3021 -0.3652
   84MOL    H3620122   7.008   0.669   5.862  0.6799  0.9145 -0.0211
   84MOL    H3720123   6.868   0.711   5.968  0.3517  0.6431 -0.9975
   84MOL    C3820124   6.933   0.237   5.925  0.5061 -0.0088 -0.2951
   84MOL    C3920125   7.078   0.178   5.914  0.1359  0.0052 -0.7323
   84MOL    C4020126   7.181   0.295   5.899 -0.0530 -0.2514  0.0919
   84MOL    O4120127   7.236   0.347   5.998  0.0076 -0.3697 -0.2005
   84MOL    O4220128   7.189   0.334   5.777 -0.4584  0.4109 -0.0537
   84MOL    C4320129   7.282   0.433   5.732 -0.1087 -0.6002  0.2348
   84MOL    H4420130   6.930   0.296   6.016  0.1960  0.8208 -0.8372
   84MOL    H4520131   6.865   0.168   5.976  0.7079  0.6784  0.9170
   84MOL    H4620132   7.075   0.127   5.818 -0.3536 -0.6572 -0.3716
   84MOL    H4720133   7.236   0.520   5.685  3.1486 -0.2470 -2.4579
   84MOL    H4820134   7.359   0.402   5.662 -1.2133  1.8572 -2.1487
   84MOL    H4920135   7.334   0.481   5.815 -1.7750  2.1014 -0.2214
   84MOL    C5020136   7.120   0.087   6.031  0.2456 -0.1328  0.2283
   84MOL    C5120137   7.209   7.899   5.986  0.4855 -0.2969  0.0396
   84MOL    C5220138   7.348   0.013   5.931  0.5607  0.2140  0.3613
   84MOL    O5320139   7.386   7.922   5.813  0.2205  0.0950  0.4847
   84MOL    O5420140   7.420   0.079   6.025 -0.1675  0.0429 -0.0043
   84MOL    C5520141   7.552   0.111   5.983  0.5372 -0.2266 -0.4216
   84MOL    H5620142   7.172   0.140   6.111  2.6500 -0.1062 -1.2920
   84MOL    H5720143   7.031   0.048   6.081 -0.1670 -0.3979 -0.6890
   84MOL    H5820144   7.154   7.844   5.910 -1.4083  0.6909  0.6866
   84MOL    H5920145   7.619   0.026   5.998 -1.6135 -1.9529 -0.1675
   84MOL    H6020146   7.595   0.192   6.042  1.1355  0.0432 -1.2343
   84MOL    H6120147   7.563   0.147   5.881  0.7922  0.4784 -0.1457
   84MOL    C6220148   7.232   7.801   6.108 -0.2617  0.6268 -0.3013
   84MOL    C6320149   7.283   7.665   6.076  0.5162 -0.1098  1.0522
   84MOL    C6420150   7.311   7.582   6.199  0.4556 -0.2079 -0.1970
   84MOL    O6520151   7.296   7.620   6.314 -0.1244 -0.5108  0.1237
   84MOL    O6620152   7.381   7.467   6.171  0.3461 -0.0894  0.1193
   84MOL    C6720153   7.395   7.373   6.277 -0.4609  0.0656  0.4682
   84MOL    H6820154   7.302   7.847   6.177 -1.2364  0.6677  0.6637
   84MOL    H6920155   7.136   7.787   6.157  0.4695 -2.3598  0.3371
   84MOL    H7020156   7.388   7.662   6.044 -0.3750 -4.4231 -1.9771
   84MOL    H7120157   7.399   7.269   6.243 -3.0522 -0.6697  2.1937
   84MOL    H7220158   7.314   7.371   6.350 -0.2071 -0.6883  0.7324
   84MOL    H7320159   7.489   7.395   6.327 -0.6971 -1.1513  1.4842
   84MOL    C7420160   7.188   7.581   5.976 -0.4877 -0.3109  0.4426
   84MOL    C7520161   7.257   7.556   5.834  0.6944 -0.1070 -0.0814
   84MOL    C7620162   7.393   7.480   5.848 -0.0453 -0.0168  0.0496
   84MOL    O7720163   7.496   7.536   5.805 -0.0371  0.4944 -0.2768
   84MOL    O7820164   7.382   7.357   5.903  0.3862  0.0423 -0.4008
   84MOL    C7920165   7.499   7.273   5.908  0.4337 -0.5028  0.1999
   84MOL    H8020166   7.164   7.481   6.012 -2.4302 -1.0344 -2.5980
   84MOL    H8120167   7.090   7.628   5.969  0.3794  1.2909 -1.6694
   84MOL    H8220168   7.280   7.654   5.792  1.9346 -1.0101 -1.5364
   84MOL    H8320169   7.480   7.166   5.916 -1.4328 -0.3177 -1.3693
   84MOL    H8420170   7.580   7.307   5.972  1.7659 -1.0276 -1.1545
   84MOL    H8520171   7.544   7.279   5.808 -0.6194 -0.5843 -0.2890
   84MOL    C8620172   7.154   7.476   5.736 -0.5666  0.4185 -0.1590
   84MOL    C8720173   7.045   7.569   5.674 -0.2889 -0.0596  0.2179
   84MOL    C8820174   7.091   7.707   5.618 -0.1008 -0.5672  0.3739
   84MOL    O8920175   7.045   7.807   5.669  0.1178 -0.5122 -0.1960
   84MOL    O9020176   7.178   7.695   5.531  0.2869  0.5352 -0.1320
   84MOL    C9120177   7.240   7.806   5.483 -0.1442  0.3169  0.4006
   84MOL    H9220178   7.214   7.444   5.652  0.4106  2.5891 -0.3316
   84MOL    H9320179   7.108   7.386   5.777 -1.0373  0.9539  0.4967
   84MOL    H9420180   6.982   7.594   5.759 -0.9300  2.2772 -0.8972
   84MOL    H9520181   7.226   7.897   5.542  1.4241 -0.0162  1.3103
   84MOL    H9620182   7.199   7.836   5.387 -1.2612 -0.2006  0.7066
   84MOL    H9720183   7.347   7.790   5.477 -0.3378 -0.7254 -0.4227
   84MOL    C9820184   6.952   7.505   5.570 -0.8714 -0.2306  0.2601
   84MOL    C9920185   6.814   7.580   5.550  0.1052 -0.3435 -0.4197
   84MOL   C10020186   6.772   7.587   5.401  0.0764 -0.1784  0.3178
   84MOL   O10120187   6.845   7.559   5.306 -0.6178 -0.0111 -0.1244
   84MOL   O10220188   6.654   7.628   5.379  0.0016  0.1234 -0.0479
   84MOL   C10320189   6.611   7.659   5.248  0.7764  0.2495 -0.9631
   84MOL   H10420190   7.012   7.518   5.480  0.6563  0.8835  1.4083
   84MOL   H10520191   6.938   7.399   5.588  3.5905 -1.1911 -1.3006
   84MOL   H10620192   6.830   7.685   5.573  0.1077 -0.5639  0.6187
   84MOL   H10720193   6.537   7.739   5.248  1.0360  0.4907 -1.4929
   84MOL   H10820194   6.568   7.565   5.213 -0.1010  0.4046 -0.3242
   84MOL   H10920195   6.682   7.700   5.176  0.8593 -0.6570 -1.4131
   84MOL   C11020196   6.703   7.516   5.647 -0.7655  0.2771 -0.4826
   84MOL   C11120197   6.626   7.391   5.592  0.0681  0.2699  0.6227
   84MOL   C11220198   6.718   7.268   5.565 -0.1275  0.4591 -0.2904
   84MOL   O11320199   6.763   7.204   5.660 -0.2329  0.5882  0.1786
   84MOL   O11420200   6.750   7.256   5.442 -0.0315 -0.1767  0.3272
   84MOL   C11520201   6.849   7.160   5.409  0.1520  0.7684 -0.6426
   84MOL   H11620202   6.740   7.509   5.749  0.9496  0.7501 -1.0620
   84MOL   H11720203   6.634   7.601   5.643 -0.8074  0.2664  0.0393
   84MOL   H11820204   6.579   7.415   5.497 -0.1998 -0.3696  0.5901
   84MOL   H11920205   6.855   7.140   5.302  0.7681 -1.0580 -0.2913
   84MOL   H12020206   6.847   7.068   5.467 -1.3316  1.8906  1.1258
   84MOL   H12120207   6.944   7.203   5.442 -0.4254  2.2767 -0.9013
   84MOL   C12220208   6.501   7.363   5.675 -0.4608 -0.1624  0.4400
   84MOL   C12320209   6.373   7.361   5.583  0.8182  0.2978 -0.5852
   84MOL   C12420210   6.248   7.306   5.657 -0.4696 -0.0961 -0.2089
   84MOL   O12520211   6.180   7.384   5.732 -0.0788 -0.2288 -0.4816
   84MOL   O12620212   6.228   7.176   5.629 -0.0530 -0.5123  0.4667
   84MOL   C12720213   6.123   7.101   5.682  0.3612  0.3683 -0.4880
   84MOL   H12820214   6.504   7.268   5.728  1.0229 -0.8676 -0.8493
   84MOL   H12920215   6.481   7.433   5.756 -2.5224 -1.1340  0.8173
   84MOL   H13020216   6.390   7.287   5.505 -0.3160  0.7937 -1.3038
   84MOL   H13120217   6.024   7.137   5.654 -0.5419 -1.1324  0.6844
   84MOL   H13220218   6.130   7.124   5.789  0.8463 -2.5153  0.1232
   84MOL   H13320219   6.131   6.993   5.683 -1.7043  0.1983 -0.3378
   84MOL   C13420220   6.332   7.513   5.543  0.2658  0.8120  0.3014
   84MOL   C13520221   6.230   7.520   5.424 -0.1765  0.4364 -0.1638
   84MOL   C13620222   6.178   7.666   5.404 -0.1048 -0.0091  0.1452
   84MOL   O13720223   6.058   7.693   5.394 -0.2211  0.3713 -0.3739
   84MOL   O13820224   6.276   7.749   5.374 -0.2553  0.4428 -0.6533
   84MOL   C13920225   6.250   7.884   5.335 -0.0984  0.9185 -0.8035
   84MOL   H14020226   6.323   7.566   5.637  1.3546  2.3067 -0.4081
   84MOL   H14120227   6.423   7.558   5.503 -0.1535  1.1519 -0.2773
   84MOL   H14220228   6.141   7.463   5.449 -1.6712  2.6714 -0.2327
   84MOL   H14320229   6.191   7.899   5.245 -0.6351  0.0097 -0.6116
   84MOL   H14420230   6.342   0.009   5.330  0.9350 -0.7497 -1.8123
   84MOL   H14520231   6.197   0.002   5.415  0.8247  1.9384 -0.8246
   84MOL   C14620232   6.277   7.449   5.301  0.0328 -0.3319 -0.2105
   84MOL   C14720233   6.189   7.474   5.171 -0.9802  0.2285  0.4761
   84MOL   C14820234   6.278   7.467   5.046 -0.3115  0.2385  0.3861
   84MOL   O14920235   6.308   7.570   4.985 -0.2180  0.1149  0.2300
   84MOL   O15020236   6.333   7.344   5.017 -0.1631  0.4144 -0.4687
   84MOL   C15120237   6.403   7.327   4.895 -0.2108  0.9355  0.2310
   84MOL   H15220238   6.379   7.481   5.278 -0.0899  0.5546  0.4478
   84MOL   H15320239   6.287   7.342   5.320  1.1700 -0.1327  0.3717
   84MOL   H15420240   6.170   7.581   5.174  0.7488  0.6328 -1.5481
   84MOL   H15520241   6.474   7.403   4.864  0.8267 -0.4379 -0.8104
   84MOL   H15620242   6.346   7.311   4.803 -0.7629 -0.4439  0.7948
   84MOL   H15720243   6.472   7.244   4.908 -0.2472  1.0084  0.9078
   84MOL   C15820244   6.062   7.384   5.165 -0.2481  0.4586 -0.1787
   84MOL   C15920245   5.951   7.411   5.063 -0.7556  0.6101 -0.4867
   84MOL   C16020246   5.883   7.550   5.082 -0.0290 -0.0644 -0.2594
   84MOL   O16120247   5.783   7.574   5.147 -0.1191  0.1228 -0.1754
   84MOL   O16220248   5.967   7.644   5.023 -0.6486 -0.5633  0.6199
   84MOL   C16320249   5.981   7.778   5.057 -0.5325 -0.6059 -0.1010
   84MOL   H16420250   6.088   7.279   5.160 -1.4824  0.0929  0.7401
   84MOL   H16520251   6.014   7.398   5.262  1.0534 -1.5872  0.7837
   84MOL   H16620252   5.873   7.339   5.088 -0.5510  0.7689  0.6477
   84MOL   H16720253   5.904   7.843   5.014  1.4082  1.0487 -1.1926
   84MOL   H16820254   6.080   7.813   5.029 -0.4970 -0.6679 -0.0527
   84MOL   H16920255   5.975   7.772   5.165 -0.8719  1.4391  0.0128
   84MOL   C17020256   5.992   7.374   4.913  0.4665  0.7370 -0.2732
   84MOL   C17120257   5.865   7.344   4.818 -1.1356 -0.2391 -0.9782
   84MOL   C17220258   5.816   7.475   4.755 -0.0681  0.0026  0.0773
   84MOL   O17320259   5.869   7.525   4.654  0.5058  0.0896  0.0618
   84MOL   O17420260   5.707   7.524   4.817  0.7881 -1.0920 -0.1116
   84MOL   C17520261   5.661   7.653   4.777 -0.3725  0.2943  0.6690
   84MOL   H17620262   6.056   7.454   4.876 -2.4509  3.5655  0.5875
   84MOL   H17720263   6.048   7.281   4.925  1.4848  1.2705 -0.7702
   84MOL   H17820264   5.776   7.312   4.872 -0.8073 -1.2257 -1.0097
   84MOL   H17920265   5.560   7.666   4.815  0.3426 -1.0100  3.1714
   84MOL   H18020266   5.664   7.653   4.668  1.0828 -0.4477  0.6990
   84MOL   H18120267   5.723   7.738   4.806  0.4514  0.4105 -1.3692
   84MOL   C18220268   5.909   7.236   4.713 -0.3473  0.1964  0.3264
   84MOL   C18320269   5.809   7.210   4.592  0.8627 -0.4668 -0.1723
   84MOL   C18420270   5.870   7.158   4.466 -0.0652 -0.6749  0.2268
   84MOL   O18520271   5.987   7.125   4.460 -0.0223 -0.3086  0.2233
   84MOL   O18620272   5.787   7.140   4.364  0.4010 -0.0461  0.1032
   84MOL   C18720273   5.839   7.119   4.231  0.1182 -1.0660 -1.0336
   84MOL   H18820274   6.003   7.269   4.669 -0.7437 -1.6611 -2.0313
   84MOL   H18920275   5.934   7.149   4.774 -1.9684  0.0234  0.7723
   84MOL   H19020276   5.774   7.307   4.555  1.2887  0.6310  2.2605
   84MOL   H19120277   5.932   7.175   4.218 -2.1261  2.8109 -0.8391
   84MOL   H19220278   5.777   7.118   4.142  1.3448  1.6176 -1.9687
   84MOL   H19320279   5.869   7.014   4.240  0.2654 -1.0822 -1.7242
   84MOL   C19420280   5.687   7.115   4.634 -0.6853 -0.1730 -0.0073
   84MOL   C19520281   5.549   7.183   4.646  0.3146  0.0840  0.1549
   84MOL   C19620282   5.500   7.246   4.518  0.5841 -0.4491 -0.2841
   84MOL   O19720283   5.495   7.371   4.504 -0.8478  0.4377 -0.4151
   84MOL   O19820284   5.458   7.153   4.426 -0.1199 -0.3524 -0.1083
   84MOL   C19920285   5.403   7.188   4.306 -0.3945 -0.3985 -0.5917
   84MOL   H20020286   5.693   7.024   4.575 -1.0425 -0.5186  0.4800
   84MOL   H20120287   5.701   7.077   4.735 -0.2679  0.1571  0.0579
   84MOL   H20220288   5.560   7.270   4.711  0.8576  0.9929 -1.1272
   84MOL   H20320289   5.473   7.235   4.236  0.4942 -2.2439 -0.9713
   84MOL   H20420290   5.318   7.254   4.322  0.0595 -0.2226  1.1667
   84MOL   H20520291   5.353   7.106   4.255  0.5406 -0.1420 -1.9442
   84MOL   C20620292   5.435   7.108   4.724  0.5605  0.1252 -0.5326
   84MOL   C20720293   5.458   7.050   4.869 -0.2941 -0.3698  0.4777
   84MOL   C20820294   5.526   7.150   4.962  0.3247  0.1932 -0.9974
   84MOL   O20920295   5.637   7.124   5.007 -0.1861  0.0590  0.1452
   84MOL   O21020296   5.462   7.263   4.991  0.4876 -0.1788  0.0326
   84MOL   C21120297   5.514   7.353   5.077  0.2011 -0.2924  0.1067
   84MOL   H21220298   5.339   7.157   4.737  0.7742  0.4345 -0.1421
   84MOL   H21320299   5.394   7.028   4.663 -0.9804 -0.0589  0.7332
   84MOL   H21420300   5.534   6.972   4.864 -0.4770 -0.5827  0.9994
   84MOL   H21520301   5.554   7.306   5.167  0.0867  0.6145  0.6378
   84MOL   H21620302   5.430   7.417   5.102 -0.0038 -1.3311  2.2368
   84MOL   H21720303   5.583   7.422   5.030 -2.0278  1.0763 -1.2495
   84MOL   C21820304   5.334   6.982   4.930  0.3104 -0.1042  0.2608
   84MOL   C21920305   5.279   6.862   4.845  0.7239  0.7161 -0.1748
   84MOL   C22020306   5.382   6.751   4.834 -0.4510 -0.0045  0.5876
   84MOL   O22120307   5.451   6.736   4.733 -0.0806 -0.2383 -0.0370
   84MOL   O22220308   5.402   6.684   4.951 -0.0561  0.6324 -0.3856
   84MOL   C22320309   5.503   6.578   4.954 -0.2766 -0.2365  0.9058
   84MOL   H22420310   5.342   6.935   5.028  1.4181 -1.9813 -0.6953
   84MOL   H22520311   5.256   7.058   4.933  0.1996 -0.1203 -1.3338
   84MOL   H22620312   5.248   6.890   4.744  1.1311  1.4620 -0.0934
   84MOL   H22720313   5.517   6.535   5.053 -0.3021  0.9811  1.4492
   84MOL   H22820314   5.599   6.615   4.918  0.0516 -0.6627  1.3539
   84MOL   H22920315   5.475   6.496   4.888 -0.6936  1.5431 -1.2085
   84MOL   C23020316   5.142   6.813   4.899 -0.2398  0.0513 -0.1333
   84MOL   C23120317   5.067   6.708   4.816  0.2640 -0.0243  0.0712
   84MOL   C23220318   4.933   6.674   4.877 -0.5216  0.1445  0.3939
   84MOL   O23320319   4.883   6.742   4.968 -0.4414 -0.3427 -0.3856
   84MOL   O23420320   4.890   6.555   4.841  0.2255 -0.0677 -0.0650
   84MOL   C23520321   4.771   6.503   4.905  0.3288  0.0059  0.6931
   84MOL   H23620322   5.140   6.795   5.007 -0.3220  0.6238 -0.0390
   84MOL   H23720323   5.073   6.897   4.900  1.6251  1.5973 -0.1816
   84MOL   H23820324   5.120   6.612   4.821  1.3261  0.5699  0.4970
   84MOL   H23920325   4.774   6.394   4.898 -2.5969 -0.0024 -1.0851
   84MOL   H24020326   4.679   6.541   4.861 -0.2422 -1.5407  0.5345
   84MOL   H24120327   4.781   6.532   5.010  0.5240  0.3989  0.5664
   84MOL   H24220328   5.070   6.735   4.710  0.6995  0.7414  0.2798
   85MOL     C120329   6.554   3.079   1.178  0.2528 -0.5547  0.1462
   85MOL     C220330   6.488   3.161   1.072 -0.0172 -0.0609 -0.0667
   85MOL     C320331   6.559   3.170   0.941  0.4599  0.6153 -0.3288
   85MOL     O420332   6.649   3.246   0.919  0.7158  0.1333 -0.3631
   85MOL     O520333   6.509   3.085   0.843 -0.4316 -0.4698 -0.0359
   85MOL     C620334   6.562   3.073   0.716  0.2414  0.0781  0.2571
   85MOL     H720335   6.527   3.129   1.271 -0.5723  1.5344 -1.1814
   85MOL     H820336   6.661   3.098   1.177  0.0119  0.8350 -0.6582
   85MOL     H920337   6.501   3.264   1.103  1.0291  0.5668 -2.4636
   85MOL    H1020338   6.481   3.070   0.643  0.3851 -2.3035  0.1491
   85MOL    H1120339   6.609   2.975   0.722  0.7448  0.3896  1.5635
   85MOL    H1220340   6.634   3.150   0.688 -0.9416  0.7753 -0.8880
   85MOL    H1320341   6.530   2.972   1.177 -0.3341 -0.4470  1.4560
   85MOL    C1420342   6.334   3.142   1.063  0.0921  0.2231 -0.7102
   85MOL    C1520343   6.246   3.213   1.169 -1.1912 -0.6621  0.2292
   85MOL    C1620344   6.233   3.368   1.145 -0.2680  0.1182 -0.7120
   85MOL    O1720345   6.293   3.430   1.059  0.4073  0.3071  0.5949
   85MOL    O1820346   6.150   3.421   1.233 -0.2660 -0.0938  0.2756
   85MOL    C1920347   6.143   3.561   1.259  0.6343  0.4555  0.3021
   85MOL    H2020348   6.295   3.157   0.962  3.5914  0.1807 -2.1320
   85MOL    H2120349   6.335   3.037   1.092  0.9393  1.3699  3.7066
   85MOL    H2220350   6.301   3.198   1.262 -0.1961  0.7592 -0.1151
   85MOL    H2320351   6.131   3.574   1.366  0.2539  0.1996  0.2922
   85MOL    H2420352   6.053   3.588   1.204 -0.4607 -0.0592  1.8345
   85MOL    H2520353   6.234   3.613   1.227  1.1840 -0.7564 -0.1762
   85MOL    C2620354   6.103   3.153   1.185  1.0942  0.6597  0.0082
   85MOL    C2720355   5.999   3.129   1.069 -0.0833  0.2680  0.6246
   85MOL    C2820356   6.003   2.980   1.023  0.9168 -0.4776  0.0459
   85MOL    O2920357   5.921   2.894   1.055  0.5174 -0.1322 -0.1611
   85MOL    O3020358   6.122   2.953   0.962  0.3798  0.1065 -0.2698
   85MOL    C3120359   6.143   2.817   0.931  1.1661 -0.4430 -0.1144
   85MOL    H3220360   6.127   3.061   1.237 -1.7421  0.4839  1.1037
   85MOL    H3320361   6.045   3.197   1.266 -0.8206  1.3672 -1.7079
   85MOL    H3420362   6.020   3.193   0.983 -0.6434 -0.3743 -0.0011
   85MOL    H3520363   6.249   2.809   0.909  1.3120  2.5126 -0.6991
   85MOL    H3620364   6.092   2.797   0.837  0.9711  0.2417 -0.1529
   85MOL    H3720365   6.094   2.749   1.001  0.9197  0.5180  0.6679
   85MOL    C3820366   5.861   3.170   1.121  0.1652 -0.1796  0.0460
   85MOL    C3920367   5.830   3.321   1.145 -0.5486  0.2924  0.2536
   85MOL    C4020368   5.824   3.396   1.015 -0.3417 -0.8305  0.4777
   85MOL    O4120369   5.883   3.504   0.996 -0.4395 -0.0914  0.6390
   85MOL    O4220370   5.737   3.349   0.931 -0.7074  0.0430  0.3421
   85MOL    C4320371   5.756   3.378   0.793  0.3600  0.0981 -0.1223
   85MOL    H4420372   5.787   3.120   1.058 -0.2857 -0.1797  0.5717
   85MOL    H4520373   5.855   3.109   1.211  1.0335 -0.5003 -0.1046
   85MOL    H4620374   5.914   3.356   1.205 -0.3975  2.2635 -1.0592
   85MOL    H4720375   5.741   3.483   0.771 -1.3055  0.0659  0.7775
   85MOL    H4820376   5.684   3.326   0.730 -0.2715  1.5465 -0.5966
   85MOL    H4920377   5.854   3.339   0.765  0.9379  1.2185  0.3171
   85MOL    C5020378   5.694   3.338   1.221 -0.5959  0.1551  0.3605
   85MOL    C5120379   5.720   3.379   1.371  0.0771 -0.0036 -0.1760
   85MOL    C5220380   5.768   3.524   1.387 -0.5494 -0.0273  0.2001
   85MOL    O5320381   5.872   3.545   1.438  0.0339  0.1864  0.3507
   85MOL    O5420382   5.680   3.606   1.342 -0.2916  0.3817 -0.0441
   85MOL    C5520383   5.697   3.748   1.350 -0.2320  0.0060  0.3550
   85MOL    H5620384   5.620   3.409   1.184 -0.4383 -0.4143 -1.0860
   85MOL    H5720385   5.648   3.240   1.208  0.0617  0.0424 -1.2540
   85MOL    H5820386   5.804   3.317   1.401  1.7343  2.0100 -0.5788
   85MOL    H5920387   5.801   3.780   1.343 -0.5616  0.7277 -1.4936
   85MOL    H6020388   5.661   3.780   1.448  2.0788 -0.5790  1.4328
   85MOL    H6120389   5.639   3.804   1.278 -0.3823  0.5955  0.9311
   85MOL    C6220390   5.602   3.356   1.469 -0.9191  0.5427  0.4806
   85MOL    C6320391   5.578   3.203   1.510 -0.7386 -0.1567 -0.0027
   85MOL    C6420392   5.706   3.135   1.565 -0.3205  0.2940  0.6442
   85MOL    O6520393   5.780   3.058   1.501 -0.1096 -0.3053 -0.0651
   85MOL    O6620394   5.730   3.157   1.693  0.3302  0.4565  0.0553
   85MOL    C6720395   5.836   3.094   1.760 -0.8756  0.2572  0.1426
   85MOL    H6820396   5.609   3.414   1.561 -2.4357 -0.9895  1.5994
   85MOL    H6920397   5.509   3.388   1.423 -2.2212 -2.4631  0.8633
   85MOL    H7020398   5.566   3.147   1.418  1.0683 -0.9210  0.2148
   85MOL    H7120399   5.846   2.987   1.741  0.0217  0.8424 -2.9410
   85MOL    H7220400   5.822   3.116   1.866 -0.2154  0.4177  0.2027
   85MOL    H7320401   5.937   3.133   1.745 -0.7156 -0.1632  0.0917
   85MOL    C7420402   5.454   3.175   1.603 -0.5002  0.2412  0.1921
   85MOL    C7520403   5.370   3.050   1.567 -0.0617 -0.6793 -0.3675
   85MOL    C7620404   5.441   2.927   1.626 -0.5846 -0.3014 -0.0038
   85MOL    O7720405   5.426   2.897   1.742 -0.1733  0.4055 -0.4633
   85MOL    O7820406   5.519   2.870   1.539  0.2192  0.5166  0.3672
   85MOL    C7920407   5.603   2.757   1.574  0.1896 -0.5945  0.0643
   85MOL    H8020408   5.482   3.167   1.707  0.2326 -2.3976 -0.1776
   85MOL    H8120409   5.383   3.258   1.603 -0.9764 -0.1504 -0.3810
   85MOL    H8220410   5.367   3.051   1.458  0.8741  0.4240 -0.3921
   85MOL    H8320411   5.537   2.682   1.618 -0.4613  0.0826  0.2331
   85MOL    H8420412   5.674   2.785   1.652  0.0074  1.1302 -0.3745
   85MOL    H8520413   5.663   2.700   1.502  1.3324  0.5024  0.1258
   85MOL    C8620414   5.218   3.059   1.618 -0.8691  0.0081  0.6463
   85MOL    C8720415   5.139   3.165   1.538 -0.5698 -0.0079  0.2729
   85MOL    C8820416   5.056   3.099   1.425 -0.2122  0.1828 -0.5221
   85MOL    O8920417   5.054   3.144   1.310  0.5439 -0.3413 -0.1680
   85MOL    O9020418   4.978   2.996   1.466 -0.1144 -0.2965  0.3525
   85MOL    C9120419   4.915   2.912   1.368  0.1479  0.1145  0.0356
   85MOL    H9220420   5.171   2.961   1.625 -0.3129 -0.4176 -1.2648
   85MOL    H9320421   5.224   3.095   1.721 -1.3103 -1.0039  1.0308
   85MOL    H9420422   5.214   3.236   1.504 -0.5629 -1.1954 -2.2717
   85MOL    H9520423   4.851   2.840   1.420  0.3113 -0.3140 -0.3597
   85MOL    H9620424   4.993   2.871   1.304 -0.3151 -1.4266  0.4225
   85MOL    H9720425   4.847   2.975   1.311  0.0330  0.2205  0.2887
   85MOL    C9820426   5.055   3.252   1.640 -0.0429 -0.1002 -0.4817
   85MOL    C9920427   4.992   3.389   1.603 -0.1422  0.3213  0.4538
   85MOL   C10020428   4.875   3.415   1.697  0.0614 -0.4041 -0.0871
   85MOL   O10120429   4.761   3.446   1.660 -0.0920 -0.6851 -0.2269
   85MOL   O10220430   4.911   3.394   1.829  0.3528  0.2108 -0.8120
   85MOL   C10320431   4.814   3.414   1.926 -1.1418 -0.7766 -0.4433
   85MOL   H10420432   4.985   3.175   1.673  0.2370  0.1223  0.6753
   85MOL   H10520433   5.103   3.278   1.735 -0.2031  1.6431 -0.8563
   85MOL   H10620434   4.944   3.379   1.505  1.5960  1.2922 -0.5386
   85MOL   H10720435   4.774   3.514   1.909 -1.4452 -0.6122  1.1925
   85MOL   H10820436   4.863   3.410   2.023 -0.0846  2.1576 -0.7853
   85MOL   H10920437   4.731   3.345   1.932 -1.0073 -0.8719  0.4173
   85MOL   C11020438   5.089   3.510   1.602 -0.1060 -0.0560  0.0747
   85MOL   C11120439   5.035   3.636   1.517 -0.5129  0.1338  0.5051
   85MOL   C11220440   4.941   3.725   1.610 -0.4819 -0.8508  0.3794
   85MOL   O11320441   4.942   3.721   1.738  0.3165  0.1595 -0.0294
   85MOL   O11420442   4.863   3.804   1.535  0.0643  0.2381  0.0585
   85MOL   C11520443   4.732   3.819   1.579  1.1759  1.1290 -0.4966
   85MOL   H11620444   5.110   3.532   1.707 -2.3663 -0.7818  0.7139
   85MOL   H11720445   5.183   3.472   1.563  1.6607  1.8314  2.3713
   85MOL   H11820446   4.977   3.603   1.432 -1.4275  3.4030 -0.2076
   85MOL   H11920447   4.682   3.874   1.499  0.4390 -1.1823 -1.6657
   85MOL   H12020448   4.719   3.875   1.672  4.8574  1.1280  0.0725
   85MOL   H12120449   4.692   3.718   1.583 -2.9710  2.6490 -0.0329
   85MOL   C12220450   5.149   3.722   1.458  0.1890 -0.4629 -0.5915
   85MOL   C12320451   5.243   3.803   1.554  0.0667  1.1425  0.6610
   85MOL   C12420452   5.345   3.714   1.624 -0.2513  0.2369  0.2667
   85MOL   O12520453   5.402   3.624   1.565  0.8652 -0.6198  0.6021
   85MOL   O12620454   5.374   3.742   1.752  0.1515 -0.2013 -0.4127
   85MOL   C12720455   5.491   3.685   1.813 -0.3675  0.5141 -0.6945
   85MOL   H12820456   5.207   3.661   1.388  0.4019  0.6189 -1.3618
   85MOL   H12920457   5.107   3.795   1.389 -1.5852 -1.1201 -0.2389
   85MOL   H13020458   5.192   3.847   1.641  0.0670  0.0841  1.2041
   85MOL   H13120459   5.491   3.577   1.796 -0.9147  0.3136  0.5312
   85MOL   H13220460   5.495   3.675   1.922  3.0234 -0.3400 -0.8372
   85MOL   H13320461   5.583   3.716   1.764  0.8195 -3.7328 -1.3650
   85MOL   C13420462   5.319   3.928   1.500  0.5007  0.2551 -0.5017
   85MOL   C13520463   5.222   4.043   1.459 -0.0405 -0.1878  0.3802
   85MOL   C13620464   5.131   4.090   1.574  0.7661 -0.3002 -0.3190
   85MOL   O13720465   5.008   4.068   1.586  0.6832  0.5139  0.2791
   85MOL   O13820466   5.198   4.155   1.671 -0.0809 -0.5351 -0.2442
   85MOL   C13920467   5.121   4.222   1.772  0.1448  0.0730  0.3324
   85MOL   H14020468   5.390   3.968   1.573  1.4196  0.5146 -1.5236
   85MOL   H14120469   5.390   3.895   1.424  1.4007  1.3408 -0.1436
   85MOL   H14220470   5.156   4.007   1.380  2.1117  0.9128 -1.9896
   85MOL   H14320471   5.078   4.162   1.852  1.4040 -1.1107  0.1496
   85MOL   H14420472   5.028   4.273   1.747  0.4661 -0.1786 -1.4020
   85MOL   H14520473   5.176   4.302   1.821 -0.8019  2.2875 -2.0891
   85MOL   C14620474   5.298   4.163   1.390  0.0180 -0.0349 -0.3555
   85MOL   C14720475   5.235   4.210   1.258  0.2647 -0.1850  0.1628
   85MOL   C14820476   5.097   4.281   1.282 -0.1949  0.0988 -0.2732
   85MOL   O14920477   5.078   4.359   1.374  0.7607 -0.5087 -0.1098
   85MOL   O15020478   5.019   4.270   1.177  0.0422 -0.4684  0.6333
   85MOL   C15120479   4.893   4.332   1.174  0.6835  0.3346 -0.2697
   85MOL   H15220480   5.308   4.244   1.462 -4.3028  0.7424 -0.4911
   85MOL   H15320481   5.403   4.134   1.377  0.6345  1.2867  1.5233
   85MOL   H15420482   5.205   4.126   1.196  0.1767  0.3286 -0.5005
   85MOL   H15520483   4.851   4.308   1.076  0.9241 -1.6279  0.0832
   85MOL   H15620484   4.891   4.441   1.177  0.0179  0.2982  1.4968
   85MOL   H15720485   4.823   4.290   1.247  0.6139 -0.7591 -0.9519
   85MOL   C15820486   5.329   4.296   1.163 -0.2890 -0.4122  0.3587
   85MOL   C15920487   5.361   4.223   1.027 -0.1810  0.8438 -0.4412
   85MOL   C16020488   5.248   4.183   0.933  0.1903  0.1171  0.4709
   85MOL   O16120489   5.219   4.067   0.896  0.2444 -0.2221 -0.3612
   85MOL   O16220490   5.178   4.290   0.894  0.2996  0.4404 -0.3098
   85MOL   C16320491   5.048   4.272   0.845 -0.1301 -0.2819 -0.0651
   85MOL   H16420492   5.269   4.383   1.138  0.0616 -0.6047 -1.1853
   85MOL   H16520493   5.414   4.348   1.205 -2.1538  0.6140  3.0039
   85MOL   H16620494   5.405   4.130   1.064 -0.5039  1.3068  1.1251
   85MOL   H16720495   5.007   4.369   0.817  0.3844 -0.4759 -1.5219
   85MOL   H16820496   4.990   4.229   0.927  1.2414 -2.2126 -0.0813
   85MOL   H16920497   5.037   4.206   0.758  0.6032  0.9442 -1.0993
   85MOL   C17020498   5.474   4.290   0.948 -0.2353 -0.3579  0.7047
   85MOL   C17120499   5.531   4.218   0.816 -0.2162  0.0344  0.5110
   85MOL   C17220500   5.489   4.294   0.694  0.2366 -0.0262  0.1118
   85MOL   O17320501   5.579   4.340   0.619 -0.4378  0.1888  0.5374
   85MOL   O17420502   5.358   4.291   0.670 -0.5970 -0.1260  0.0032
   85MOL   C17520503   5.300   4.370   0.566  0.4524 -0.4844 -0.2368
   85MOL   H17620504   5.443   4.390   0.919 -1.2789 -0.9673 -0.3201
   85MOL   H17720505   5.550   4.305   1.025 -1.2479 -0.7836  1.7963
   85MOL   H17820506   5.470   4.128   0.806  0.7695 -0.8041  1.9559
   85MOL   H17920507   5.304   4.473   0.601 -0.7347 -0.6928  0.5282
   85MOL   H18020508   5.198   4.337   0.545  0.2720 -0.0490 -0.0500
   85MOL   H18120509   5.348   4.351   0.470  0.7284  2.8369 -0.8000
   85MOL   C18220510   5.678   4.180   0.820 -0.0659  0.4774  0.6531
   85MOL   C18320511   5.718   4.104   0.952 -0.1814  0.1293  0.0279
   85MOL   C18420512   5.646   3.972   0.976  0.8488  0.3299  0.2535
   85MOL   O18520513   5.580   3.955   1.081  0.3233 -0.0575  0.0971
   85MOL   O18620514   5.675   3.882   0.873 -0.5147 -0.6586  0.2428
   85MOL   C18720515   5.655   3.744   0.886  0.7002  0.5440  0.8784
   85MOL   H18820516   5.704   4.118   0.734 -0.3102 -0.0369  0.9477
   85MOL   H18920517   5.741   4.268   0.811  1.6219 -0.7941 -0.5196
   85MOL   H19020518   5.691   4.164   1.039 -2.8499  1.3821 -1.5731
   85MOL   H19120519   5.655   3.697   0.788 -1.9884  0.4628  0.8834
   85MOL   H19220520   5.557   3.731   0.932 -0.7917  1.7358 -1.8661
   85MOL   H19320521   5.721   3.695   0.959 -0.2714  1.3839  2.3487
   85MOL   C19420522   5.872   4.092   0.943 -0.8853 -0.5109 -0.4659
   85MOL   C19520523   5.946   4.048   1.072  0.6327 -0.0922 -0.4672
   85MOL   C19620524   6.091   4.020   1.030  0.0699 -0.5450  0.5934
   85MOL   O19720525   6.171   4.115   1.010  0.2651 -0.4425  0.4386
   85MOL   O19820526   6.126   3.893   1.040 -0.7350 -0.0257  0.3975
   85MOL   C19920527   6.256   3.850   1.011  0.3070 -0.2378 -0.0353
   85MOL   H20020528   5.899   4.035   0.854  1.4669 -0.7599  0.3729
   85MOL   H20120529   5.922   4.186   0.918  1.4735 -2.0501 -1.8119
   85MOL   H20220530   5.904   3.958   1.116  0.6986  0.8759  1.6460
   85MOL   H20320531   6.331   3.872   1.087 -1.4982  0.2512  1.6453
   85MOL   H20420532   6.283   3.896   0.916 -0.7073 -1.2687 -0.8314
   85MOL   H20520533   6.251   3.742   0.993 -1.4127  0.2045 -2.4049
   85MOL   C20620534   5.941   4.141   1.192 -0.1674  0.5549  0.4212
   85MOL   C20720535   5.927   4.071   1.328 -0.1078 -0.6088 -0.5858
   85MOL   C20820536   6.049   3.982   1.358  0.1981  0.2022  0.3323
   85MOL   O20920537   6.040   3.864   1.375 -0.5212 -0.1721 -0.1008
   85MOL   O21020538   6.168   4.046   1.368  0.6128 -0.4970 -0.3120
   85MOL   C21120539   6.292   3.969   1.361  0.6914  0.1370 -0.0054
   85MOL   H21220540   6.031   4.202   1.200 -1.0450  1.6540  2.4077
   85MOL   H21320541   5.860   4.214   1.182  1.4857  2.6069  1.6954
   85MOL   H21420542   5.850   3.995   1.338 -1.4483  1.0520  2.3874
   85MOL   H21520543   6.334   3.969   1.261  2.3555  1.5328  0.6582
   85MOL   H21620544   6.275   3.868   1.398  3.3637  0.1491  1.3533
   85MOL   H21720545   6.367   4.021   1.421  0.4216 -1.6853  1.9269
   85MOL   C21820546   5.919   4.187   1.441  0.2696  0.2552  0.4079
   85MOL   C21920547   5.788   4.200   1.529  0.2698 -0.5107  0.2704
   85MOL   C22020548   5.747   4.063   1.573  0.0571  0.0212  0.2743
   85MOL   O22120549   5.646   4.005   1.522 -0.3752 -0.3008  0.1025
   85MOL   O22220550   5.828   4.011   1.661  0.6085 -0.3741 -0.5239
   85MOL   C22320551   5.809   3.872   1.701 -0.2635 -0.0014 -0.0918
   85MOL   H22420552   6.008   4.180   1.504 -0.3873 -0.4535  1.2645
   85MOL   H22520553   5.931   4.279   1.384  1.9502 -0.9325 -1.2433
   85MOL   H22620554   5.708   4.244   1.469  0.4989  0.5134  0.7198
   85MOL   H22720555   5.790   3.876   1.808 -2.3998 -0.6785 -0.4193
   85MOL   H22820556   5.906   3.823   1.695  0.2342  0.7772  1.3871
   85MOL   H22920557   5.735   3.817   1.641 -0.7314 -0.2603  0.7168
   85MOL   C23020558   5.796   4.301   1.650 -0.3964 -0.8645  0.3873
   85MOL   C23120559   5.665   4.334   1.728  0.4373  0.2997 -0.2160
   85MOL   C23220560   5.566   4.412   1.643  0.1057 -0.3860  0.8706
   85MOL   O23320561   5.591   4.451   1.527 -0.1066  0.7207  0.5567
   85MOL   O23420562   5.449   4.442   1.711  0.5673 -0.2782 -0.1899
   85MOL   C23520563   5.354   4.519   1.641 -0.8020  0.3176  0.3057
   85MOL   H23620564   5.868   4.266   1.724  0.6546  2.4955  1.0657
   85MOL   H23720565   5.851   4.389   1.618  0.0475 -1.6996 -1.1915
   85MOL   H23820566   5.686   4.394   1.817  1.3808 -1.0201  0.4725
   85MOL   H23920567   5.355   4.491   1.536 -1.7531  3.0622 -0.4738
   85MOL   H24020568   5.367   4.627   1.647 -0.7564  0.4786 -2.0981
   85MOL   H24120569   5.250   4.500   1.665 -1.2202  1.0239 -0.9303
   85MOL   H24220570   5.614   4.241   1.752 -1.0463  1.4114  1.0371
   86MOL     C120571   6.504   4.370   2.221  0.9650  0.1427 -0.3492
   86MOL     C220572   6.646   4.321   2.179  0.1961  0.1706 -0.1265
   86MOL     C320573   6.748   4.308   2.292  0.1355  0.3704 -0.6962
   86MOL     O420574   6.820   4.208   2.291  0.3437  0.1210 -0.1337
   86MOL     O520575   6.759   4.407   2.373 -0.0759 -0.0763 -0.5292
   86MOL     C620576   6.845   4.399   2.486  0.0477 -0.0805  0.3688
   86MOL     H720577   6.501   4.468   2.269  1.2367  0.9973 -2.0702
   86MOL     H820578   6.455   4.295   2.284  2.0699  0.6255  1.1017
   86MOL     H920579   6.683   4.399   2.111  1.0964 -1.7657 -1.9376
   86MOL    H1020580   6.813   4.490   2.537  0.4775  0.3737 -0.1671
   86MOL    H1120581   6.951   4.410   2.463  0.3062  0.5554  1.8011
   86MOL    H1220582   6.829   4.314   2.552  3.1777 -0.5114  0.6432
   86MOL    H1320583   6.440   4.391   2.135 -0.0836  1.8965  0.8381
   86MOL    C1420584   6.623   4.200   2.086  0.0623 -0.4738  0.1695
   86MOL    C1520585   6.731   4.153   1.990  0.1823 -0.1556 -0.2765
   86MOL    C1620586   6.746   3.995   1.988 -0.2510 -0.2359 -0.2330
   86MOL    O1720587   6.855   3.941   2.002 -0.3758 -0.1662 -0.3787
   86MOL    O1820588   6.631   3.940   1.958 -0.3785 -0.4035  0.4773
   86MOL    C1920589   6.626   3.806   1.978  0.4325  0.4580 -0.2041
   86MOL    H2020590   6.592   4.123   2.156 -1.8051 -0.7624 -0.9359
   86MOL    H2120591   6.536   4.221   2.023  0.5534  1.3916  0.0615
   86MOL    H2220592   6.819   4.193   2.040 -0.9688  1.0212  0.8900
   86MOL    H2320593   6.656   3.746   1.892 -0.7913  0.3265 -0.5564
   86MOL    H2420594   6.526   3.763   1.981  0.9381 -0.6758  0.5666
   86MOL    H2520595   6.686   3.782   2.066  0.9442  0.6141 -0.5081
   86MOL    C2620596   6.717   4.230   1.848  0.3045  0.0202  0.1111
   86MOL    C2720597   6.824   4.192   1.748  0.2096  0.5418 -0.2799
   86MOL    C2820598   6.767   4.145   1.616  0.0979 -0.2145  0.5387
   86MOL    O2920599   6.817   4.052   1.558 -0.8065 -0.1753 -0.6546
   86MOL    O3020600   6.666   4.220   1.567  0.6458  0.3687  0.6033
   86MOL    C3120601   6.612   4.188   1.439 -0.3221 -0.2110 -0.2902
   86MOL    H3220602   6.616   4.210   1.813  0.5545  0.3342 -0.8009
   86MOL    H3320603   6.716   4.339   1.854  0.6607  0.0322 -0.0796
   86MOL    H3420604   6.874   4.101   1.781  0.2018  0.3770 -0.7080
   86MOL    H3520605   6.690   4.162   1.368  0.4061 -0.7027  0.6782
   86MOL    H3620606   6.555   4.269   1.392  0.2930  0.9739  1.0001
   86MOL    H3720607   6.545   4.102   1.443  0.1072 -0.5697 -0.7031
   86MOL    C3820608   6.942   4.294   1.732 -0.5837  0.4407  0.0253
   86MOL    C3920609   7.062   4.302   1.835  0.9607  0.1057 -1.0840
   86MOL    C4020610   7.030   4.391   1.960 -0.3606  0.3265  0.0128
   86MOL    O4120611   6.916   4.446   1.977 -0.6315  0.2667 -0.0066
   86MOL    O4220612   7.138   4.390   2.046  0.7181  0.8101 -0.2281
   86MOL    C4320613   7.122   4.425   2.186 -0.7458  0.1407  0.0168
   86MOL    H4420614   6.992   4.268   1.639 -0.2584 -0.1376  0.3540
   86MOL    H4520615   6.909   4.396   1.713 -0.3929  1.1310  3.0576
   86MOL    H4620616   7.140   4.364   1.791  0.3606  1.1343 -0.7170
   86MOL    H4720617   7.102   4.530   2.208 -0.3104  0.7491 -2.3436
   86MOL    H4820618   7.208   4.402   2.249  1.3026  2.1004 -1.9707
   86MOL    H4920619   7.036   4.367   2.219 -3.3616  2.1449 -3.0191
   86MOL    C5020620   7.132   4.174   1.890  0.8328 -0.4492  0.0532
   86MOL    C5120621   7.157   4.056   1.796  0.4103  0.1887  0.2128
   86MOL    C5220622   7.232   4.108   1.678  0.1612  0.1070 -0.4031
   86MOL    O5320623   7.205   4.076   1.563  0.0530 -0.4302  0.4242
   86MOL    O5420624   7.342   4.171   1.711 -0.5174 -0.7134 -0.3766
   86MOL    C5520625   7.405   4.260   1.620 -0.2050 -0.9277 -0.1701
   86MOL    H5620626   7.228   4.193   1.937  0.3301 -2.7039  2.1455
   86MOL    H5720627   7.071   4.130   1.969  0.5996 -0.7781 -0.3083
   86MOL    H5820628   7.062   4.021   1.756  0.8884  0.2481 -1.0171
   86MOL    H5920629   7.477   4.322   1.673 -0.3403 -1.4651  0.6296
   86MOL    H6020630   7.337   4.332   1.573 -1.0471 -1.3811  0.3491
   86MOL    H6120631   7.467   4.213   1.543 -0.2419  0.9068 -1.3657
   86MOL    C6220632   7.249   3.947   1.853  0.2430 -0.0740 -0.6254
   86MOL    C6320633   7.174   3.851   1.945 -0.3219  0.7310  0.2302
   86MOL    C6420634   7.081   3.752   1.871 -0.0581 -0.4051  0.7558
   86MOL    O6520635   7.074   3.740   1.748 -0.4101 -0.4387  0.1612
   86MOL    O6620636   7.004   3.677   1.956 -0.4316 -0.0641  0.8361
   86MOL    C6720637   6.939   3.558   1.913 -0.0138  0.8606 -0.3584
   86MOL    H6820638   7.305   3.896   1.774  1.3281  0.6201 -0.3000
   86MOL    H6920639   7.319   3.989   1.925 -0.8099  0.4827  0.0901
   86MOL    H7020640   7.106   3.915   2.002  0.6660  2.0842 -0.0946
   86MOL    H7120641   6.837   3.574   1.881 -0.7578  3.1010  2.8878
   86MOL    H7220642   6.942   3.478   1.987 -0.9272  0.9365 -0.2442
   86MOL    H7320643   6.998   3.506   1.837 -0.4249  0.5677 -0.4761
   86MOL    C7420644   7.275   3.787   2.045  0.3055  0.0877 -0.4725
   86MOL    C7520645   7.255   3.842   2.186  0.2746 -0.3431 -0.2876
   86MOL    C7620646   7.304   3.738   2.289  0.3615 -0.4073  0.2156
   86MOL    O7720647   7.421   3.745   2.342  0.0116 -0.0749  0.1750
   86MOL    O7820648   7.214   3.639   2.314 -0.3555  0.0491  0.1889
   86MOL    C7920649   7.240   3.533   2.402 -1.1535 -0.7264  0.2521
   86MOL    H8020650   7.254   3.681   2.047 -1.7927  0.4778 -0.7880
   86MOL    H8120651   7.378   3.800   2.014  0.9911 -0.2841  1.5656
   86MOL    H8220652   7.149   3.858   2.210  0.4840 -1.0258  1.1154
   86MOL    H8320653   7.150   3.480   2.435 -0.8987 -0.6968  1.0029
   86MOL    H8420654   7.286   3.569   2.494 -2.5318  0.2694  0.5659
   86MOL    H8520655   7.305   3.464   2.346 -1.1595 -1.5685  1.2652
   86MOL    C8620656   7.328   3.980   2.205  0.0349  0.2252  0.2707
   86MOL    C8720657   7.342   4.038   2.348  0.1099 -0.0737 -0.4750
   86MOL    C8820658   7.439   4.157   2.343 -0.2148  0.4940  0.0819
   86MOL    O8920659   7.543   4.146   2.402 -0.5217 -0.0236  0.2621
   86MOL    O9020660   7.393   4.267   2.284  0.0024  0.7927  0.1259
   86MOL    C9120661   7.482   4.383   2.267 -0.1257  0.1434  0.1111
   86MOL    H9220662   7.432   3.954   2.182  0.1355  2.1453 -1.5694
   86MOL    H9320663   7.278   4.052   2.140  0.8985  1.4615  0.9444
   86MOL    H9420664   7.374   3.966   2.424  1.4105  0.5437 -0.4225
   86MOL    H9520665   7.468   4.419   2.165 -1.7822  2.2806  1.0468
   86MOL    H9620666   7.587   4.353   2.261  0.2456  1.5872 -0.9716
   86MOL    H9720667   7.467   4.462   2.341  1.0128  0.5513 -0.0823
   86MOL    C9820668   7.207   4.072   2.415 -0.4823 -0.1150  0.2645
   86MOL    C9920669   7.214   4.117   2.561  0.1443 -0.0123 -0.3920
   86MOL   C10020670   7.226   4.271   2.581  0.4592 -0.0087  0.4644
   86MOL   O10120671   7.147   4.346   2.524 -0.1984 -0.0874 -0.7224
   86MOL   O10220672   7.329   4.308   2.657  0.0984  0.3977  0.2220
   86MOL   C10320673   7.359   4.448   2.672 -0.3863  0.5501  0.5748
   86MOL   H10420674   7.169   4.149   2.349 -0.3647  0.4809  0.8817
   86MOL   H10520675   7.135   3.991   2.406  0.0478 -0.4685 -0.8318
   86MOL   H10620676   7.300   4.066   2.603  0.0107 -0.8944 -1.1806
   86MOL   H10720677   7.268   4.484   2.720 -0.3042  0.1322  1.0537
   86MOL   H10820678   7.357   4.503   2.578 -0.3216 -3.0258 -1.5983
   86MOL   H10920679   7.439   4.468   2.744  0.8253  2.2609 -1.2084
   86MOL   C11020680   7.092   4.055   2.640  0.7107 -0.0049  0.4309
   86MOL   C11120681   7.095   3.906   2.671 -0.1249 -0.4207  0.0062
   86MOL   C11220682   7.217   3.869   2.764  0.5437 -0.0776  0.6106
   86MOL   O11320683   7.265   3.947   2.847 -0.0256  0.1808  0.2502
   86MOL   O11420684   7.257   3.746   2.744 -0.2200  0.0251 -0.1421
   86MOL   C11520685   7.363   3.681   2.810  0.1469 -0.0141  0.2645
   86MOL   H11620686   7.083   4.100   2.739  2.0584  2.1333 -0.3746
   86MOL   H11720687   7.005   4.077   2.578  0.1447 -0.3363  1.1008
   86MOL   H11820688   7.109   3.847   2.581 -0.3528 -2.8933  1.5480
   86MOL   H11920689   7.439   3.759   2.805  1.0837 -0.9017  0.4444
   86MOL   H12020690   7.395   3.592   2.756 -1.3753 -0.3323 -0.1145
   86MOL   H12120691   7.348   3.654   2.915  1.0751 -1.2245  0.0930
   86MOL   C12220692   6.962   3.873   2.740 -0.4306  0.4543 -0.1622
   86MOL   C12320693   6.873   3.777   2.662 -0.0236  0.9457  0.2182
   86MOL   C12420694   6.833   3.817   2.522  0.5404  0.1674  1.1057
   86MOL   O12520695   6.714   3.835   2.502  0.4287 -0.5894 -0.3806
   86MOL   O12620696   6.924   3.844   2.430 -0.5997 -0.1442 -0.1107
   86MOL   C12720697   6.881   3.873   2.295 -0.0835 -0.6349  0.1796
   86MOL   H12820698   6.982   3.818   2.832 -2.0871 -2.2909 -1.3801
   86MOL   H12920699   6.898   3.958   2.763  0.1959  0.6970  0.7288
   86MOL   H13020700   6.775   3.772   2.709 -1.3289 -0.6164 -2.5442
   86MOL   H13120701   6.871   3.773   2.253  1.7075 -1.4051  1.5713
   86MOL   H13220702   6.947   3.944   2.245  1.3133  0.3347  3.3073
   86MOL   H13320703   6.779   3.913   2.294 -1.3529 -3.6007  3.0919
   86MOL   C13420704   6.924   3.623   2.649 -0.0744 -0.5082 -0.3072
   86MOL   C13520705   6.947   3.547   2.788 -0.0912 -0.5901 -0.5924
   86MOL   C13620706   6.817   3.554   2.879  0.1695  0.7329 -0.5247
   86MOL   O13720707   6.824   3.603   2.996  0.2367  0.2002 -0.2024
   86MOL   O13820708   6.702   3.530   2.815 -0.0262  0.0990 -0.3090
   86MOL   C13920709   6.578   3.539   2.881  0.4267  0.7182 -0.4573
   86MOL   H14020710   6.848   3.565   2.597  0.9397  0.5131 -3.0315
   86MOL   H14120711   7.007   3.623   2.577 -1.1727  0.6990 -1.6153
   86MOL   H14220712   7.023   3.601   2.844 -0.6200 -0.1149 -0.3197
   86MOL   H14320713   6.529   3.444   2.861 -1.8459  1.8306 -0.3526
   86MOL   H14420714   6.510   3.616   2.843 -0.9030  0.7622  1.9272
   86MOL   H14520715   6.589   3.547   2.989 -0.9587 -0.2050 -0.2350
   86MOL   C14620716   6.995   3.407   2.762 -0.1863  0.0431  0.1580
   86MOL   C14720717   7.060   3.343   2.884  0.1474  0.1843  0.2831
   86MOL   C14820718   7.059   3.194   2.839 -0.1655  0.2879  0.3031
   86MOL   O14920719   7.008   3.099   2.901 -1.0017  0.2998  0.0075
   86MOL   O15020720   7.116   3.176   2.719  0.2016  0.2243  0.2310
   86MOL   C15120721   7.144   3.051   2.675  0.4871 -0.3674  0.1183
   86MOL   H15220722   6.906   3.351   2.737 -1.8256  2.1814  1.0872
   86MOL   H15320723   7.072   3.408   2.685 -0.0970  2.2262  0.2242
   86MOL   H15420724   6.989   3.341   2.966  0.4561 -0.0630  0.5436
   86MOL   H15520725   7.200   3.054   2.581  0.0889 -0.3247 -0.1171
   86MOL   H15620726   7.054   2.991   2.662  0.9842 -1.4395  1.4505
   86MOL   H15720727   7.211   3.002   2.746  0.5769 -0.4956 -0.0520
   86MOL   C15820728   7.208   3.394   2.909  0.7893  0.6428 -0.4002
   86MOL   C15920729   7.259   3.345   3.052  0.1235 -0.2580 -0.1841
   86MOL   C16020730   7.409   3.384   3.058  0.1333  0.0333  0.4150
   86MOL   O16120731   7.470   3.441   2.975 -0.0531  0.0190  0.7090
   86MOL   O16220732   7.466   3.351   3.172  0.2109  0.4857  0.2222
   86MOL   C16320733   7.596   3.389   3.197 -0.0930 -0.3949  0.0344
   86MOL   H16420734   7.280   3.375   2.829 -0.8684 -0.8061 -1.5767
   86MOL   H16520735   7.193   3.502   2.911  0.8542  0.6345  2.3041
   86MOL   H16620736   7.255   3.237   3.062  1.7280 -0.6889 -3.4871
   86MOL   H16720737   7.654   3.425   3.112 -1.8516 -0.8887 -1.4087
   86MOL   H16820738   7.658   3.317   3.252 -0.1605 -1.2585 -1.0027
   86MOL   H16920739   7.577   3.471   3.266  0.1057 -1.0344  0.8635
   86MOL   C17020740   7.170   3.388   3.175  0.1174 -0.8117  0.0600
   86MOL   C17120741   7.206   3.511   3.257  0.7500 -0.1257 -0.1144
   86MOL   C17220742   7.238   3.640   3.170  0.2454  0.6059 -0.0332
   86MOL   O17320743   7.167   3.674   3.074 -0.4947 -0.2182  0.2770
   86MOL   O17420744   7.342   3.702   3.221 -0.0390 -0.2827  0.2796
   86MOL   C17520745   7.363   3.837   3.172  0.5420  0.3549  0.3755
   86MOL   H17620746   7.071   3.408   3.135 -0.4119  0.0124  1.7357
   86MOL   H17720747   7.157   3.295   3.230 -1.0490 -1.8020 -1.8228
   86MOL   H17820748   7.295   3.476   3.311 -1.0365 -1.6631  1.9053
   86MOL   H17920749   7.403   3.838   3.070 -1.6512 -0.0048 -0.5115
   86MOL   H18020750   7.432   3.897   3.231 -0.0531  1.2730  0.1381
   86MOL   H18120751   7.266   3.887   3.171  0.4461  0.1698 -0.6363
   86MOL   C18220752   7.090   3.546   3.366 -0.0807  0.7156  0.0766
   86MOL   C18320753   7.142   3.610   3.492  0.0308 -0.3213 -0.4255
   86MOL   C18420754   7.024   3.678   3.564 -0.8774 -0.0083 -0.2934
   86MOL   O18520755   6.948   3.614   3.637  0.4603 -0.3302 -0.3047
   86MOL   O18620756   7.023   3.816   3.543 -0.4604 -0.5274 -0.2354
   86MOL   C18720757   6.915   3.889   3.594  0.3691 -0.1215  0.4250
   86MOL   H18820758   7.032   3.613   3.303  0.1370 -0.7555 -1.7162
   86MOL   H18920759   7.027   3.459   3.383  0.7217  0.0265 -0.4200
   86MOL   H19020760   7.216   3.688   3.474 -1.4898  1.4423  0.7682
   86MOL   H19120761   6.822   3.854   3.551  0.5133  0.9920 -0.8119
   86MOL   H19220762   6.917   3.996   3.571  0.7691  0.0743  1.3257
   86MOL   H19320763   6.902   3.869   3.701  0.6592 -0.6561  0.3607
   86MOL   C19420764   7.207   3.503   3.589 -0.1177 -0.0674  0.5118
   86MOL   C19520765   7.271   3.550   3.721  0.2014 -0.1013 -0.1942
   86MOL   C19620766   7.174   3.552   3.843  0.6210 -0.5115 -0.1504
   86MOL   O19720767   7.152   3.663   3.897  0.6949 -0.0303  0.1915
   86MOL   O19820768   7.116   3.431   3.858  0.5466 -0.0837 -0.1402
   86MOL   C19920769   6.989   3.416   3.908  0.0333  0.2476  0.1344
   86MOL   H20020770   7.140   3.421   3.615 -0.2108  0.0147  0.5356
   86MOL   H20120771   7.277   3.443   3.531  0.5565 -0.9134  2.1911
   86MOL   H20220772   7.301   3.652   3.701  5.2410 -1.3356  0.2989
   86MOL   H20320773   6.918   3.450   3.833  0.3007 -0.9108 -0.6608
   86MOL   H20420774   6.973   3.475   3.998 -2.1768 -0.9523  0.5723
   86MOL   H20520775   6.967   3.310   3.923 -0.4099  0.1521 -1.0888
   86MOL   C20620776   7.397   3.468   3.769  0.1830 -0.1710 -0.4606
   86MOL   C20720777   7.528   3.487   3.688  0.6104  0.1244 -0.6172
   86MOL   C20820778   7.555   3.633   3.679 -0.1243 -0.5200  0.5302
   86MOL   O20920779   7.576   3.698   3.777 -0.6053  0.4291  0.3091
   86MOL   O21020780   7.563   3.679   3.556  0.1344  0.2407 -0.4905
   86MOL   C21120781   7.638   3.792   3.515 -0.2566 -0.3831  0.2877
   86MOL   H21220782   7.431   3.491   3.870  1.3325 -0.1324 -0.8571
   86MOL   H21320783   7.360   3.366   3.765  1.1304 -0.5289 -0.2195
   86MOL   H21420784   7.495   3.460   3.588 -2.4927 -0.8382  0.5861
   86MOL   H21520785   7.631   3.804   3.407 -2.6964 -0.0303  0.4590
   86MOL   H21620786   7.740   3.778   3.550 -0.3422  0.5295  0.8988
   86MOL   H21720787   7.595   3.885   3.552  0.0668  0.3506 -1.1366
   86MOL   C21820788   7.639   3.397   3.753  0.1729  0.5780  1.1227
   86MOL   C21920789   7.740   3.342   3.646  0.3461 -0.4766 -0.0659
   86MOL   C22020790   7.801   3.447   3.554  0.4621  0.1004 -0.6208
   86MOL   O22120791   7.790   3.434   3.429 -0.3464  0.2291  0.0470
   86MOL   O22220792   7.881   3.530   3.622  0.5486 -0.0857 -0.3146
   86MOL   C22320793   0.018   3.627   3.551  0.2523  0.0035 -0.0896
   86MOL   H22420794   7.704   3.440   3.830  2.5931 -1.3395  0.2432
   86MOL   H22520795   7.605   3.304   3.799  0.7824 -0.0800  0.2739
   86MOL   H22620796   7.663   3.292   3.587 -1.0017 -2.8048  3.5048
   86MOL   H22720797   7.898   3.646   3.458 -0.8862  3.3891  1.1823
   86MOL   H22820798   0.116   3.591   3.517 -0.3639 -1.2630 -0.5676
   86MOL   H22920799   0.009   3.724   3.599 -0.2100  0.3908 -0.9717
   86MOL   C23020800   7.845   3.237   3.707  0.4896 -0.6473  0.4897
   86MOL   C23120801   7.815   3.098   3.655  0.2772  0.1429 -0.2611
   86MOL   C23220802   7.812   3.092   3.501 -0.1767  0.2584  0.7347
   86MOL   O23320803   7.714   3.054   3.437 -0.0227 -0.0151 -0.3648
   86MOL   O23420804   7.931   3.116   3.451 -0.4001 -0.0015 -0.5358
   86MOL   C23520805   0.018   3.102   3.315  0.0258  1.3177 -0.3592
   86MOL   H23620806   0.012   3.277   3.687  0.6106 -0.7680  0.8469
   86MOL   H23720807   7.855   3.233   3.815  0.3813 -1.8551  0.4625
   86MOL   H23820808   7.716   3.070   3.690  0.2266  1.4586  0.6888
   86MOL   H23920809   0.009   3.205   3.280  0.4541  1.0407 -1.3061
   86MOL   H24020810   7.881   3.037   3.262 -0.7045  1.2708  0.6442
   86MOL   H24120811   0.118   3.061   3.304 -1.3225 -2.6862  1.3123
   86MOL   H24220812   7.878   3.020   3.698  0.3063  0.2104 -0.1824
   87MOL     C120813   6.898   7.788   3.644 -0.6189  0.4012  0.1319
   87MOL     C220814   6.827   7.688   3.728  0.4860  0.0384 -0.4551
   87MOL     C320815   6.876   7.664   3.872  0.5987  0.2793 -0.6652
   87MOL     O420816   6.959   7.577   3.906  0.6246 -0.4655  0.4035
   87MOL     O520817   6.829   7.758   3.961 -0.1749 -0.5095 -0.2415
   87MOL     C620818   6.887   7.777   4.088  0.5890 -0.3168  0.0751
   87MOL     H720819   6.881   7.767   3.538  0.3336 -1.1949  0.2756
   87MOL     H820820   7.005   7.776   3.664 -0.6039 -0.4554 -0.4406
   87MOL     H920821   6.845   7.594   3.674 -1.2589 -0.2888 -0.4983
   87MOL    H1020822   6.866   7.684   4.141  0.1520  1.5629  3.2863
   87MOL    H1120823   6.842   7.865   4.133 -0.0853 -1.1736  1.0805
   87MOL    H1220824   6.996   7.788   4.086  0.4879  1.1855  1.9882
   87MOL    H1320825   6.883   7.893   3.671 -0.1280  0.2691  0.9390
   87MOL    C1420826   6.676   7.713   3.714  0.2230  0.6740 -0.0852
   87MOL    C1520827   6.602   7.680   3.575 -0.1437 -0.5007 -0.1686
   87MOL    C1620828   6.578   7.522   3.567  0.2192 -0.0815  0.3653
   87MOL    O1720829   6.619   7.455   3.473 -0.2465  0.5375  0.0896
   87MOL    O1820830   6.483   7.487   3.649 -0.3000 -0.4738 -0.3424
   87MOL    C1920831   6.452   7.353   3.677 -0.1685 -0.4090  0.0025
   87MOL    H2020832   6.625   7.661   3.795  1.7197 -0.7155 -0.0153
   87MOL    H2120833   6.654   7.815   3.748 -0.7608  0.7940 -1.0121
   87MOL    H2220834   6.680   7.698   3.502  0.8990 -0.9573  0.8177
   87MOL    H2320835   6.420   7.304   3.586 -0.5338  1.4731 -0.9050
   87MOL    H2420836   6.372   7.338   3.749  0.4484 -0.2808  0.7245
   87MOL    H2520837   6.535   7.300   3.725  0.1424  0.4427  0.4137
   87MOL    C2620838   6.484   7.781   3.558 -0.2103  0.9137 -0.0503
   87MOL    C2720839   6.503   7.926   3.529 -0.1238  0.0634 -0.7608
   87MOL    C2820840   6.614   0.021   3.431 -0.3436  0.3505  0.1105
   87MOL    O2920841   6.641   7.870   3.337 -0.1268 -0.0569  0.6769
   87MOL    O3020842   6.660   0.146   3.451  0.1493  0.2066  0.5349
   87MOL    C3120843   6.767   0.192   3.369  0.9281 -0.7137 -0.1315
   87MOL    H3220844   6.431   7.744   3.469 -0.2799 -0.8104  0.6801
   87MOL    H3320845   6.419   7.771   3.645  0.0194  0.1297  0.0381
   87MOL    H3420846   6.529   0.037   3.625  1.0589  2.6794 -2.2244
   87MOL    H3520847   6.854   0.127   3.368  1.3524 -0.2210  2.0867
   87MOL    H3620848   6.809   0.279   3.420  0.3772  0.4780 -1.6701
   87MOL    H3720849   6.731   0.212   3.268 -2.6564 -1.7279  0.8770
   87MOL    C3820850   6.374   0.065   3.485  0.2677 -0.0726 -0.1211
   87MOL    C3920851   6.266   0.093   3.598 -0.5323 -0.0252  0.5004
   87MOL    C4020852   6.303   0.208   3.687 -0.3226 -0.5714  0.3910
   87MOL    O4120853   6.301   0.328   3.645  1.0698  0.1425 -0.4505
   87MOL    O4220854   6.344   0.179   3.817  0.3169 -0.5746  0.1663
   87MOL    C4320855   6.370   0.296   3.899  0.4683 -0.9492 -0.1051
   87MOL    H4420856   6.388   0.167   3.451  0.0464 -0.2568 -0.7789
   87MOL    H4520857   6.324   7.929   3.416 -0.1023 -0.7342  0.7912
   87MOL    H4620858   6.261   0.007   3.665  1.9955 -0.5219  0.0922
   87MOL    H4720859   6.445   0.362   3.854  0.6732 -1.6617 -0.8192
   87MOL    H4820860   6.392   0.270   4.002 -1.6551 -1.6237  0.1872
   87MOL    H4920861   6.287   0.366   3.907  2.3525  1.4940 -1.1397
   87MOL    C5020862   6.125   0.120   3.530 -0.0017  0.4032 -0.6504
   87MOL    C5120863   5.996   0.049   3.588 -0.8461  0.5556 -0.0909
   87MOL    C5220864   5.974   0.107   3.724 -0.4479  0.5904  1.0456
   87MOL    O5320865   5.930   0.221   3.739  0.2454 -0.6542  0.0422
   87MOL    O5420866   6.013   0.030   3.825  0.0623  0.2539  0.0991
   87MOL    C5520867   5.999   0.080   3.959  0.0666  0.2781  0.9260
   87MOL    H5620868   6.101   0.225   3.514 -0.3840 -0.1905 -4.4980
   87MOL    H5720869   6.132   0.107   3.422 -1.0970  0.4550 -0.7303
   87MOL    H5820870   6.007   7.874   3.600 -2.7349  0.3769  0.1495
   87MOL    H5920871   6.054   0.173   3.973  1.9464 -0.6735  0.0441
   87MOL    H6020872   6.021   0.007   4.036  2.7419  0.1897  0.1281
   87MOL    H6120873   5.897   0.113   3.977  0.3993  1.3509  0.9062
   87MOL    C6220874   5.873   0.068   3.490 -0.7081 -0.3792 -0.8315
   87MOL    C6320875   5.786   7.875   3.483 -0.7684  0.2875 -0.5799
   87MOL    C6420876   5.745   7.816   3.621 -0.6901  0.9287  0.2517
   87MOL    O6520877   5.793   7.706   3.654  0.4530  0.2562  0.2202
   87MOL    O6620878   5.685   7.896   3.705 -0.0408 -0.1122 -0.0068
   87MOL    C6720879   5.677   7.860   3.839 -0.2212  0.4901 -0.2622
   87MOL    H6820880   5.812   0.153   3.520  1.5269  1.2029 -0.6147
   87MOL    H6920881   5.902   0.083   3.386  1.7498 -0.1711 -0.1480
   87MOL    H7020882   5.848   7.807   3.425  0.4176 -0.2566  1.2646
   87MOL    H7120883   5.776   7.854   3.884 -0.7572  0.6562  0.9582
   87MOL    H7220884   5.627   7.769   3.873 -1.6334  0.6252 -1.8923
   87MOL    H7320885   5.623   0.008   3.889  0.7193 -0.3181  2.1207
   87MOL    C7420886   5.652   7.893   3.404 -0.1554 -0.6104  0.3117
   87MOL    C7520887   5.564   7.774   3.362  0.1013 -0.2356  0.2602
   87MOL    C7620888   5.419   7.816   3.332  0.8956  1.0935  0.1844
   87MOL    O7720889   5.326   7.752   3.378 -0.1348 -0.2841 -0.3246
   87MOL    O7820890   5.410   7.921   3.253  0.4782  0.7828 -0.5138
   87MOL    C7920891   5.292   0.046   3.206 -0.2268  0.3406 -0.2465
   87MOL    H8020892   5.595   0.031   3.464 -2.6970 -2.9595  0.7210
   87MOL    H8120893   5.677   0.023   3.318  1.7649  1.1479  2.0808
   87MOL    H8220894   5.567   7.708   3.449  1.7613  1.0782  1.2167
   87MOL    H8320895   5.311   0.133   3.144 -0.3723 -0.2525 -1.1364
   87MOL    H8420896   5.229   0.071   3.292  0.9189 -1.0097  1.0171
   87MOL    H8520897   5.236   7.903   3.152 -1.0803  0.8291 -0.0634
   87MOL    C8620898   5.630   7.677   3.255 -0.4738 -0.0174  0.7202
   87MOL    C8720899   5.647   7.741   3.115 -1.0462  0.6926 -0.5696
   87MOL    C8820900   5.758   7.847   3.114  0.4331  0.4527  0.1913
   87MOL    O8920901   5.736   0.035   3.084 -0.1332  0.3669 -0.4536
   87MOL    O9020902   5.872   7.796   3.152  0.3406  0.2665  0.2794
   87MOL    C9120903   5.991   7.870   3.155 -0.0749  0.1809 -0.3591
   87MOL    H9220904   5.731   7.646   3.279  0.2471  0.7051 -1.2595
   87MOL    H9320905   5.566   7.591   3.236 -1.3119  1.3255 -2.9595
   87MOL    H9420906   5.557   7.799   3.095 -1.6112  0.0017 -0.0709
   87MOL    H9520907   5.970   0.032   3.204 -0.8225 -0.5112  0.6759
   87MOL    H9620908   6.012   7.898   3.052 -0.1625 -0.2969 -0.5071
   87MOL    H9720909   6.075   7.821   3.204 -1.4831 -1.1221  0.7918
   87MOL    C9820910   5.656   7.648   2.992  0.7344  0.0445  0.4998
   87MOL    C9920911   5.780   7.556   2.966 -0.0229  0.2928 -0.0905
   87MOL   C10020912   5.795   7.435   3.062  0.4659  0.6141  0.4469
   87MOL   O10120913   5.882   7.429   3.149 -0.2785 -0.0108 -0.0751
   87MOL   O10220914   5.702   7.345   3.042  0.2764  0.4048  0.2460
   87MOL   C10320915   5.706   7.228   3.122 -0.1874  0.1122  0.1454
   87MOL   H10420916   5.574   7.576   2.990 -0.3378  1.2457 -0.3157
   87MOL   H10520917   5.644   7.707   2.901  0.7205 -0.8534 -0.0826
   87MOL   H10620918   5.871   7.615   2.977  0.1931 -0.1662  0.5983
   87MOL   H10720919   5.725   7.245   3.228  1.4902 -1.2479  0.0841
   87MOL   H10820920   5.794   7.168   3.100  0.9196  0.3596  3.6421
   87MOL   H10920921   5.616   7.172   3.097  0.8284 -0.6383 -1.9715
   87MOL   C11020922   5.765   7.489   2.823  0.9758 -0.3669 -0.2195
   87MOL   C11120923   5.796   7.567   2.693 -0.2111  0.4605  1.0709
   87MOL   C11220924   5.946   7.585   2.677 -0.4602 -0.3971  0.1908
   87MOL   O11320925   6.014   7.537   2.584  0.3308 -0.1290 -0.0915
   87MOL   O11420926   6.001   7.655   2.779  0.2818  0.0673  0.0175
   87MOL   C11520927   6.137   7.659   2.814  0.5395 -0.0968 -0.3515
   87MOL   H11620928   5.830   7.401   2.822  0.7094 -0.5612 -0.9544
   87MOL   H11720929   5.661   7.461   2.811  1.4618 -2.5184  0.3330
   87MOL   H11820930   5.755   7.667   2.705 -1.6865  0.0852 -0.6793
   87MOL   H11920931   6.145   7.617   2.914  2.3524  0.7255 -0.1272
   87MOL   H12020932   6.187   7.755   2.806 -0.8311  0.5845 -0.7935
   87MOL   H12120933   6.201   7.599   2.749 -0.6336 -1.1474 -0.5572
   87MOL   C12220934   5.729   7.491   2.578  0.2722  0.8562 -0.6734
   87MOL   C12320935   5.581   7.523   2.543  0.0245  0.2929  0.0103
   87MOL   C12420936   5.561   7.670   2.518  0.0127 -0.4204  0.4390
   87MOL   O12520937   5.495   7.744   2.588  0.6070 -0.1674  0.1582
   87MOL   O12620938   5.613   7.710   2.397  0.1922 -0.2122  0.0686
   87MOL   C12720939   5.613   7.842   2.351 -0.3125 -0.3341  0.8810
   87MOL   H12820940   5.788   7.514   2.490  0.3451  2.0003 -0.3363
   87MOL   H12920941   5.741   7.384   2.594 -2.9400  0.2573 -1.9446
   87MOL   H13020942   5.515   7.498   2.626  0.6171 -1.0514  0.0806
   87MOL   H13120943   5.649   7.842   2.248  2.1987 -0.3369  1.7161
   87MOL   H13220944   5.684   7.903   2.407 -0.0806  0.2563 -0.0539
   87MOL   H13320945   5.518   7.894   2.341  0.4444  1.0948  0.9001
   87MOL   C13420946   5.533   7.441   2.427 -0.2532 -1.0324  0.4471
   87MOL   C13520947   5.404   7.349   2.454  0.5208 -0.3760 -0.6264
   87MOL   C13620948   5.273   7.428   2.475 -0.5048 -0.2166 -0.3341
   87MOL   O13720949   5.213   7.423   2.583  0.2727  0.1515 -0.2606
   87MOL   O13820950   5.234   7.510   2.381 -0.4036 -0.0131  0.7097
   87MOL   C13920951   5.121   7.584   2.394 -0.2145  0.6074 -0.0311
   87MOL   H14020952   5.514   7.497   2.335 -3.5436 -0.0157  1.6393
   87MOL   H14120953   5.612   7.372   2.399 -0.1154 -1.0964  0.9746
   87MOL   H14220954   5.415   7.300   2.550 -0.7827  0.5150 -0.0017
   87MOL   H14320955   5.148   7.654   2.472  0.3429 -0.5789  0.8483
   87MOL   H14420956   5.029   7.532   2.421  0.7031 -0.7388  0.5259
   87MOL   H14520957   5.120   7.628   2.294  2.1601 -1.0632 -0.8209
   87MOL   C14620958   5.380   7.244   2.348 -0.5383  0.1547 -0.0976
   87MOL   C14720959   5.262   7.146   2.368 -0.0410  0.6330 -0.0753
   87MOL   C14820960   5.150   7.147   2.263  1.5434 -0.3891 -0.4296
   87MOL   O14920961   5.039   7.199   2.289 -0.3973  0.7195  0.8633
   87MOL   O15020962   5.202   7.102   2.149  0.9313 -0.0076 -0.3758
   87MOL   C15120963   5.124   7.096   2.034 -0.1941 -0.3221  0.8739
   87MOL   H15220964   5.370   7.306   2.258 -1.1918  0.2846  0.0642
   87MOL   H15320965   5.473   7.187   2.342  0.9510  2.4250  0.6688
   87MOL   H15420966   5.206   7.168   2.459  2.0058  0.5978  1.2389
   87MOL   H15520967   5.032   7.153   2.049 -0.4247 -0.0532 -1.3663
   87MOL   H15620968   5.093   6.991   2.027  0.6916 -0.6765  2.1446
   87MOL   H15720969   5.186   7.145   1.959  1.0923  0.8246  2.6454
   87MOL   C15820970   5.310   6.998   2.397 -0.2509 -0.6375  0.1886
   87MOL   C15920971   5.214   6.880   2.419 -0.1088 -0.1931 -0.2261
   87MOL   C16020972   5.248   6.760   2.324 -0.3682 -0.3231  0.5077
   87MOL   O16120973   5.296   6.656   2.370  0.3839 -0.5763  0.2114
   87MOL   O16220974   5.223   6.784   2.197 -0.1352 -0.5725  0.3969
   87MOL   C16320975   5.273   6.681   2.105  1.9914 -0.5609 -0.2764
   87MOL   H16420976   5.388   6.970   2.326 -0.8265 -2.1319  0.1183
   87MOL   H16520977   5.374   7.008   2.485  1.8051  1.1596 -1.4394
   87MOL   H16620978   5.113   6.895   2.382 -0.0510  0.4825 -0.1196
   87MOL   H16720979   5.237   6.581   2.129 -1.9831  0.8899  0.2268
   87MOL   H16820980   5.380   6.661   2.117  1.5775 -2.3917  0.5823
   87MOL   H16920981   5.242   6.700   2.003  3.5210 -2.8592 -1.2140
   87MOL   C17020982   5.197   6.839   2.568 -0.4633 -0.0280 -0.2780
   87MOL   C17120983   5.124   6.929   2.668 -0.1801 -0.3136  0.3464
   87MOL   C17220984   5.207   7.049   2.723 -0.4234  0.2977 -0.3103
   87MOL   O17320985   5.173   7.166   2.704  0.1872 -0.9686 -0.6316
   87MOL   O17420986   5.317   7.004   2.789 -0.2165 -0.2673 -0.4740
   87MOL   C17520987   5.402   7.106   2.835 -0.3640 -0.0685 -0.2917
   87MOL   H17620988   5.143   6.744   2.573  0.1596 -0.4120 -0.6708
   87MOL   H17720989   5.293   6.803   2.606 -0.5096 -0.1975 -0.3218
   87MOL   H17820990   5.119   6.875   2.762 -0.9927 -1.0557 -0.1173
   87MOL   H17920991   5.502   7.066   2.855 -0.5401  1.0227  2.9736
   87MOL   H18020992   5.372   7.158   2.925 -2.5252  1.2914 -1.7427
   87MOL   H18120993   5.408   7.169   2.746 -1.3290  0.8556  0.2903
   87MOL   C18220994   4.980   6.973   2.629 -0.1073 -0.4463  0.0528
   87MOL   C18320995   4.882   6.860   2.583 -0.1917 -0.5778 -0.6180
   87MOL   C18420996   4.875   6.745   2.686  0.6124  0.4563  0.4624
   87MOL   O18520997   4.852   6.758   2.804  0.1874 -0.6113  0.8013
   87MOL   O18620998   4.905   6.635   2.625  0.0010  0.4377 -0.0294
   87MOL   C18720999   4.901   6.511   2.691 -0.5752 -0.2285  0.1817
   87MOL   H18821000   4.933   7.027   2.712  1.4191  2.2352 -0.7520
   87MOL   H18921001   4.998   7.044   2.549  0.7882 -0.3238  0.3548
   87MOL   H19021002   4.931   6.823   2.493 -0.0205 -1.3798 -0.1987
   87MOL   H19121003   4.999   6.492   2.734 -0.1832  1.2986 -0.0010
   87MOL   H19221004   4.880   6.435   2.616 -0.6597  0.1731 -0.2091
   87MOL   H19321005   4.825   6.509   2.769 -0.6775 -1.3956  0.0502
   87MOL   C19421006   4.742   6.921   2.558  0.8578  0.2272 -0.3159
   87MOL   C19521007   4.726   7.002   2.423  0.2208  0.3276  0.7306
   87MOL   C19621008   4.736   6.905   2.302  0.1482  0.5534  0.7146
   87MOL   O19721009   4.639   6.843   2.263 -0.2754 -0.0385  0.6413
   87MOL   O19821010   4.860   6.879   2.270  0.0751 -0.6361  0.1401
   87MOL   C19921011   4.885   6.763   2.186  0.0673  0.3896 -0.3885
   87MOL   H20021012   4.674   6.836   2.552  0.4557  0.4264  1.3144
   87MOL   H20121013   4.714   6.979   2.646 -1.2078 -1.4948  0.2251
   87MOL   H20221014   4.809   7.072   2.413  1.0236 -0.0764  3.9923
   87MOL   H20321015   4.936   6.686   2.245 -0.4995  0.4481  0.1889
   87MOL   H20421016   4.948   6.794   2.103  0.8543  1.8260  0.7226
   87MOL   H20521017   4.795   6.711   2.153  0.1097  0.5894 -0.8159
   87MOL   C20621018   4.596   7.086   2.421 -0.5201 -0.0001 -0.1151
   87MOL   C20721019   4.569   7.190   2.311  0.7327  0.0416 -0.0619
   87MOL   C20821020   4.419   7.224   2.293  0.1228  0.5291 -0.1894
   87MOL   O20921021   4.330   7.178   2.358  0.0336  0.6742 -0.6418
   87MOL   O21021022   4.411   7.324   2.202  0.1153 -0.1855 -0.0589
   87MOL   C21121023   4.286   7.398   2.200  0.2154 -0.0113 -0.1846
   87MOL   H21221024   4.506   7.024   2.423 -1.0834  0.7873 -0.8339
   87MOL   H21321025   4.593   7.140   2.516  0.3820 -0.6459  0.2956
   87MOL   H21421026   4.610   7.136   2.225  2.5028 -1.1543  1.5023
   87MOL   H21521027   4.244   7.359   2.107  0.6090  0.3946 -0.5375
   87MOL   H21621028   4.309   7.503   2.185  1.6687 -0.4540 -1.1264
   87MOL   H21721029   4.218   7.375   2.282  0.9082 -0.6270  0.2182
   87MOL   C21821030   4.659   7.310   2.321  0.4108 -0.4643 -0.0830
   87MOL   C21921031   4.694   7.397   2.195  0.8542  0.4903 -0.0622
   87MOL   C22021032   4.775   7.529   2.234  0.1651 -0.2190  0.0956
   87MOL   O22121033   4.881   7.560   2.177  0.0221 -0.9155 -0.1126
   87MOL   O22221034   4.718   7.602   2.330  0.3021 -0.0859 -0.4115
   87MOL   C22321035   4.768   7.728   2.359 -0.2925  0.5234 -0.7004
   87MOL   H22421036   4.616   7.383   2.389  0.3895 -0.3732 -0.1930
   87MOL   H22521037   4.754   7.289   2.371 -0.3319 -0.6110  1.2923
   87MOL   H22621038   4.607   7.437   2.143  1.5313  0.7388 -1.0108
   87MOL   H22721039   4.872   7.726   2.392 -0.1022 -0.2482 -1.3367
   87MOL   H22821040   4.715   7.780   2.438 -0.4423 -1.5468  0.5949
   87MOL   H22921041   4.754   7.781   2.265  0.9647 -2.7385 -2.8159
   87MOL   C23021042   4.778   7.321   2.094  0.0198 -0.5617  0.0591
   87MOL   C23121043   4.761   7.377   1.958 -0.3059 -0.0364 -0.4941
   87MOL   C23221044   4.816   7.285   1.844  0.4259  0.4100 -0.4553
   87MOL   O23321045   4.863   7.174   1.871  0.5935 -0.1436 -0.1833
   87MOL   O23421046   4.801   7.345   1.732 -0.2587  0.3242 -0.4752
   87MOL   C23521047   4.829   7.279   1.610  0.3170  1.2562  0.5650
   87MOL   H23621048   4.880   7.305   2.128  0.9562 -0.8919 -2.8622
   87MOL   H23721049   4.743   7.218   2.087 -0.4601 -0.1979 -4.2055
   87MOL   H23821050   4.808   7.473   1.938  1.4808 -0.9880 -1.0042
   87MOL   H23921051   4.926   7.303   1.565  0.1281 -1.6856 -1.5454
   87MOL   H24021052   4.759   7.309   1.532  1.1682 -1.3337 -1.2585
   87MOL   H24121053   4.833   7.172   1.629 -1.6363  0.7436 -1.7298
   87MOL   H24221054   4.654   7.389   1.944 -0.6304  2.2292  3.4081
   88MOL     C121055   0.386   6.091   3.576  0.1319  0.4317  0.6359
   88MOL     C221056   0.420   6.016   3.711  0.7489 -0.1295 -0.3192
   88MOL     C321057   0.485   6.113   3.810  0.1635 -0.0091  0.3366
   88MOL     O421058   0.574   6.065   3.881  0.0165  0.1460  0.2186
   88MOL     O521059   0.437   6.236   3.815  0.3418 -0.0818 -0.3023
   88MOL     C621060   0.473   6.330   3.920  0.2433  0.0970 -0.2285
   88MOL     H721061   0.367   6.032   3.486  0.1085  1.9970 -0.3933
   88MOL     H821062   0.469   6.156   3.550  0.2024  0.5884  1.2641
   88MOL     H921063   0.499   5.945   3.685  0.1977  0.2281 -3.0720
   88MOL    H1021064   0.383   6.380   3.956  0.1853  1.0890 -1.7193
   88MOL    H1121065   0.558   6.392   3.890  1.9548 -2.4126 -0.7445
   88MOL    H1221066   0.514   6.260   3.994 -0.9341 -1.9553 -1.4863
   88MOL    H1321067   0.299   6.154   3.596 -1.2035 -0.6470 -1.4752
   88MOL    C1421068   0.292   5.949   3.766  0.7207  0.5627 -0.5272
   88MOL    C1521069   0.310   5.845   3.878  0.4061  0.4256  0.3867
   88MOL    C1621070   0.191   5.822   3.968  0.3007  0.1599 -0.1305
   88MOL    O1721071   0.194   5.857   4.088 -0.2457 -0.3145  0.2215
   88MOL    O1821072   0.085   5.775   3.901  0.0296  0.0762 -0.5571
   88MOL    C1921073   7.894   5.752   3.971 -0.6845 -0.1646  0.2343
   88MOL    H2021074   0.222   6.020   3.810  0.4030  0.8359 -1.4472
   88MOL    H2121075   0.227   5.908   3.688 -0.8573 -0.4532  1.2748
   88MOL    H2221076   0.390   5.888   3.938 -0.2608 -0.5385  1.9878
   88MOL    H2321077   7.814   5.772   3.899 -0.8283  1.7027  0.9065
   88MOL    H2421078   7.894   5.816   4.059  2.1574 -1.2567  1.0999
   88MOL    H2521079   7.884   5.646   3.994 -1.4862 -0.1608 -0.0782
   88MOL    C2621080   0.359   5.709   3.817 -0.1258  0.5602 -0.0020
   88MOL    C2721081   0.448   5.613   3.900  0.5744 -0.6329 -0.9235
   88MOL    C2821082   0.580   5.686   3.934  0.4411  0.3530 -0.6892
   88MOL    O2921083   0.576   5.762   4.030 -0.0264 -0.2247  0.1228
   88MOL    O3021084   0.682   5.669   3.849 -0.4077 -0.1031 -0.0730
   88MOL    C3121085   0.787   5.766   3.847 -0.2123  0.5376  0.4931
   88MOL    H3221086   0.281   5.646   3.774  0.0085  1.8571 -2.2284
   88MOL    H3321087   0.420   5.722   3.727  0.5126  0.6898  0.4416
   88MOL    H3421088   0.472   5.530   3.834 -0.2035 -1.1693 -0.5439
   88MOL    H3521089   0.845   5.770   3.755  1.3152 -0.1546  1.3899
   88MOL    H3621090   0.858   5.740   3.926 -3.1943 -1.6929  2.5512
   88MOL    H3721091   0.759   5.865   3.885  2.8805  0.4795  3.2009
   88MOL    C3821092   0.353   5.558   4.021  0.4180 -0.1946  0.2308
   88MOL    C3921093   0.384   5.419   4.078 -0.4106  0.1330  0.1268
   88MOL    C4021094   0.310   5.317   3.993 -0.3479  0.2880  0.5158
   88MOL    O4121095   0.230   5.233   4.036  0.4390  0.9353 -0.3373
   88MOL    O4221096   0.360   5.317   3.868 -0.2796 -0.1169 -0.0686
   88MOL    C4321097   0.298   5.228   3.774 -0.3732  0.4502 -0.1746
   88MOL    H4421098   0.361   5.631   4.102  0.3978  1.5930 -1.3563
   88MOL    H4521099   0.249   5.567   3.991 -0.4242  0.1355  3.1333
   88MOL    H4621100   0.327   5.419   4.171 -0.2632  0.4816  0.2167
   88MOL    H4721101   0.349   5.214   3.678 -1.9271 -2.6756 -0.6303
   88MOL    H4821102   0.195   5.255   3.749 -0.9711 -0.7887  0.8823
   88MOL    H4921103   0.299   5.122   3.802  1.7658  0.6183  0.3983
   88MOL    C5021104   0.539   5.381   4.092  0.1587 -0.0363 -0.6862
   88MOL    C5121105   0.595   5.388   4.235  0.9535 -0.3901 -0.1572
   88MOL    C5221106   0.527   5.288   4.331  0.7055  0.0955  0.1176
   88MOL    O5321107   0.413   5.301   4.375 -0.1789 -0.2241 -0.5251
   88MOL    O5421108   0.602   5.183   4.361 -0.0398 -0.3537 -0.2311
   88MOL    C5521109   0.565   5.099   4.470  0.3863  0.1080 -0.4793
   88MOL    H5621110   0.551   5.276   4.065  0.1155 -0.4380  0.7969
   88MOL    H5721111   0.599   5.430   4.016 -0.7935 -0.3666 -1.6623
   88MOL    H5821112   0.568   5.488   4.269 -1.3864 -1.4924  1.3717
   88MOL    H5921113   0.531   5.164   4.551  1.5727 -0.0699  0.1742
   88MOL    H6021114   0.656   5.052   4.507 -0.4796  0.5338  2.3641
   88MOL    H6121115   0.512   5.011   4.435  0.7170  0.0665 -0.8799
   88MOL    C6221116   0.754   5.393   4.234  0.3714 -0.3543  0.5668
   88MOL    C6321117   0.799   5.544   4.235  0.8008  0.0142 -0.4323
   88MOL    C6421118   0.779   5.604   4.374 -0.5828 -0.3817  0.2460
   88MOL    O6521119   0.768   5.528   4.470  0.4552  0.2519 -0.8157
   88MOL    O6621120   0.780   5.738   4.372 -0.0778 -0.0664  0.2587
   88MOL    C6721121   0.738   5.799   4.489  0.1041  0.5037 -0.1182
   88MOL    H6821122   0.783   5.337   4.323 -2.3361 -1.6383  0.6824
   88MOL    H6921123   0.798   5.336   4.153  0.6046 -0.7498  0.9722
   88MOL    H7021124   0.726   5.592   4.171  1.6465 -1.3691 -2.5085
   88MOL    H7121125   0.641   5.848   4.480  0.2350  0.8238  0.2067
   88MOL    H7221126   0.809   5.881   4.496 -0.2568  0.6936  1.4218
   88MOL    H7321127   0.729   5.734   4.577 -0.6578 -2.1182 -2.0693
   88MOL    C7421128   0.944   5.574   4.191 -0.1376  0.0853 -0.3312
   88MOL    C7521129   1.068   5.518   4.271 -0.6979 -0.1739  0.0867
   88MOL    C7621130   1.128   5.385   4.198  0.4267  0.8040 -0.2844
   88MOL    O7721131   1.052   5.302   4.145  0.2326  0.4169  0.3534
   88MOL    O7821132   1.258   5.382   4.191  0.0741  0.4909 -0.5513
   88MOL    C7921133   1.326   5.264   4.147 -0.4456 -0.1267  0.4986
   88MOL    H8021134   0.945   5.535   4.089 -0.0151  0.8937 -0.6487
   88MOL    H8121135   0.964   5.680   4.176 -0.6284  0.3702  1.0411
   88MOL    H8221136   1.046   5.494   4.375  0.7777  0.1077  0.4695
   88MOL    H8321137   1.296   5.220   4.052 -0.3509 -2.7530  1.6231
   88MOL    H8421138   1.324   5.184   4.222  1.0408  0.6591  1.3984
   88MOL    H8521139   1.432   5.281   4.130 -0.9145  0.5366 -1.9621
   88MOL    C8621140   1.174   5.625   4.286  0.0187  0.4153 -0.7387
   88MOL    C8721141   1.139   5.736   4.382 -0.2601 -0.1559  0.3484
   88MOL    C8821142   1.132   5.681   4.519  0.3263 -0.0074 -1.0901
   88MOL    O8921143   1.032   5.697   4.588 -0.8604 -0.0123  0.2911
   88MOL    O9021144   1.241   5.609   4.564  0.1366 -0.1950 -0.0757
   88MOL    C9121145   1.226   5.513   4.670  0.1808 -0.2484  0.2099
   88MOL    H9221146   1.264   5.577   4.325 -1.3394 -0.2973  1.6250
   88MOL    H9321147   1.202   5.675   4.193  0.2546  1.4258 -0.1356
   88MOL    H9421148   1.036   5.768   4.366 -0.3614 -0.1249  1.0659
   88MOL    H9521149   1.143   5.447   4.645 -0.2098  1.6028 -3.6806
   88MOL    H9621150   1.215   5.551   4.772 -0.8187 -1.1949  0.4593
   88MOL    H9721151   1.307   5.440   4.674  2.1803  1.8490 -0.6112
   88MOL    C9821152   1.245   5.855   4.368 -0.4431  0.0432 -0.3475
   88MOL    C9921153   1.235   5.943   4.238 -0.1627 -0.1942 -0.1642
   88MOL   C10021154   1.094   5.960   4.187  0.1765  0.7227  0.3447
   88MOL   O10121155   1.068   5.902   4.084  0.4672  0.2854  0.1795
   88MOL   O10221156   1.014   6.027   4.265  0.0040  0.4082  0.2523
   88MOL   C10321157   0.879   6.022   4.233 -0.0664 -0.2356 -0.2683
   88MOL   H10421158   1.218   5.933   4.438 -0.5184  0.3411 -0.7059
   88MOL   H10521159   1.349   5.828   4.384 -0.4555 -0.1419 -0.5628
   88MOL   H10621160   1.294   5.884   4.167  2.7101  0.0874  1.9154
   88MOL   H10721161   0.823   6.052   4.322  1.5007  1.4280  0.1812
   88MOL   H10821162   0.846   5.926   4.192  1.3666 -1.3600  1.2021
   88MOL   H10921163   0.871   6.103   4.160  0.1643 -2.7545 -3.1713
   88MOL   C11021164   1.286   6.093   4.247  0.1857  0.3544  0.3783
   88MOL   C11121165   1.441   6.093   4.265 -0.1159 -0.4090 -0.0559
   88MOL   C11221166   1.499   6.188   4.167  0.0769 -0.8923 -0.3830
   88MOL   O11321167   1.477   6.307   4.173  0.2627 -0.0351  0.4758
   88MOL   O11421168   1.558   6.121   4.070  0.3605 -0.0116  0.3117
   88MOL   C11521169   1.576   6.193   3.944 -0.0219 -1.0880  0.4546
   88MOL   H11621170   1.246   6.149   4.163 -0.4777 -1.0064 -0.2325
   88MOL   H11721171   1.241   6.135   4.337 -0.5321  0.8384 -0.2108
   88MOL   H11821172   1.483   5.995   4.242  1.7747  0.1370  0.9266
   88MOL   H11921173   1.486   6.234   3.898  1.0930 -0.3140 -1.0979
   88MOL   H12021174   1.628   6.131   3.871  0.1093 -2.6999  1.8851
   88MOL   H12121175   1.644   6.276   3.962  0.0023 -1.0022 -0.0122
   88MOL   C12221176   1.497   6.133   4.412 -0.0521  0.4137  0.0104
   88MOL   C12321177   1.585   6.013   4.477 -0.0319 -0.1777 -0.6276
   88MOL   C12421178   1.697   5.976   4.380 -0.3438  0.3004 -0.0487
   88MOL   O12521179   1.690   5.872   4.312 -1.2557  0.1505  0.2936
   88MOL   O12621180   1.794   6.073   4.367  0.0019 -0.1673 -0.1459
   88MOL   C12721181   1.889   6.058   4.262 -0.7971  0.3419 -0.3780
   88MOL   H12821182   1.555   6.226   4.415 -1.7027  1.4183  1.9641
   88MOL   H12921183   1.420   6.158   4.486  0.3548 -0.9557  0.9125
   88MOL   H13021184   1.524   5.922   4.483  1.5866 -1.1340  2.3107
   88MOL   H13121185   1.953   5.969   4.265 -2.0600 -0.6398 -1.9286
   88MOL   H13221186   1.958   6.142   4.265  0.1875 -0.4575 -0.3674
   88MOL   H13321187   1.824   6.047   4.175  0.4017 -0.0031 -1.2405
   88MOL   C13421188   1.638   6.041   4.622 -0.8212 -0.9957 -0.1306
   88MOL   C13521189   1.691   5.920   4.701 -0.1723  0.3331 -0.2499
   88MOL   C13621190   1.739   5.976   4.834  0.1831 -0.0990  0.5570
   88MOL   O13721191   1.669   6.053   4.898 -0.4443 -0.6216  0.0576
   88MOL   O13821192   1.866   5.936   4.865  0.1344 -0.0638 -0.4937
   88MOL   C13921193   1.929   5.996   4.979  0.7382  0.1015 -0.6879
   88MOL   H14021194   1.719   6.112   4.609  0.2528 -2.0313  0.7567
   88MOL   H14121195   1.557   6.097   4.670  0.1449  0.7042 -0.4736
   88MOL   H14221196   1.779   5.884   4.648  0.4420 -0.9254  1.5768
   88MOL   H14321197   2.037   6.007   4.968  1.1081 -1.9528  0.5945
   88MOL   H14421198   1.921   5.943   5.075 -0.0783  1.1476 -0.1642
   88MOL   H14521199   1.888   6.096   4.994  0.6984  0.0495 -0.4447
   88MOL   C14621200   1.589   5.803   4.713 -1.0986  0.3984  0.0387
   88MOL   C14721201   1.630   5.683   4.809  0.2020  0.0583  0.4250
   88MOL   C14821202   1.519   5.668   4.916  0.0348  0.5598 -0.6302
   88MOL   O14921203   1.435   5.581   4.907 -0.4653 -0.2779 -0.6292
   88MOL   O15021204   1.532   5.754   5.015 -0.3718 -0.5868  0.1539
   88MOL   C15121205   1.417   5.752   5.104  0.3742 -0.4982  0.2643
   88MOL   H15221206   1.491   5.848   4.728 -1.1175 -0.2609  2.0358
   88MOL   H15321207   1.591   5.766   4.611  0.7079  2.9400 -0.8883
   88MOL   H15421208   1.719   5.696   4.870  0.6149  0.2975 -0.2165
   88MOL   H15521209   1.329   5.774   5.043 -1.0678 -0.8502  2.1651
   88MOL   H15621210   1.420   5.828   5.181  2.1687  0.2347 -0.4966
   88MOL   H15721211   1.408   5.653   5.149  0.4447 -1.2086 -1.2408
   88MOL   C15821212   1.653   5.552   4.734  0.5714  0.4054 -0.0117
   88MOL   C15921213   1.769   5.550   4.636 -0.0646 -0.5849 -0.2549
   88MOL   C16021214   1.903   5.606   4.687 -0.3388  0.2645 -0.0279
   88MOL   O16121215   1.962   5.696   4.626 -0.0708 -0.1040  0.1418
   88MOL   O16221216   1.937   5.546   4.801  0.3540  0.1239 -0.2374
   88MOL   C16321217   2.065   5.574   4.857  0.3271 -0.2906 -0.6375
   88MOL   H16421218   1.672   5.464   4.797  2.2147  1.0177  0.3836
   88MOL   H16521219   1.564   5.529   4.676  1.2810 -0.4440 -0.7699
   88MOL   H16621220   1.741   5.619   4.556 -0.8386 -0.9895 -0.3306
   88MOL   H16721221   2.143   5.543   4.789  1.8939 -0.2620  1.0989
   88MOL   H16821222   2.077   5.523   4.953 -0.6030  1.3622  0.3879
   88MOL   H16921223   2.074   5.682   4.864 -0.7771 -0.2866  1.1141
   88MOL   C17021224   1.797   5.402   4.585 -0.3576 -0.4645 -0.4419
   88MOL   C17121225   1.675   5.333   4.518  0.6338  0.8421  0.2555
   88MOL   C17221226   1.598   5.420   4.415 -0.4937  0.2054  0.2105
   88MOL   O17321227   1.478   5.429   4.416  0.6069  0.1592  1.0884
   88MOL   O17421228   1.668   5.485   4.326  0.0439  0.1072  0.2523
   88MOL   C17521229   1.612   5.567   4.230  0.2298  0.0775 -0.5711
   88MOL   H17621230   1.884   5.402   4.519  0.9662 -0.6396  1.2340
   88MOL   H17721231   1.815   5.332   4.667 -1.0421 -1.7490 -1.3718
   88MOL   H17821232   1.608   5.325   4.604  2.4190  2.5322  1.8601
   88MOL   H17921233   1.587   5.654   4.291  1.5229 -0.1187  0.2533
   88MOL   H18021234   1.531   5.519   4.174  0.8291  0.6206 -1.9324
   88MOL   H18121235   1.692   5.603   4.166 -0.0468  2.0969  0.1673
   88MOL   C18221236   1.703   5.191   4.469  0.2730  0.8792  0.2860
   88MOL   C18321237   1.582   5.108   4.409 -0.5148 -0.8391 -0.1525
   88MOL   C18421238   1.636   5.001   4.315  0.1967 -0.1087 -0.2264
   88MOL   O18521239   1.617   5.011   4.193  0.1906 -0.5723 -0.7041
   88MOL   O18621240   1.695   4.902   4.389 -0.1436 -0.3351  0.3251
   88MOL   C18721241   1.729   4.789   4.315 -0.5482  0.1953  0.1038
   88MOL   H18821242   1.784   5.188   4.396 -0.9866  1.8637 -1.1899
   88MOL   H18921243   1.741   5.132   4.552 -2.9123 -0.7216  0.6868
   88MOL   H19021244   1.517   5.179   4.357  0.3182 -0.5453 -0.7921
   88MOL   H19121245   1.796   4.737   4.383 -0.6572  0.9020  0.7567
   88MOL   H19221246   1.789   4.801   4.225  1.8040  1.8237  1.8332
   88MOL   H19321247   1.637   4.736   4.291  0.1365 -1.3068  0.7403
   88MOL   C19421248   1.481   5.063   4.516 -0.2196 -0.0008 -0.0027
   88MOL   C19521249   1.348   4.993   4.472 -0.4804  0.4068  0.2417
   88MOL   C19621250   1.358   4.841   4.477  0.0851  0.4220  0.1904
   88MOL   O19721251   1.382   4.783   4.367  0.0218  0.1909 -0.0171
   88MOL   O19821252   1.340   4.779   4.598  0.2092 -0.5404 -0.1088
   88MOL   C19921253   1.333   4.637   4.598 -0.1725 -0.1142 -0.2062
   88MOL   H20021254   1.533   5.011   4.597  0.8084 -0.2405 -0.7984
   88MOL   H20121255   1.458   5.161   4.557  2.4612  0.7199 -0.1445
   88MOL   H20221256   1.345   5.025   4.368 -2.5675 -2.5057 -0.6669
   88MOL   H20321257   1.240   4.611   4.548 -1.7018  3.0750  0.7960
   88MOL   H20421258   1.335   4.593   4.698 -3.6393  0.2481  0.0986
   88MOL   H20521259   1.416   4.593   4.544  0.4896  2.1306 -1.0673
   88MOL   C20621260   1.224   5.055   4.551  0.0864 -0.0287 -0.5438
   88MOL   C20721261   1.084   4.996   4.536  0.5585  0.3287  0.3079
   88MOL   C20821262   0.985   5.068   4.636  0.9131  0.1670 -1.2644
   88MOL   O20921263   0.973   5.019   4.747  0.0542  0.0634 -0.1063
   88MOL   O21021264   0.933   5.186   4.594  0.8944  0.5877 -0.0411
   88MOL   C21121265   0.842   5.251   4.685  0.3845 -0.0216  0.2420
   88MOL   H21221266   1.245   5.047   4.657  2.0186  0.6996 -0.8534
   88MOL   H21321267   1.226   5.161   4.524 -2.2174 -0.6115 -3.3504
   88MOL   H21421268   1.072   4.889   4.557 -4.2973  0.5365 -0.9410
   88MOL   H21521269   0.751   5.191   4.699 -1.1282  1.8590 -1.2469
   88MOL   H21621270   0.816   5.351   4.650 -0.8197 -0.5052 -0.2988
   88MOL   H21721271   0.891   5.265   4.781  1.6579  1.1014 -0.5516
   88MOL   C21821272   1.041   5.009   4.390  1.0282 -0.1445  0.0021
   88MOL   C21921273   0.938   4.901   4.347 -0.8039  0.2181  0.3475
   88MOL   C22021274   0.856   4.965   4.231  0.0267  0.3528 -0.2768
   88MOL   O22121275   0.731   4.950   4.231 -0.2058  0.1149 -0.0845
   88MOL   O22221276   0.928   5.020   4.134 -0.2417 -0.0687 -0.0715
   88MOL   C22321277   0.880   5.025   4.003  0.0345 -0.0627  0.1274
   88MOL   H22421278   1.013   5.111   4.364  1.1397  0.0133  0.5185
   88MOL   H22521279   1.131   4.991   4.331  0.3567  2.3138 -1.8840
   88MOL   H22621280   0.863   4.886   4.425 -0.3146 -1.6525  0.4680
   88MOL   H22721281   0.957   5.034   3.926  0.9744  0.7905  1.1375
   88MOL   H22821282   0.809   5.107   3.993 -2.1188 -1.9689 -0.6631
   88MOL   H22921283   0.819   4.939   3.975  0.4120  0.4656 -2.4757
   88MOL   C23021284   1.008   4.760   4.308 -0.1610  0.2232 -0.6278
   88MOL   C23121285   0.909   4.641   4.324  0.5472 -0.7020 -0.9243
   88MOL   C23221286   0.875   4.597   4.469 -0.3350 -0.4638  0.0957
   88MOL   O23321287   0.771   4.553   4.504  0.5552  0.3720  0.0086
   88MOL   O23421288   0.974   4.613   4.565  0.4102  0.0649 -0.1420
   88MOL   C23521289   0.967   4.566   4.695 -0.2419  0.3861 -0.9953
   88MOL   H23621290   1.046   4.768   4.206 -1.0441  1.7082 -0.8587
   88MOL   H23721291   1.099   4.745   4.367 -1.0107 -0.0858  0.6312
   88MOL   H23821292   0.949   4.559   4.266  0.8841 -0.1091 -1.5340
   88MOL   H23921293   0.945   4.459   4.700  2.4260 -0.1239  1.0367
   88MOL   H24021294   0.898   4.623   4.758 -1.8136 -1.4912 -0.9917
   88MOL   H24121295   1.071   4.580   4.725 -1.2897  1.8675  2.2733
   88MOL   H24221296   0.814   4.666   4.277  0.1629 -0.0056  0.1849
   89MOL     C121297   4.550   7.395   0.542  0.4608  0.2605 -0.0652
   89MOL     C221298   4.518   7.421   0.390  0.3644 -0.6378  0.0721
   89MOL     C321299   4.646   7.457   0.314  0.1178 -0.0526 -0.1452
   89MOL     O421300   4.757   7.439   0.363  0.3180 -0.3655  0.2850
   89MOL     O521301   4.623   7.522   0.200 -0.1583 -0.2748 -0.0024
   89MOL     C621302   4.730   7.575   0.116 -0.2437  0.1236 -0.4749
   89MOL     H721303   4.455   7.399   0.597  1.1234  2.2677  0.9778
   89MOL     H821304   4.619   7.466   0.587  0.9113 -1.1064  1.4373
   89MOL     H921305   4.451   7.507   0.392 -0.1492 -0.8887 -3.1152
   89MOL    H1021306   4.795   7.489   0.099 -0.4748  0.5198 -3.6024
   89MOL    H1121307   4.782   7.657   0.166 -1.4899  1.2270 -0.9736
   89MOL    H1221308   4.686   7.609   0.023  0.8640  2.9068 -0.0187
   89MOL    H1321309   4.599   7.299   0.558  1.6240  0.9349  0.4369
   89MOL    C1421310   4.446   7.303   0.322 -0.3518 -0.8973  0.2686
   89MOL    C1521311   4.313   7.265   0.382  0.2841  1.2913 -0.8489
   89MOL    C1621312   4.216   7.380   0.402 -0.1515 -0.7724  0.4877
   89MOL    O1721313   4.215   7.443   0.510 -0.2182 -0.1373  0.3720
   89MOL    O1821314   4.142   7.416   0.296 -0.2723 -0.0675 -0.3638
   89MOL    C1921315   4.045   7.531   0.299 -0.0915 -0.4371  0.8732
   89MOL    H2021316   4.432   7.337   0.219  0.0370  0.7543  0.7495
   89MOL    H2121317   4.520   7.222   0.325  2.5924  1.7328  1.1065
   89MOL    H2221318   4.326   7.220   0.481  1.0508 -1.3018 -2.0909
   89MOL    H2321319   3.972   7.484   0.365  0.9360 -0.9088  1.7013
   89MOL    H2421320   3.998   7.540   0.201 -0.1276 -0.5953  0.8760
   89MOL    H2521321   4.089   7.624   0.333  0.1292 -0.2526  0.1066
   89MOL    C2621322   4.252   7.141   0.310 -0.2048 -0.2522  0.3035
   89MOL    C2721323   4.117   7.084   0.361 -0.8899  0.2534  0.5292
   89MOL    C2821324   4.072   6.978   0.266 -0.0434  0.6980  0.3824
   89MOL    O2921325   4.052   7.010   0.150  0.1682 -0.6565  0.3935
   89MOL    O3021326   4.079   6.852   0.308 -0.3423  0.1209 -0.2758
   89MOL    C3121327   4.008   6.749   0.245  0.0962  0.1768  0.5988
   89MOL    H3221328   4.243   7.167   0.205 -2.0935  1.0071  0.7287
   89MOL    H3321329   4.331   7.067   0.318  0.0788  0.0846  0.6680
   89MOL    H3421330   4.042   7.163   0.355  0.4160  1.4627 -0.2252
   89MOL    H3521331   4.022   6.660   0.305 -0.9183  1.2497  2.4878
   89MOL    H3621332   4.051   6.741   0.145 -2.5053  3.0249 -0.8319
   89MOL    H3721333   3.905   6.785   0.243  0.9052  2.5935  1.0310
   89MOL    C3821334   4.117   7.034   0.509  0.1933 -0.0578 -0.4066
   89MOL    C3921335   3.977   7.044   0.583 -0.2149 -0.2330  0.3083
   89MOL    C4021336   3.930   7.193   0.575 -0.5221  0.4720  0.1123
   89MOL    O4121337   3.861   7.232   0.489  0.2960 -0.2559  0.2867
   89MOL    O4221338   3.975   7.273   0.676  0.1102 -0.2991  0.3914
   89MOL    C4321339   3.955   7.411   0.683 -0.6751  0.4270 -0.6259
   89MOL    H4421340   4.148   6.931   0.528  1.1223  0.5481  1.5499
   89MOL    H4521341   4.186   7.095   0.568  2.0323 -1.5767 -0.9337
   89MOL    H4621342   4.004   7.028   0.687  0.5929  1.6428  0.4071
   89MOL    H4721343   3.968   7.447   0.581  2.0630  0.6964 -0.2092
   89MOL    H4821344   4.043   7.451   0.733  0.5537 -1.2896 -1.3865
   89MOL    H4921345   3.867   7.446   0.737 -0.5512 -1.1266  0.6139
   89MOL    C5021346   3.882   6.940   0.529  0.0692  0.1670  0.1704
   89MOL    C5121347   3.760   6.884   0.604  0.1364 -0.4012 -0.6126
   89MOL    C5221348   3.780   6.844   0.753  0.5703  0.2326 -0.4238
   89MOL    O5321349   3.685   6.855   0.837 -0.9453 -0.1757  0.0829
   89MOL    O5421350   3.893   6.787   0.772  0.5326  0.8848  0.2505
   89MOL    C5521351   3.947   6.757   0.895  0.3611  1.0026  0.0577
   89MOL    H5621352   3.854   6.959   0.425 -0.1756  0.3018  0.2589
   89MOL    H5721353   3.941   6.849   0.525 -0.1752 -0.0499  1.4061
   89MOL    H5821354   3.752   6.787   0.555 -1.5957 -1.8490  2.3912
   89MOL    H5921355   3.961   6.649   0.889 -0.2321  0.8376  1.3875
   89MOL    H6021356   3.881   6.771   0.981 -1.1836  1.4614 -1.1853
   89MOL    H6121357   4.037   6.811   0.923  1.3764 -0.3471 -0.5552
   89MOL    C6221358   3.635   6.976   0.579  0.2549 -0.0381  0.8652
   89MOL    C6321359   3.558   6.919   0.459  0.6739  0.3362 -0.3625
   89MOL    C6421360   3.462   6.808   0.503 -0.1537  0.5685  0.0785
   89MOL    O6521361   3.482   6.691   0.468  0.0282 -0.0626 -0.2794
   89MOL    O6621362   3.371   6.841   0.587  0.1527 -0.1036 -0.3790
   89MOL    C6721363   3.286   6.744   0.644 -0.9395 -0.0313 -0.0680
   89MOL    H6821364   3.578   6.996   0.670 -0.6314 -1.1813  0.5687
   89MOL    H6921365   3.670   7.075   0.550  1.3857 -0.3100  1.3030
   89MOL    H7021366   3.636   6.870   0.400  1.3716  1.7276 -0.6007
   89MOL    H7121367   3.242   6.779   0.737  1.4513 -0.1159  1.1405
   89MOL    H7221368   3.339   6.652   0.670 -0.8080 -0.6725 -2.4326
   89MOL    H7321369   3.213   6.732   0.564 -1.0528  2.0927 -0.3131
   89MOL    C7421370   3.478   7.024   0.384 -0.4093 -0.2890  0.0720
   89MOL    C7521371   3.547   7.069   0.248  0.8683 -0.3915 -0.1472
   89MOL    C7621372   3.531   6.959   0.142  0.0738  0.1845  0.5142
   89MOL    O7721373   3.429   6.899   0.111 -0.2212  0.4442 -0.5420
   89MOL    O7821374   3.654   6.928   0.085 -0.3873 -0.0695 -0.3658
   89MOL    C7921375   3.663   6.807   7.931  0.0774  0.2182  0.6434
   89MOL    H8021376   3.373   6.999   0.367 -0.0205 -1.1633 -1.0575
   89MOL    H8121377   3.476   7.109   0.452 -0.0739 -0.1764 -0.0562
   89MOL    H8221378   3.654   7.070   0.269  1.8390 -0.1763 -4.5975
   89MOL    H8321379   3.693   6.730   0.069 -0.3295 -0.7935 -0.2858
   89MOL    H8421380   3.743   6.818   7.857  0.8526  0.0068  1.4306
   89MOL    H8521381   3.564   6.791   7.889 -0.0040  0.2122  0.8339
   89MOL    C8621382   3.512   7.204   0.181  0.1075  0.4208 -0.2631
   89MOL    C8721383   3.361   7.229   0.142 -0.2380 -0.0170 -0.0836
   89MOL    C8821384   3.295   7.317   0.254  0.3651 -0.4878  1.0904
   89MOL    O8921385   3.216   7.269   0.335  0.1069  0.4010 -0.2579
   89MOL    O9021386   3.334   7.455   0.252 -0.3417  0.0351  0.0341
   89MOL    C9121387   3.255   7.549   0.324  0.1250 -1.0421  0.0450
   89MOL    H9221388   3.547   7.273   0.257  2.3521 -0.4789 -0.4403
   89MOL    H9321389   3.571   7.201   0.089 -1.4929 -0.3529 -1.2738
   89MOL    H9421390   3.317   7.133   0.116 -0.6135 -0.3217  1.6192
   89MOL    H9521391   3.151   7.547   0.291 -0.2615 -2.1053  1.3074
   89MOL    H9621392   3.292   7.650   0.303 -0.1289 -1.1012 -0.6845
   89MOL    H9721393   3.246   7.542   0.432  1.3600 -1.2056  0.1520
   89MOL    C9821394   3.359   7.308   0.006 -0.5824  0.5638 -0.1460
   89MOL    C9921395   3.216   7.340   7.890  0.0501  0.5914 -0.2590
   89MOL   C10021396   3.227   7.440   7.772  0.3819  0.2240 -0.6710
   89MOL   O10121397   3.197   7.556   7.792 -0.3097 -0.1764  0.0929
   89MOL   O10221398   3.271   7.391   7.660  0.2296  0.0822  0.1025
   89MOL   C10321399   3.251   7.460   7.539 -0.2031 -0.6928 -0.5230
   89MOL   H10421400   3.425   7.395   0.006  0.6522 -0.3434 -0.6884
   89MOL   H10521401   3.403   7.231   7.874  0.3281 -1.8079  3.1599
   89MOL   H10621402   3.149   7.382   0.033 -0.0383 -0.3745  0.2122
   89MOL   H10721403   3.296   7.559   7.531 -1.0662 -0.2207  0.3233
   89MOL   H10821404   3.147   7.460   7.508  0.1559 -1.5793 -1.7451
   89MOL   H10921405   3.300   7.405   7.459  1.1013  1.1990 -1.0684
   89MOL   C11021406   3.148   7.211   7.839 -0.2015 -0.4912  0.5032
   89MOL   C11121407   3.060   7.119   0.006 -0.1578 -0.2134  0.3883
   89MOL   C11221408   2.923   7.186   0.022 -1.1033 -0.0065 -0.4378
   89MOL   O11321409   2.905   7.274   0.107 -0.2192 -0.3370 -0.3258
   89MOL   O11421410   2.831   7.139   7.871  0.5511 -0.2248  0.2042
   89MOL   C11521411   2.704   7.197   7.867 -0.0511 -0.1232  0.5527
   89MOL   H11621412   3.083   7.225   7.753  0.3656  1.4120  0.3629
   89MOL   H11721413   3.222   7.155   7.782  0.3096 -0.5983  1.2658
   89MOL   H11821414   3.107   7.125   0.104  1.9695 -0.3113 -0.6192
   89MOL   H11921415   2.719   7.305   7.872 -1.7898  0.2106 -0.5945
   89MOL   H12021416   2.652   7.147   0.016  0.6278  0.2077  1.1853
   89MOL   H12121417   2.650   7.169   7.776 -0.9442 -0.7301  1.2597
   89MOL   C12221418   3.055   6.970   7.914  0.7216  0.3231 -0.3446
   89MOL   C12321419   2.981   6.887   0.086  0.1806 -0.5358  1.0940
   89MOL   C12421420   2.949   6.746   0.034  0.6498 -0.3890 -0.0547
   89MOL   O12521421   2.835   6.697   0.033  0.2225  0.1251  0.1254
   89MOL   O12621422   3.063   6.688   7.915 -0.3358  0.7321  0.0216
   89MOL   C12721423   3.049   6.560   7.855 -0.5417  0.1257  0.3096
   89MOL   H12821424   3.018   6.943   7.815  0.7848  0.6100 -0.4463
   89MOL   H12921425   3.160   6.941   7.910  0.8638  0.3084  2.3537
   89MOL   H13021426   2.877   6.920   0.089  0.8303  1.5763  0.5698
   89MOL   H13121427   2.984   6.562   7.768 -1.6489 -1.1949  1.0804
   89MOL   H13221428   3.013   6.497   0.004 -2.8769  1.4591  0.3475
   89MOL   H13321429   3.144   6.525   7.813  0.5109  0.9564  1.9479
   89MOL   C13421430   3.052   6.889   0.232  0.3277 -0.3280  0.4189
   89MOL   C13521431   2.993   6.995   0.338  0.2142  0.1362  0.2292
   89MOL   C13621432   2.845   6.955   0.343 -0.0154  0.0744  0.5277
   89MOL   O13721433   2.757   7.030   0.301 -0.0084 -0.6035  0.3624
   89MOL   O13821434   2.820   6.826   0.390 -0.2613 -0.0534  0.1756
   89MOL   C13921435   2.694   6.770   0.386 -0.2357 -0.2903 -0.5815
   89MOL   H14021436   3.038   6.786   0.265 -0.1433 -1.1552 -2.2616
   89MOL   H14121437   3.157   6.908   0.214  0.2455 -1.3324 -1.2676
   89MOL   H14221438   3.013   7.093   0.295  1.1557  0.1135  0.5868
   89MOL   H14321439   2.701   6.674   0.439 -0.7170 -0.1935 -0.3335
   89MOL   H14421440   2.673   6.758   0.280  0.7590  1.6242 -1.0163
   89MOL   H14521441   2.620   6.841   0.422  0.2881 -0.2639  0.4484
   89MOL   C14621442   3.057   6.976   0.481 -0.4370 -0.5797 -0.5281
   89MOL   C14721443   3.050   7.102   0.568  0.0899  0.4194 -0.7211
   89MOL   C14821444   2.917   7.141   0.618  0.3906 -0.2443 -0.4141
   89MOL   O14921445   2.877   7.257   0.601 -0.4189  0.1492 -0.1380
   89MOL   O15021446   2.840   7.040   0.669  0.5746 -0.4741 -0.3504
   89MOL   C15121447   2.708   7.059   0.715  0.0255 -0.2020  0.4042
   89MOL   H15221448   3.021   6.891   0.538 -1.2318 -0.7476 -1.2666
   89MOL   H15321449   3.163   6.959   0.461 -0.3495 -0.3023 -0.2967
   89MOL   H15421450   3.067   7.182   0.496 -2.5707  1.7871  0.1387
   89MOL   H15521451   2.655   6.965   0.711  1.4541 -0.9641 -1.2126
   89MOL   H15621452   2.659   7.135   0.654 -0.3643 -1.2554 -0.6121
   89MOL   H15721453   2.708   7.083   0.821  0.0051  1.6929  0.0092
   89MOL   C15821454   3.164   7.106   0.671 -0.7192 -0.0859 -0.0510
   89MOL   C15921455   3.165   7.226   0.773  0.5718 -0.1621  0.4171
   89MOL   C16021456   3.256   7.179   0.887 -1.0577 -0.7420 -0.0710
   89MOL   O16121457   3.217   7.161   0.997 -0.0309  0.1598  0.0196
   89MOL   O16221458   3.385   7.173   0.852  0.5655 -0.0784  0.3791
   89MOL   C16321459   3.485   7.128   0.945 -0.0203  0.1434  0.5448
   89MOL   H16421460   3.156   7.015   0.731 -0.9878  1.4232  2.2379
   89MOL   H16521461   3.264   7.107   0.627 -0.9166 -1.0754 -0.5489
   89MOL   H16621462   3.068   7.232   0.824  0.0928  1.6667 -0.6186
   89MOL   H16721463   3.458   7.035   0.993 -1.6422  0.1358 -0.3366
   89MOL   H16821464   3.500   7.195   1.030  0.0556 -0.5464  1.0711
   89MOL   H16921465   3.578   7.118   0.889  1.6182  1.7632  2.8631
   89MOL   C17021466   3.201   7.366   0.707 -0.5548 -0.0117 -0.4431
   89MOL   C17121467   3.222   7.489   0.804 -0.6761 -0.4069 -0.5026
   89MOL   C17221468   3.353   7.564   0.772  0.4980 -0.2155 -0.6643
   89MOL   O17321469   3.365   7.667   0.705  0.3433  0.1630 -0.9043
   89MOL   O17421470   3.461   7.509   0.836  0.3299 -0.1590 -0.0765
   89MOL   C17521471   3.575   7.587   0.860 -0.3888  0.4902 -0.3172
   89MOL   H17621472   3.302   7.351   0.667  0.2758  2.0949  0.7205
   89MOL   H17721473   3.144   7.375   0.615 -1.6593 -0.0353  0.2352
   89MOL   H17821474   3.208   7.460   0.907  1.5375  1.0571  0.2558
   89MOL   H17921475   3.667   7.530   0.845  0.5594  1.3648  1.9560
   89MOL   H18021476   3.576   7.629   0.960 -1.3726  1.5964 -0.7526
   89MOL   H18121477   3.585   7.679   0.803  0.4328  1.5525  1.5180
   89MOL   C18221478   3.104   7.588   0.782 -0.5714 -0.2332 -0.5162
   89MOL   C18321479   2.966   7.529   0.820 -0.2434 -0.1853  0.1407
   89MOL   C18421480   2.962   7.496   0.977  0.1329  0.8415  0.6572
   89MOL   O18521481   2.974   7.379   1.011 -0.0446 -0.3525 -0.5487
   89MOL   O18621482   2.945   7.601   1.052  0.2052  0.2860 -0.1766
   89MOL   C18721483   2.945   7.601   1.186  0.0749 -0.0899 -0.3257
   89MOL   H18821484   3.118   7.669   0.854 -2.9608 -1.1904  1.1075
   89MOL   H18921485   3.113   7.629   0.682  0.0144  0.1140 -0.3217
   89MOL   H19021486   2.949   7.433   0.771 -1.1849  0.0871 -0.0716
   89MOL   H19121487   3.005   7.522   1.231 -0.0754 -0.7173 -1.2001
   89MOL   H19221488   2.844   7.587   1.222  0.1214 -1.9751 -0.8869
   89MOL   H19321489   2.983   7.694   1.228  0.1468 -0.0199 -0.5414
   89MOL   C19421490   2.844   7.616   0.787 -0.2086  0.0567 -0.7332
   89MOL   C19521491   2.711   7.540   0.743  0.5688 -0.9238 -0.0572
   89MOL   C19621492   2.648   7.465   0.861  0.0054  0.6732  0.1486
   89MOL   O19721493   2.652   7.341   0.859  0.2480 -0.1391 -0.4278
   89MOL   O19821494   2.587   7.540   0.958 -0.4568  0.3034  0.1011
   89MOL   C19921495   2.505   7.479   1.047 -0.1289 -0.3627  0.2596
   89MOL   H20021496   2.837   7.690   0.866  1.3980  0.5272 -1.0077
   89MOL   H20121497   2.884   7.675   0.705 -1.5433  1.6256 -0.2760
   89MOL   H20221498   2.750   7.464   0.674 -0.1352 -2.6233  1.3829
   89MOL   H20321499   2.421   7.548   1.061 -1.2749 -1.7286  0.2677
   89MOL   H20421500   2.551   7.464   1.144  1.4305 -1.9978 -0.6933
   89MOL   H20521501   2.466   7.383   1.011 -0.6225  0.1969 -0.7366
   89MOL   C20621502   2.602   7.626   0.675  0.0782 -0.2038  0.3380
   89MOL   C20721503   2.483   7.554   0.605  0.1960 -0.1629  0.1488
   89MOL   C20821504   2.543   7.426   0.537  0.7138  0.2236  0.3981
   89MOL   O20921505   2.508   7.307   0.553 -0.2034  1.1587 -1.0383
   89MOL   O21021506   2.634   7.465   0.448 -0.3713  0.3421 -0.0835
   89MOL   C21121507   2.701   7.372   0.366 -0.1963 -0.3970  0.2164
   89MOL   H21221508   2.553   7.688   0.749 -0.6157 -0.0571 -0.2420
   89MOL   H21321509   2.652   7.697   0.608 -0.0618  0.0102  0.4611
   89MOL   H21421510   2.447   7.621   0.526 -1.0950 -2.7223 -1.5098
   89MOL   H21521511   2.680   7.269   0.394 -1.8339 -0.0383  0.3641
   89MOL   H21621512   2.807   7.388   0.389 -0.7938  2.6418  1.0898
   89MOL   H21721513   2.683   7.395   0.261  1.4721 -2.7763 -0.6392
   89MOL   C21821514   2.377   7.510   0.704  1.0553 -0.2805 -1.1216
   89MOL   C21921515   2.236   7.495   0.642 -0.6180  0.5173 -1.0637
   89MOL   C22021516   2.148   7.404   0.735 -0.2712 -0.5022 -0.7338
   89MOL   O22121517   2.118   7.444   0.846  0.1976  0.0565 -0.1198
   89MOL   O22221518   2.138   7.276   0.693 -0.4170 -0.1698  0.0637
   89MOL   C22321519   2.041   7.192   0.756 -0.3199  0.3394 -0.5396
   89MOL   H22421520   2.398   7.418   0.758 -2.1982 -1.0841 -1.0842
   89MOL   H22521521   2.362   7.590   0.777  1.8856 -0.1195 -1.1207
   89MOL   H22621522   2.255   7.436   0.553  0.8829  1.3455 -1.3166
   89MOL   H22721523   2.065   7.173   0.861  0.6783 -1.6603 -1.0994
   89MOL   H22821524   2.039   7.092   0.713  1.4573 -0.3799  1.0074
   89MOL   H22921525   1.941   7.236   0.755 -0.8019 -0.7052 -3.6719
   89MOL   C23021526   2.174   7.627   0.600  0.6227 -0.5097 -0.6988
   89MOL   C23121527   2.142   7.649   0.449  0.0322 -0.4414 -0.9959
   89MOL   C23221528   2.043   7.761   0.409  0.1665  0.4499 -0.2038
   89MOL   O23321529   2.010   7.847   0.488 -0.0739  0.5689 -0.3958
   89MOL   O23421530   1.998   7.739   0.282  0.0058 -0.8435 -0.0694
   89MOL   C23521531   1.913   7.840   0.219  0.0718  0.2615  0.1667
   89MOL   H23621532   2.087   7.650   0.661  1.0643  1.3558 -0.7493
   89MOL   H23721533   2.229   7.711   0.643  0.3741  0.1618 -1.6820
   89MOL   H23821534   2.117   7.551   0.410  1.8423 -1.4776  0.4066
   89MOL   H23921535   1.859   7.897   0.294  1.8463 -0.2570  1.8724
   89MOL   H24021536   1.846   7.786   0.152  0.1154 -0.9841  1.1302
   89MOL   H24121537   1.970   7.916   0.165 -1.1661  0.1494 -1.3476
   89MOL   H24221538   2.232   7.667   0.390  0.1848  0.4296 -0.5030
   90MOL     C121539   0.865   5.772   5.662  0.3687  0.1415 -0.1805
   90MOL     C221540   0.761   5.723   5.769  0.3147  0.2513 -0.2933
   90MOL     C321541   0.789   5.582   5.827 -0.1458  0.5529  0.2165
   90MOL     O421542   0.899   5.523   5.818 -0.1284  0.3636 -0.0302
   90MOL     O521543   0.676   5.523   5.859  0.6483  0.1362  0.3148
   90MOL     C621544   0.677   5.397   5.926  0.3661  0.1884  0.3186
   90MOL     H721545   0.963   5.770   5.710  0.7771 -2.7485 -1.0349
   90MOL     H821546   0.842   5.874   5.631  0.3241  0.3854  0.6323
   90MOL     H921547   0.670   5.706   5.711  0.3818  0.5893 -0.4985
   90MOL    H1021548   0.671   5.305   5.868  1.2346 -0.0218  0.5518
   90MOL    H1121549   0.587   5.405   5.987 -0.3427  1.4690 -0.8606
   90MOL    H1221550   0.762   5.383   5.993  2.3205  0.3951 -2.0360
   90MOL    H1321551   0.865   5.707   5.574 -0.1220  1.4784 -1.1834
   90MOL    C1421552   0.725   5.821   5.885 -0.9337 -0.5473  0.1785
   90MOL    C1521553   0.623   5.934   5.837  0.4603  1.0183 -0.6530
   90MOL    C1621554   0.506   5.884   5.750  0.2437  0.3049 -0.1664
   90MOL    O1721555   0.481   5.929   5.638 -0.3102  0.8157 -0.0171
   90MOL    O1821556   0.450   5.777   5.814 -0.0775  0.7890  0.1720
   90MOL    C1921557   0.359   5.699   5.749 -0.1539  0.6921 -0.6729
   90MOL    H2021558   0.689   5.780   5.979  0.7999  0.3081  1.2357
   90MOL    H2121559   0.814   5.883   5.897  1.1643 -2.8692 -2.4608
   90MOL    H2221560   0.663   6.000   5.760  1.6276 -0.3426 -1.2282
   90MOL    H2321561   0.325   5.616   5.810 -0.1230  0.0760 -1.4820
   90MOL    H2421562   0.410   5.654   5.664 -0.2835 -0.4500 -0.1485
   90MOL    H2521563   0.275   5.758   5.711  1.0385  1.0770 -2.7874
   90MOL    C2621564   0.579   6.030   5.955  0.6942  0.1648 -0.0868
   90MOL    C2721565   0.491   6.152   5.932  0.7282 -0.4473  0.6666
   90MOL    C2821566   0.458   6.216   6.070 -0.1831  0.2416  0.0721
   90MOL    O2921567   0.506   6.321   6.114  0.3065  0.1288  0.1292
   90MOL    O3021568   0.373   6.141   6.133 -0.0649 -0.4950  0.1143
   90MOL    C3121569   0.340   6.172   6.266  0.2450 -0.1369  0.0850
   90MOL    H3221570   0.520   5.966   6.022 -2.8031  1.6523 -1.6433
   90MOL    H3321571   0.675   6.060   5.996  2.0214 -1.0706 -2.2389
   90MOL    H3421572   0.397   6.116   5.890  1.2344 -2.6957  1.4056
   90MOL    H3521573   0.326   6.280   6.266 -0.2712 -0.1898  1.9281
   90MOL    H3621574   0.424   6.132   6.323  0.3634  0.5054  0.3677
   90MOL    H3721575   0.242   6.133   6.292  0.2459 -0.0912  0.1568
   90MOL    C3821576   0.561   6.252   5.837 -0.5704  0.3547 -0.9394
   90MOL    C3921577   0.495   6.383   5.789  0.3031 -0.3994 -0.0515
   90MOL    C4021578   0.595   6.480   5.721  0.1558 -0.6195  0.5029
   90MOL    O4121579   0.703   6.443   5.679 -0.4087 -0.1245 -0.0536
   90MOL    O4221580   0.556   6.609   5.724  0.6415 -0.2853 -0.4694
   90MOL    C4321581   0.643   6.699   5.665  0.3739 -0.3432 -0.4325
   90MOL    H4421582   0.653   6.276   5.890 -0.2046  0.3271 -1.5448
   90MOL    H4521583   0.587   6.187   5.753  1.7388 -0.0966  0.0761
   90MOL    H4621584   0.468   6.427   5.886  1.7594 -0.9023  0.5949
   90MOL    H4721585   0.740   6.691   5.713  0.3867  0.6839 -0.2814
   90MOL    H4821586   0.598   6.798   5.666  1.8670  0.3605 -1.4731
   90MOL    H4921587   0.645   6.666   5.561  1.6300 -0.0919 -0.4903
   90MOL    C5021588   0.364   6.372   5.712  0.3951 -0.8029  1.2349
   90MOL    C5121589   0.237   6.424   5.782 -0.0898 -0.6395  0.0328
   90MOL    C5221590   0.250   6.573   5.821  0.9977 -0.1234  0.4097
   90MOL    O5321591   0.234   6.608   5.940 -0.1034 -0.5624  0.0117
   90MOL    O5421592   0.265   6.656   5.716 -0.3752  0.1089  0.2886
   90MOL    C5521593   0.267   6.800   5.722 -0.4612  0.2294  0.1726
   90MOL    H5621594   0.375   6.428   5.620 -1.2952  1.3658  2.3184
   90MOL    H5721595   0.353   6.264   5.696  0.8059 -0.7754  0.7309
   90MOL    H5821596   0.225   6.367   5.874  0.9850 -2.2806 -0.8222
   90MOL    H5921597   0.198   6.835   5.799 -0.0719 -0.0190  0.6422
   90MOL    H6021598   0.224   6.839   5.630 -1.1240 -0.8350  0.0228
   90MOL    H6121599   0.366   6.844   5.736 -0.4798  0.7050 -1.1363
   90MOL    C6221600   0.109   6.408   5.696 -0.2494  0.2178  0.2145
   90MOL    C6321601   0.051   6.272   5.664 -0.0029 -0.0678  0.4906
   90MOL    C6421602   0.046   6.184   5.786 -0.7952  0.6572 -0.4807
   90MOL    O6521603   7.894   6.192   5.878 -0.1669 -0.4548 -0.3109
   90MOL    O6621604   0.147   6.087   5.785 -0.2315 -0.1224 -0.1397
   90MOL    C6721605   0.162   6.005   5.903  0.3283 -0.1854  0.6850
   90MOL    H6821606   0.024   6.465   5.732  0.1123  1.2996 -0.6172
   90MOL    H6921607   0.141   6.455   5.603 -1.1008 -1.1546 -0.7990
   90MOL    H7021608   0.119   6.213   5.603 -0.5991 -0.6729  0.4058
   90MOL    H7121609   0.149   6.070   5.989 -4.0713  0.8638 -0.6667
   90MOL    H7221610   0.266   5.974   5.905  0.9226  1.7148  0.5323
   90MOL    H7321611   0.095   5.920   5.913 -0.0467  0.1130  0.7007
   90MOL    C7421612   7.841   6.301   5.604 -0.5392 -1.0877 -0.5978
   90MOL    C7521613   7.765   6.196   5.525  0.5064  0.1959  0.5643
   90MOL    C7621614   7.630   6.247   5.480  0.2720 -0.1437 -0.2788
   90MOL    O7721615   7.542   6.167   5.499 -0.5685 -0.4034  0.1193
   90MOL    O7821616   7.619   6.362   5.422 -0.2486 -0.6524 -0.1284
   90MOL    C7921617   7.499   6.415   5.378  0.0667 -0.6836 -0.3704
   90MOL    H8021618   7.770   6.336   5.679 -0.4873 -2.2742  0.0230
   90MOL    H8121619   7.856   6.393   5.548 -0.5285  0.2205  1.5136
   90MOL    H8221620   7.749   6.110   5.590  4.5509 -0.5478  0.7165
   90MOL    H8321621   7.488   6.521   5.403  4.0022 -0.5546  1.1177
   90MOL    H8421622   7.413   6.360   5.417 -1.1571  2.0933  0.9651
   90MOL    H8521623   7.491   6.408   5.270 -2.0070 -1.9055 -0.1715
   90MOL    C8621624   7.847   6.148   5.401  0.4195 -0.1952 -0.4601
   90MOL    C8721625   7.822   6.011   5.332 -0.5984  0.1074 -0.0148
   90MOL    C8821626   7.690   5.989   5.255  0.2001 -0.1276 -0.0241
   90MOL    O8921627   7.644   5.877   5.235 -0.6475 -0.3836  0.2622
   90MOL    O9021628   7.639   6.101   5.208 -0.1388  0.4363  0.4749
   90MOL    C9121629   7.523   6.091   5.134  0.2355 -0.0285  0.6675
   90MOL    H9221630   7.839   6.231   5.331 -0.6915  0.6398  0.6486
   90MOL    H9321631   0.020   6.145   5.428  1.0260  0.2685 -2.6488
   90MOL    H9421632   7.822   5.936   5.411  1.8934 -2.6321 -2.4905
   90MOL    H9521633   7.531   6.051   5.033  0.0963  1.2602  0.1409
   90MOL    H9621634   7.495   6.195   5.121  1.5945  0.3450  0.6714
   90MOL    H9721635   7.439   6.042   5.184  1.1759 -0.5826  1.7298
   90MOL    C9821636   0.008   5.979   5.240  0.7280  0.4064 -0.3643
   90MOL    C9921637   0.032   5.829   5.195 -0.3381  0.3307  0.4940
   90MOL   C10021638   7.887   5.794   5.069  0.1993  0.5306  0.4600
   90MOL   O10121639   7.853   5.873   4.974  0.0437 -0.9259 -0.0734
   90MOL   O10221640   7.886   5.657   5.060  0.0702  0.0296 -0.2971
   90MOL   C10321641   7.803   5.596   4.972 -0.2072  0.4094  0.5634
   90MOL   H10421642   0.007   6.044   5.152  0.1839  0.2860 -0.4521
   90MOL   H10521643   0.101   5.997   5.294 -0.4800  0.2520  1.8436
   90MOL   H10621644   7.920   5.760   5.266  1.9866 -1.9335 -0.1816
   90MOL   H10721645   7.782   5.495   5.005  0.5263  0.1694  0.3139
   90MOL   H10821646   7.855   5.596   4.876 -2.4738 -0.4741 -0.7043
   90MOL   H10921647   7.709   5.650   4.961 -1.0258 -0.8146  1.4916
   90MOL   C11021648   0.182   5.800   5.168  0.1675  0.0120  0.2150
   90MOL   C11121649   0.274   5.779   5.293  0.7976  0.1997 -0.2031
   90MOL   C11221650   0.224   5.659   5.383 -0.2768  0.4509  0.0007
   90MOL   O11321651   0.183   5.682   5.494 -0.4501  0.3347 -0.1872
   90MOL   O11421652   0.230   5.531   5.334  0.1612  0.1986  0.2115
   90MOL   C11521653   0.155   5.434   5.414  0.2460  0.0404  0.8403
   90MOL   H11621654   0.197   5.718   5.099 -0.7374 -1.3060  1.5450
   90MOL   H11721655   0.221   5.886   5.114  2.0198  1.1422  3.2055
   90MOL   H11821656   0.287   5.863   5.361 -0.3473  0.9338 -0.8639
   90MOL   H11921657   0.168   5.335   5.371  0.9431  1.0018 -1.2587
   90MOL   H12021658   0.048   5.456   5.415  0.1580 -0.3596  0.5027
   90MOL   H12121659   0.189   5.423   5.517 -1.2435 -0.4219  1.2990
   90MOL   C12221660   0.423   5.772   5.242 -0.2859 -0.1884 -0.3558
   90MOL   C12321661   0.522   5.731   5.355  0.9405 -0.4301  0.0425
   90MOL   C12421662   0.561   5.582   5.347 -0.3446  0.1723 -0.4891
   90MOL   O12521663   0.516   5.505   5.259  0.4094  0.4099 -0.0564
   90MOL   O12621664   0.640   5.537   5.452  0.1228  0.1268  0.7926
   90MOL   C12721665   0.683   5.395   5.457  0.1746  0.5017  0.0448
   90MOL   H12821666   0.430   5.704   5.156 -0.5338 -1.4017  0.5786
   90MOL   H12921667   0.447   5.869   5.200  0.9852 -0.6616 -0.7531
   90MOL   H13021668   0.466   5.738   5.449  0.2525  0.9926 -0.4454
   90MOL   H13121669   0.740   5.377   5.365  0.1073 -1.3275  0.3301
   90MOL   H13221670   0.593   5.335   5.470 -0.0509  0.9840  0.7213
   90MOL   H13321671   0.757   5.386   5.537 -0.0266  1.5533  0.3521
   90MOL   C13421672   0.650   5.829   5.361 -0.6568  0.0615 -0.0725
   90MOL   C13521673   0.779   5.789   5.283 -0.3233  0.3555  0.1171
   90MOL   C13621674   0.736   5.793   5.134 -0.3073 -0.2903 -0.7801
   90MOL   O13721675   0.739   5.895   5.068  0.0945  0.1472  0.3239
   90MOL   O13821676   0.700   5.669   5.088 -0.2825 -0.4111 -0.5262
   90MOL   C13921677   0.647   5.665   4.962 -0.8828  0.2127 -0.3728
   90MOL   H14021678   0.614   5.926   5.326  0.3653  0.0902 -1.0828
   90MOL   H14121679   0.673   5.844   5.467 -1.8974 -1.3321  0.4122
   90MOL   H14221680   0.812   5.687   5.304  1.1753  0.4768 -1.5470
   90MOL   H14321681   0.615   5.565   4.935 -1.9562 -0.1754  2.1823
   90MOL   H14421682   0.709   5.716   4.888 -0.3066 -0.3344 -0.2728
   90MOL   H14521683   0.552   5.718   4.965 -0.6413  0.6540 -0.5429
   90MOL   C14621684   0.901   5.887   5.311  0.1747  0.4443 -0.1793
   90MOL   C14721685   1.039   5.827   5.285 -0.2704  0.3344  0.1488
   90MOL   C14821686   1.068   5.771   5.144  0.0593  0.2341 -0.7628
   90MOL   O14921687   1.084   5.651   5.122  0.0318 -0.4009  0.5845
   90MOL   O15021688   1.057   5.864   5.047 -0.3210  0.8062 -0.3678
   90MOL   C15121689   1.024   5.822   4.915 -0.3991 -0.4327 -0.4516
   90MOL   H15221690   0.896   5.983   5.260 -1.0925  0.8870  0.7434
   90MOL   H15321691   0.888   5.905   5.418 -2.9051  1.1004 -0.6323
   90MOL   H15421692   1.045   5.738   5.348  0.9963  1.0802  1.1257
   90MOL   H15521693   0.937   5.756   4.913 -1.9019  1.3664  2.0135
   90MOL   H15621694   1.114   5.771   4.880  0.4037  0.9627 -0.4753
   90MOL   H15721695   1.013   5.903   4.842 -0.6038 -0.8095 -0.8398
   90MOL   C15821696   1.154   5.918   5.339 -0.0639  0.0426  0.1421
   90MOL   C15921697   1.158   5.929   5.491 -0.0905 -0.1168 -0.3522
   90MOL   C16021698   1.229   5.807   5.549 -0.5985 -0.6605 -0.6048
   90MOL   O16121699   1.297   5.726   5.484  0.7313 -0.2507  0.0505
   90MOL   O16221700   1.216   5.802   5.681 -0.0761 -0.0289  0.0685
   90MOL   C16321701   1.254   5.683   5.743  0.1421  0.2601  0.3214
   90MOL   H16421702   1.252   5.885   5.304  0.6669 -1.0120  3.0888
   90MOL   H16521703   1.141   6.006   5.276  0.0021  0.9344  1.3620
   90MOL   H16621704   1.057   5.928   5.532  0.2499  0.9245  0.5214
   90MOL   H16721705   1.249   5.706   5.849  0.0349  0.8254  0.1975
   90MOL   H16821706   1.352   5.644   5.715 -0.2165 -1.1077  0.9528
   90MOL   H16921707   1.181   5.607   5.719  1.4803 -0.7163 -0.7622
   90MOL   C17021708   1.229   6.060   5.536 -0.3374  0.8612 -0.0876
   90MOL   C17121709   1.139   6.182   5.497 -1.2475  0.1220  0.0343
   90MOL   C17221710   1.003   6.178   5.576 -0.3237 -0.3468 -0.0885
   90MOL   O17321711   0.903   6.153   5.515  0.2357 -0.3706  0.4030
   90MOL   O17421712   1.010   6.192   5.712  0.7960 -0.2606 -0.1351
   90MOL   C17521713   0.897   6.181   5.803 -0.5048  0.4429  0.4171
   90MOL   H17621714   1.255   6.067   5.641 -1.8342 -0.8404  0.4205
   90MOL   H17721715   1.325   6.060   5.483  0.7063 -0.7781  1.7181
   90MOL   H17821716   1.126   6.184   5.389  2.6118 -1.2193 -0.5510
   90MOL   H17921717   0.880   6.279   5.849  2.0486  0.4177  1.5231
   90MOL   H18021718   0.908   6.108   5.883  0.0336  0.2010  0.1212
   90MOL   H18121719   0.803   6.151   5.757  0.2769 -1.0823 -0.2052
   90MOL   C18221720   1.207   6.321   5.520 -0.2664 -0.0792 -0.2314
   90MOL   C18321721   1.359   6.327   5.486 -0.2174 -0.3856 -0.8671
   90MOL   C18421722   1.383   6.306   5.332 -0.2645  0.2107 -0.0004
   90MOL   O18521723   1.448   6.219   5.279 -0.4172 -0.2309 -0.4385
   90MOL   O18621724   1.318   6.407   5.260 -0.4434  0.2293  0.8543
   90MOL   C18721725   1.322   6.416   5.122 -0.3586 -0.5968 -0.1480
   90MOL   H18821726   1.161   6.404   5.467  0.7919  1.6140  1.4047
   90MOL   H18921727   1.193   6.348   5.625 -1.9893 -0.0643 -0.4605
   90MOL   H19021728   1.403   6.238   5.531 -0.5252  0.2960  0.8444
   90MOL   H19121729   1.424   6.426   5.084 -0.5882  0.0142 -0.6296
   90MOL   H19221730   1.266   6.500   5.080 -0.8388 -0.5882  0.5010
   90MOL   H19321731   1.268   6.325   5.095  1.3993 -1.8843  0.6275
   90MOL   C19421732   1.429   6.456   5.540 -0.8393 -0.8606 -0.3919
   90MOL   C19521733   1.582   6.448   5.557 -0.2772  0.0034  0.1624
   90MOL   C19621734   1.660   6.527   5.457  0.0926  0.7101 -0.2508
   90MOL   O19721735   1.617   6.628   5.405 -0.2000  0.1476  0.0638
   90MOL   O19821736   1.772   6.466   5.434 -0.3941  0.4664  0.3627
   90MOL   C19921737   1.840   6.502   5.316 -0.4489  0.8018 -0.2402
   90MOL   H20021738   1.402   6.533   5.467 -1.0164 -2.6260 -2.2136
   90MOL   H20121739   1.378   6.496   5.628  1.8117 -1.2008  1.3496
   90MOL   H20221740   1.623   6.348   5.547  2.1485  0.7573  1.9813
   90MOL   H20321741   1.788   6.457   5.232  0.9046  0.1312 -0.7341
   90MOL   H20421742   1.938   6.458   5.330 -0.2009  1.2171 -0.6611
   90MOL   H20521743   1.864   6.608   5.308  0.4207  0.6928  0.8411
   90MOL   C20621744   1.620   6.500   5.698 -0.2449  0.6158  0.3489
   90MOL   C20721745   1.573   6.396   5.807 -0.4114  0.0059 -0.4843
   90MOL   C20821746   1.645   6.257   5.801  0.3216 -0.9885  0.4075
   90MOL   O20921747   1.751   6.239   5.865  0.0997 -0.1608 -0.5278
   90MOL   O21021748   1.571   6.162   5.744  0.5324 -0.3801  0.1623
   90MOL   C21121749   1.616   6.032   5.725  0.7124  0.3472  0.2980
   90MOL   H21221750   1.726   6.521   5.710 -0.1099  0.3129 -0.3299
   90MOL   H21321751   1.578   6.598   5.721 -1.5685 -0.4793  2.8166
   90MOL   H21421752   1.470   6.369   5.787 -0.6045  0.6966 -0.4461
   90MOL   H21521753   1.608   5.985   5.823  0.5038  0.0915  0.1576
   90MOL   H21621754   1.720   6.031   5.691  0.5329  0.3017 -0.2516
   90MOL   H21721755   1.553   5.967   5.665 -0.4368  0.5729  1.2435
   90MOL   C21821756   1.584   6.468   5.947 -0.1012  0.1764 -0.1817
   90MOL   C21921757   1.541   6.378   6.073 -0.0071  0.1111 -0.0320
   90MOL   C22021758   1.587   6.448   6.206 -0.1961 -0.5497 -0.6480
   90MOL   O22121759   1.676   6.403   6.277  0.2634 -0.2633 -0.2025
   90MOL   O22221760   1.525   6.562   6.230  0.3577  0.9519 -0.1958
   90MOL   C22321761   1.530   6.635   6.355 -0.1754 -0.0373  0.1901
   90MOL   H22421762   1.688   6.497   5.960 -0.3838  1.2173 -0.1144
   90MOL   H22521763   1.517   6.554   5.945 -2.3002 -1.5042 -0.7106
   90MOL   H22621764   1.599   6.286   6.073  0.7298  0.5637 -1.0316
   90MOL   H22721765   1.628   6.677   6.376 -1.0679  1.8382  0.6567
   90MOL   H22821766   1.490   6.568   6.431 -2.6364 -0.6182 -1.5809
   90MOL   H22921767   1.455   6.713   6.350  0.2465  0.3833  0.3911
   90MOL   C23021768   1.392   6.346   6.073  0.2538 -0.1946 -0.7608
   90MOL   C23121769   1.346   6.259   6.187  0.2748 -0.1455 -0.4014
   90MOL   C23221770   1.431   6.131   6.209 -0.6132  0.0817 -0.0474
   90MOL   O23321771   1.499   6.125   6.313 -0.5559 -0.0336 -0.0884
   90MOL   O23421772   1.433   6.041   6.106  0.3568 -0.3257  0.1758
   90MOL   C23521773   1.517   5.928   6.121  0.3860  0.0431 -0.1111
   90MOL   H23621774   1.338   6.440   6.075 -0.2725 -0.4633 -1.6592
   90MOL   H23721775   1.355   6.297   5.982 -2.1623  1.2228 -0.5735
   90MOL   H23821776   1.241   6.231   6.182  0.1058  0.1218  1.3414
   90MOL   H23921777   1.619   5.960   6.101  0.8615 -1.3963 -0.0842
   90MOL   H24021778   1.491   5.843   6.057  1.7900  0.2808 -1.0108
   90MOL   H24121779   1.517   5.891   6.223 -0.5970 -0.1793 -0.1863
   90MOL   H24221780   1.347   6.322   6.276  2.0034  1.0286 -1.2061
   91MOL     C121781   6.426   6.421   7.187  0.4267 -0.2233  0.3694
   91MOL     C221782   6.543   6.510   7.220  0.8586  0.1202 -0.0299
   91MOL     C321783   6.673   6.488   7.142  0.0729 -0.4219 -0.1443
   91MOL     O421784   6.695   6.383   7.086 -0.3644  0.1224 -0.2518
   91MOL     O521785   6.775   6.577   7.164 -0.2170 -0.2624  0.1795
   91MOL     C621786   6.893   6.573   7.091 -0.1664 -0.4240  0.5020
   91MOL     H721787   6.409   6.358   7.274  0.9546  2.2416  2.3184
   91MOL     H821788   6.445   6.352   7.104  0.7446 -2.3151  2.1426
   91MOL     H921789   6.557   6.497   7.328  1.7367  3.1183  0.2795
   91MOL    H1021790   6.960   6.653   7.121 -0.0844  0.6281 -2.3854
   91MOL    H1121791   6.872   6.580   6.984 -1.9027  0.6217  0.8901
   91MOL    H1221792   6.938   6.474   7.101 -0.7583 -0.6972  0.5262
   91MOL    H1321793   6.329   6.465   7.163  0.9015 -0.9820 -3.4011
   91MOL    C1421794   6.498   6.658   7.207  0.1602  0.0820 -0.8387
   91MOL    C1521795   6.380   6.706   7.302 -0.0340  0.5480  0.4623
   91MOL    C1621796   6.437   6.692   7.447 -0.2724  0.3974 -0.1188
   91MOL    O1721797   6.381   6.620   7.531  0.4862  0.1722  0.2783
   91MOL    O1821798   6.536   6.776   7.458 -0.4868 -0.6604 -0.6485
   91MOL    C1921799   6.606   6.783   7.587 -0.2954 -0.0827 -0.0524
   91MOL    H2021800   6.588   6.718   7.202  1.4852 -1.8851 -1.0002
   91MOL    H2121801   6.453   6.660   7.107  0.7518  0.9388 -1.0826
   91MOL    H2221802   6.305   6.628   7.292 -0.2711  0.3189  3.5264
   91MOL    H2321803   6.679   6.861   7.609 -0.6386  0.3187 -0.3471
   91MOL    H2421804   6.663   6.692   7.608  0.2069  0.2706  0.1173
   91MOL    H2521805   6.534   6.797   7.667  0.1739  1.0290  0.1887
   91MOL    C2621806   6.312   6.839   7.265 -0.9009  0.3819 -0.7784
   91MOL    C2721807   6.196   6.891   7.350 -0.7154 -0.0056  0.6464
   91MOL    C2821808   6.158   7.038   7.316 -0.0765  0.4189 -0.3930
   91MOL    O2921809   6.061   7.061   7.247 -0.2237  0.1160  0.2047
   91MOL    O3021810   6.236   7.130   7.370 -0.1037  0.2735  0.7523
   91MOL    C3121811   6.214   7.263   7.346  0.1287  0.0790  0.4443
   91MOL    H3221812   6.391   6.913   7.252  0.4785 -0.9573 -0.1656
   91MOL    H3321813   6.267   6.832   7.166 -1.1028  0.7102 -0.7101
   91MOL    H3421814   6.236   6.897   7.452 -1.8542 -0.5178  1.1269
   91MOL    H3521815   6.240   7.329   7.428 -0.7182  2.1448 -0.9015
   91MOL    H3621816   6.112   7.284   7.312  0.5821 -1.1456 -1.7665
   91MOL    H3721817   6.280   7.293   7.265 -1.5098  1.8455 -0.2802
   91MOL    C3821818   6.081   6.784   7.353 -0.0795 -0.1544 -0.3585
   91MOL    C3921819   6.003   6.780   7.492  0.2477  0.0785 -0.2031
   91MOL    C4021820   5.879   6.694   7.470 -0.2806  0.4146 -0.3711
   91MOL    O4121821   5.761   6.739   7.482 -0.0437 -0.0067 -0.1872
   91MOL    O4221822   5.907   6.565   7.437  0.1869 -0.4664 -0.3620
   91MOL    C4321823   5.805   6.465   7.421 -0.4947 -0.2438 -0.3878
   91MOL    H4421824   6.007   6.797   7.274  0.7403  2.4693 -0.7577
   91MOL    H4521825   6.119   6.684   7.334  0.0470  0.2791 -2.5288
   91MOL    H4621826   5.962   6.880   7.507 -2.0897 -0.6884 -1.2238
   91MOL    H4721827   5.761   6.491   7.324 -0.6924 -0.2093 -0.2903
   91MOL    H4821828   5.722   6.472   7.492  0.5636  1.9463  0.6712
   91MOL    H4921829   5.849   6.366   7.431  1.2427  0.8658  3.7190
   91MOL    C5021830   6.091   6.712   7.601 -0.5496 -0.1990  0.4243
   91MOL    C5121831   6.027   6.714   7.742 -0.2770 -0.0915  0.1535
   91MOL    C5221832   6.119   6.630   7.842 -0.0787  0.2139 -0.1993
   91MOL    O5321833   6.076   6.518   7.879 -0.6693 -0.0479 -0.1562
   91MOL    O5421834   6.245   6.679   7.857 -0.1755  0.3004 -0.3254
   91MOL    C5521835   6.338   6.592   7.916 -0.1513  0.4304  0.5355
   91MOL    H5621836   6.117   6.609   7.576  5.6493  1.3541 -0.4346
   91MOL    H5721837   6.187   6.764   7.609  1.0123 -2.9461  0.3166
   91MOL    H5821838   5.945   6.644   7.729 -0.7046  0.6705 -1.3307
   91MOL    H5921839   6.339   6.496   7.864  0.3432  0.1108  1.1212
   91MOL    H6021840   6.312   6.561   0.085  1.4542  0.4755  0.9698
   91MOL    H6121841   6.436   6.636   7.899 -1.0187  2.3728  0.5028
   91MOL    C6221842   5.980   6.851   7.801  0.0017 -0.0883  0.4153
   91MOL    C6321843   5.835   6.860   7.815 -0.0259  0.6833  0.1735
   91MOL    C6421844   5.781   6.763   7.924 -0.1842  0.0381 -0.5990
   91MOL    O6521845   5.705   6.674   7.891  0.4129  0.3386  0.2725
   91MOL    O6621846   5.837   6.781   0.107  0.8183 -0.0453  0.2434
   91MOL    C6721847   5.791   6.709   0.223  0.2494  0.0866  0.3544
   91MOL    H6821848   6.030   6.881   7.893 -0.2112  0.8088  0.2490
   91MOL    H6921849   6.026   6.934   7.746  0.4843  0.9075  2.2992
   91MOL    H7021850   5.794   6.830   7.718 -0.0994  0.9735  0.1132
   91MOL    H7121851   5.701   6.734   0.280  1.0800  0.4238  1.5135
   91MOL    H7221852   5.872   6.693   0.294 -0.3691 -0.5614  0.9275
   91MOL    H7321853   5.776   6.604   0.198 -1.4502  0.0573  1.3548
   91MOL    C7421854   5.788   7.010   7.831  0.0181 -0.0506 -0.0645
   91MOL    C7521855   5.641   7.028   7.880  0.5233 -0.5102 -0.3178
   91MOL    C7621856   5.615   7.174   7.926  0.1797 -0.2973 -0.0475
   91MOL    O7721857   5.602   7.203   0.114  0.0245 -0.4259  0.0049
   91MOL    O7821858   5.603   7.261   7.825  0.1176 -0.4735  0.4039
   91MOL    C7921859   5.557   7.389   7.859 -0.1137  0.5051  0.0811
   91MOL    H8021860   5.868   7.063   7.883  0.6728 -2.4901  1.5523
   91MOL    H8121861   5.804   7.044   7.729  2.4644 -0.4557  0.1467
   91MOL    H8221862   5.623   6.983   0.045  1.8350 -0.5969 -0.1059
   91MOL    H8321863   5.621   7.431   0.004 -0.6622 -0.5607  1.1075
   91MOL    H8421864   5.455   7.375   7.892  0.1082 -1.7503 -0.1664
   91MOL    H8521865   5.563   7.465   7.780  2.4210  1.4736  1.1356
   91MOL    C8621866   5.535   6.971   7.782  0.0322  0.7702 -0.5501
   91MOL    C8721867   5.396   6.929   7.834  0.1814 -0.1182 -0.3696
   91MOL    C8821868   5.407   6.825   0.018  0.3800 -0.2238 -0.0347
   91MOL    O8921869   5.413   6.862   0.133  0.1244 -0.5256 -0.2082
   91MOL    O9021870   5.417   6.703   7.907 -0.4777  0.4592  0.7219
   91MOL    C9121871   5.407   6.599   0.069 -0.8564 -0.1339  0.2155
   91MOL    H9221872   5.529   7.048   7.705  1.4187  1.9883  0.5356
   91MOL    H9321873   5.575   6.877   7.743 -0.0477 -0.6139  2.5489
   91MOL    H9421874   5.351   6.879   7.748  1.2287 -1.0028 -0.4168
   91MOL    H9521875   5.506   6.594   0.115 -0.8380 -1.0215  0.1032
   91MOL    H9621876   5.385   6.504   0.020  2.4471 -0.8756 -0.0114
   91MOL    H9721877   5.347   6.626   0.155  2.7148 -0.6217  2.9972
   91MOL    C9821878   5.317   7.059   7.863 -0.3635 -0.8342 -0.0374
   91MOL    C9921879   5.158   7.055   7.852 -0.0174  0.1618  0.0178
   91MOL   C10021880   5.099   6.930   7.924 -0.2215 -0.1998  0.7283
   91MOL   O10121881   5.082   6.821   7.870 -0.0162  0.5496  0.0391
   91MOL   O10221882   5.086   6.953   0.124  0.2660  0.2733  0.0132
   91MOL   C10321883   5.039   6.847   0.208 -0.1746 -0.3611  0.1581
   91MOL   H10421884   5.339   7.085   0.034  0.6179 -2.2781  0.1294
   91MOL   H10521885   5.351   7.136   7.794 -1.6293 -1.8347 -1.8202
   91MOL   H10621886   5.131   7.050   7.746  0.7363  1.3719 -0.2401
   91MOL   H10721887   4.952   6.793   0.173  0.0599 -1.2498  0.9315
   91MOL   H10821888   5.019   6.893   0.304 -0.7271  1.2299 -0.6930
   91MOL   H10921889   5.108   6.763   0.213  0.1516 -0.0811  0.3695
   91MOL   C11021890   5.090   7.183   7.887  0.3876 -0.6231  0.0630
   91MOL   C11121891   5.133   7.309   7.812 -0.6435  0.1884 -0.5946
   91MOL   C11221892   5.151   7.294   7.656  0.3468  0.1971  0.1450
   91MOL   O11321893   5.057   7.242   7.592 -0.0393 -0.1791  0.4302
   91MOL   O11421894   5.267   7.336   7.603  0.3843  0.3218  0.1081
   91MOL   C11521895   5.291   7.337   7.467 -0.3999  0.4492  0.0649
   91MOL   H11621896   4.985   7.158   7.872  0.8367 -1.5093 -1.6869
   91MOL   H11721897   5.089   7.199   0.062 -1.3761 -1.5062  0.2094
   91MOL   H11821898   5.233   7.324   7.851 -0.7863 -2.0160  0.6913
   91MOL   H11921899   5.230   7.414   7.419 -1.6440 -0.1011  0.7370
   91MOL   H12021900   5.253   7.240   7.435 -1.3237  0.9619 -0.4247
   91MOL   H12121901   5.397   7.336   7.440 -1.0507 -0.8544 -2.6002
   91MOL   C12221902   5.036   7.428   7.854  0.4316 -0.3510  0.0684
   91MOL   C12321903   5.099   7.571   7.829 -0.7083 -0.2187 -0.0889
   91MOL   C12421904   5.070   7.625   7.683 -0.5911  0.4142 -0.5304
   91MOL   O12521905   5.155   7.633   7.588 -0.4150  0.7018 -0.1401
   91MOL   O12621906   4.944   7.660   7.675  0.1689  0.6969  0.6026
   91MOL   C12721907   4.893   7.725   7.555  0.1453 -0.6550  0.0463
   91MOL   H12821908   4.938   7.419   7.807 -0.5656  0.1120  1.9583
   91MOL   H12921909   5.018   7.416   0.029 -2.2552 -2.9689 -0.6098
   91MOL   H13021910   5.204   7.546   7.842 -1.0667 -1.8956 -0.2893
   91MOL   H13121911   4.886   7.657   7.470 -2.4176 -0.6330  0.1872
   91MOL   H13221912   4.942   7.817   7.521  0.4665 -1.1689 -0.8920
   91MOL   H13321913   4.789   7.752   7.576  0.7466 -0.2206  2.6048
   91MOL   C13421914   5.054   7.675   0.007 -0.0122  0.2346 -0.8784
   91MOL   C13521915   5.139   7.810   0.001  0.5137  0.5061  0.5010
   91MOL   C13621916   5.070   7.920   0.081 -0.4280 -0.4393  0.7197
   91MOL   O13721917   4.951   7.923   0.123  0.6072  0.1429 -0.3969
   91MOL   O13821918   5.154   0.094   0.095 -0.1896 -0.0230 -0.0305
   91MOL   C13921919   5.098   0.211   0.157  0.3847 -0.7850  0.4375
   91MOL   H14021920   4.946   7.693   7.932  0.2172  1.8548 -0.4223
   91MOL   H14121921   5.080   7.638   0.106  0.9150  1.5486 -0.6179
   91MOL   H14221922   5.141   7.865   7.840 -3.0756 -0.5698 -0.2674
   91MOL   H14321923   4.998   0.239   0.122 -0.7670 -1.2441  3.2349
   91MOL   H14421924   5.161   0.295   0.131 -1.7502  0.6836 -0.1778
   91MOL   H14521925   5.105   0.200   0.265  2.2511 -2.0348  0.2136
   91MOL   C14621926   5.288   7.789   0.056  0.1829 -0.4825 -0.4113
   91MOL   C14721927   5.405   7.867   7.930 -0.5521  0.2060  0.5052
   91MOL   C14821928   5.540   7.843   0.073  0.1081 -0.4671 -0.1192
   91MOL   O14921929   5.597   0.006   0.119  0.0672  0.7751  0.3687
   91MOL   O15021930   5.581   7.713   0.089 -0.5629  0.0157  0.9181
   91MOL   C15121931   5.711   7.679   0.136 -0.8475  0.1717  0.4733
   91MOL   H15221932   5.285   7.802   0.164 -1.2286 -1.8654 -0.2700
   91MOL   H15321933   5.325   7.687   0.044  1.4870  0.2568 -3.1720
   91MOL   H15421934   5.382   0.038   0.022  0.3406  0.3392  0.8159
   91MOL   H15521935   5.769   7.663   0.046 -1.3270 -1.9902  0.5170
   91MOL   H15621936   5.699   7.593   0.203  0.2830 -0.4063 -0.0688
   91MOL   H15721937   5.745   7.765   0.195  0.3116  0.2959 -0.3584
   91MOL   C15821938   5.427   7.842   7.781  0.3119  0.3982 -0.6718
   91MOL   C15921939   5.490   0.041   7.716  0.6823 -0.3352  0.8394
   91MOL   C16021940   5.618   0.013   7.634 -0.1790  0.7114 -0.0042
   91MOL   O16121941   5.665   7.835   7.610 -0.2442  0.1094 -0.1280
   91MOL   O16221942   5.673   0.134   7.594  0.4675 -0.2295 -0.0598
   91MOL   C16321943   5.798   0.142   7.526 -0.1101 -0.2975  0.0486
   91MOL   H16421944   5.489   7.756   7.756 -0.1448  0.1633 -1.0092
   91MOL   H16521945   5.333   7.829   7.728 -0.6301 -2.2768  1.5294
   91MOL   H16621946   5.509   0.107   7.800 -2.0836 -1.0022  2.0708
   91MOL   H16721947   5.835   0.245   7.519 -0.3915 -0.1422  0.7889
   91MOL   H16821948   5.775   0.105   7.426  3.1309  0.4760 -1.0447
   91MOL   H16921949   5.873   0.076   7.570 -1.7210 -1.1688  1.5413
   91MOL   C17021950   5.375   0.118   7.635 -0.2107  0.3203 -0.0192
   91MOL   C17121951   5.291   0.219   7.710  0.1327  0.7852  0.1595
   91MOL   C17221952   5.367   0.329   7.785  0.2939 -0.1367  0.3988
   91MOL   O17321953   5.360   0.345   7.904  0.2992  0.2186 -0.6830
   91MOL   O17421954   5.446   0.398   7.705 -0.1516 -0.0624  0.1789
   91MOL   C17521955   5.514   0.505   7.753 -0.4681 -0.3415  0.6225
   91MOL   H17621956   5.420   0.171   7.550 -1.3673  2.4615  0.6733
   91MOL   H17721957   5.308   0.043   7.594  0.4450 -0.1559 -0.2354
   91MOL   H17821958   5.245   0.165   7.793  1.4750  0.3628  0.6479
   91MOL   H17921959   5.555   0.573   7.678 -1.1495  1.1953  1.6250
   91MOL   H18021960   5.595   0.455   7.805  0.2002  2.4229  2.3255
   91MOL   H18121961   5.460   0.558   7.831  1.1544  0.9841  0.8749
   91MOL   C18221962   5.189   0.300   7.627 -0.4666 -0.0788 -0.3765
   91MOL   C18321963   5.075   0.206   7.574  0.2058  0.0634  0.1265
   91MOL   C18421964   4.963   0.187   7.679  0.1710 -0.1997  0.0863
   91MOL   O18521965   4.953   0.083   7.730 -0.0385  0.0923 -0.2317
   91MOL   O18621966   4.895   0.297   7.707 -0.1415 -0.4662  0.3491
   91MOL   C18721967   4.795   0.303   7.809 -0.2999 -0.4571  0.0840
   91MOL   H18821968   5.152   0.392   7.672  3.4187  0.9557  0.9216
   91MOL   H18921969   5.243   0.335   7.538  0.1168 -0.9826 -0.3754
   91MOL   H19021970   5.116   0.107   7.552 -0.8986  0.0288 -1.8794
   91MOL   H19121971   4.819   0.381   7.881  3.3563 -0.2900 -1.2078
   91MOL   H19221972   4.768   0.213   7.863 -1.1804 -0.1237  0.2100
   91MOL   H19321973   4.702   0.338   7.765 -0.0391 -0.0241 -0.1322
   91MOL   C19421974   5.015   0.266   7.443 -1.0675  0.5082 -0.2638
   91MOL   C19521975   5.087   0.243   7.307  0.4237 -0.2875  0.2275
   91MOL   C19621976   5.167   0.364   7.264  0.1990 -0.4730 -0.5592
   91MOL   O19721977   5.281   0.391   7.308  0.2486 -0.2876  0.1979
   91MOL   O19821978   5.098   0.425   7.170  0.5176  0.2203 -0.2405
   91MOL   C19921979   5.155   0.531   7.093  0.1937  0.3397  0.0495
   91MOL   H20021980   4.915   0.221   7.441  0.4303 -3.0443  1.1380
   91MOL   H20121981   4.985   0.371   7.454 -0.5223  0.9102 -2.3123
   91MOL   H20221982   5.002   0.232   7.238 -0.0980 -1.4324  1.0237
   91MOL   H20321983   5.086   0.560   7.013 -0.7524 -1.3782  0.2164
   91MOL   H20421984   5.253   0.520   7.046 -0.3286 -2.2567 -0.5467
   91MOL   H20521985   5.175   0.620   7.151  0.2472  0.6042 -0.3751
   91MOL   C20621986   5.164   0.109   7.303 -0.1456 -0.2191 -0.0977
   91MOL   C20721987   5.232   0.075   7.172 -0.1029 -0.4419  0.0003
   91MOL   C20821988   5.339   7.899   7.189  0.2733  0.2575 -0.0701
   91MOL   O20921989   5.342   7.792   7.126 -0.4233 -0.3784  0.2755
   91MOL   O21021990   5.439   0.005   7.265 -0.2291  0.1061 -0.5241
   91MOL   C21121991   5.544   7.844   7.293  0.3670  0.1957  0.1567
   91MOL   H21221992   5.238   0.116   7.383 -1.7033  1.8119  1.2061
   91MOL   H21321993   5.097   0.028   7.331  0.8197 -0.0252  2.9208
   91MOL   H21421994   5.292   0.160   7.139  0.2171 -0.4124  0.6558
   91MOL   H21521995   5.591   7.804   7.203 -0.9765 -2.0451  0.3992
   91MOL   H21621996   5.509   7.758   7.350  2.5458 -0.3304  0.7620
   91MOL   H21721997   5.610   7.904   7.355 -1.7730  1.5759  1.1647
   91MOL   C21821998   5.124   0.035   7.062  0.0300 -0.5234  0.5788
   91MOL   C21921999   5.181   0.030   6.918  0.3181  0.0775  0.8584
   91MOL   C22022000   5.139   7.834   6.846 -0.3235  0.2948 -0.0309
   91MOL   O22122001   5.223   7.770   6.789 -0.0689  0.6657  0.9905
   91MOL   O22222002   5.003   7.808   6.851  0.0470  0.0559 -0.0822
   91MOL   C22322003   4.949   7.681   6.820  0.3662 -0.1010  0.0677
   91MOL   H22422004   5.084   7.869   7.084 -1.6439  0.4426  2.0490
   91MOL   H22522005   5.036   0.100   7.060  0.2607 -0.1623 -3.7513
   91MOL   H22622006   5.289   0.027   6.935  0.8541 -0.3625 -2.4317
   91MOL   H22722007   4.881   7.652   6.900  1.6936 -0.0378  1.2407
   91MOL   H22822008   5.031   7.609   6.820  2.4291  2.2167 -0.6665
   91MOL   H22922009   4.898   7.676   6.724  1.4361  1.4510 -0.5942
   91MOL   C23022010   5.154   0.155   6.832 -0.5389  0.0132  0.2367
   91MOL   C23122011   5.261   0.191   6.717  0.1502  0.0906 -0.1454
   91MOL   C23222012   5.390   0.250   6.761  1.1103  0.2011  0.2096
   91MOL   O23322013   5.488   0.245   6.686 -0.2692 -0.1107  0.5998
   91MOL   O23422014   5.393   0.292   6.886 -0.2525  0.1405 -0.0886
   91MOL   C23522015   5.519   0.330   6.940 -0.6560  0.1920  0.2927
   91MOL   H23622016   5.061   0.131   6.781 -1.0473  1.2123  0.5838
   91MOL   H23722017   5.124   0.248   6.879  1.9686  0.3456  1.2670
   91MOL   H23822018   5.211   0.250   6.640 -0.9244 -1.6278 -0.7769
   91MOL   H23922019   5.506   0.319   7.048  1.5250  1.5329  0.7241
   91MOL   H24022020   5.547   0.431   6.909  0.6873  0.0635  1.0379
   91MOL   H24122021   5.598   0.266   6.901 -1.2413 -0.0997 -0.4167
   91MOL   H24222022   5.287   0.093   6.677  1.0841  0.1667  0.2626
   92MOL     C122023   4.624   0.132   7.512 -0.0963 -0.8798 -0.0100
   92MOL     C222024   4.621   0.144   7.359  1.0985  0.0642  0.7374
   92MOL     C322025   4.681   0.029   7.282  0.2868  0.1428 -0.5419
   92MOL     O422026   4.685   7.849   7.325 -0.1717  0.1701  0.0121
   92MOL     O522027   4.722   0.077   7.164 -0.1383 -0.3897  0.0657
   92MOL     C622028   4.771   7.922   7.063  0.0364  0.1334 -0.0133
   92MOL     H722029   4.727   0.119   7.547  0.0035  0.0300  0.0490
   92MOL     H822030   4.563   0.054   7.557 -1.3194  0.4996  0.7632
   92MOL     H922031   4.663   0.242   7.337  2.1750 -0.4006  0.7432
   92MOL    H1022032   4.795   0.042   6.970 -1.4314 -0.8493 -0.9715
   92MOL    H1122033   4.686   7.856   7.046 -1.3245  1.4367  1.5146
   92MOL    H1222034   4.861   7.862   7.078 -1.3947 -2.5557 -1.7920
   92MOL    H1322035   4.583   0.219   7.563  0.7456 -1.8529  2.4112
   92MOL    C1422036   4.468   0.140   7.319  0.2516 -0.7448  0.0237
   92MOL    C1522037   4.358   0.217   7.399 -0.0121  0.7894  0.0608
   92MOL    C1622038   4.397   0.365   7.408 -1.4125 -0.4413  0.2395
   92MOL    O1722039   4.400   0.434   7.312  0.4947 -0.0061  0.3094
   92MOL    O1822040   4.417   0.411   7.535  0.2127 -0.1950 -0.0077
   92MOL    C1922041   4.470   0.537   7.569 -0.1531  0.1460 -0.0574
   92MOL    H2022042   4.458   0.177   7.217 -1.4042  0.4998  0.6194
   92MOL    H2122043   4.444   0.034   7.314 -2.1829 -0.1590 -1.8087
   92MOL    H2222044   4.343   0.172   7.497 -3.6275 -1.3187 -1.3446
   92MOL    H2322045   4.578   0.542   7.557  0.3536  0.7982  3.9847
   92MOL    H2422046   4.452   0.553   7.675 -1.1783 -0.7308 -0.0862
   92MOL    H2522047   4.421   0.620   7.519  1.8706  1.3841 -0.0311
   92MOL    C2622048   4.223   0.199   7.321 -0.1067 -0.0784  0.3485
   92MOL    C2722049   4.140   0.073   7.357  0.1795  0.3642  0.5377
   92MOL    C2822050   4.087   0.079   7.497 -0.0116 -0.7766 -0.2245
   92MOL    O2922051   4.062   0.191   7.547  0.1014  0.1416  0.1761
   92MOL    O3022052   4.063   7.896   7.552  0.4347 -0.3417 -0.4849
   92MOL    C3122053   3.976   7.890   7.657 -0.0232  0.1115  1.0602
   92MOL    H3222054   4.149   0.277   7.332 -1.8952 -1.2581 -2.6622
   92MOL    H3322055   4.239   0.201   7.213  0.8944 -1.5796  0.4521
   92MOL    H3422056   4.212   7.925   7.351 -1.6619 -1.2902  0.0241
   92MOL    H3522057   4.007   0.027   7.734  2.0506 -1.0999  1.3600
   92MOL    H3622058   3.976   7.789   7.697 -1.4297 -0.7564 -1.0428
   92MOL    H3722059   3.877   7.916   7.621 -0.7774  0.3086  3.1999
   92MOL    C3822060   4.017   0.052   7.264  0.8285 -0.3577  0.0878
   92MOL    C3922061   4.049   0.012   7.115 -0.4265  0.3520  0.6765
   92MOL    C4022062   4.128   7.813   7.099 -0.0237  0.2242 -0.8683
   92MOL    O4122063   4.073   7.706   7.123  0.0905 -0.0892  0.3962
   92MOL    O4222064   4.257   7.829   7.063 -0.6379  0.3326  0.0987
   92MOL    C4322065   4.349   7.727   7.061  0.3706  0.1455  0.4578
   92MOL    H4422066   3.955   7.908   7.309 -1.0391  0.9165 -0.2523
   92MOL    H4522067   3.947   0.135   7.273 -3.0887 -3.7084  2.1451
   92MOL    H4622068   4.115   0.091   7.079  1.8128 -1.7815 -0.0420
   92MOL    H4722069   4.363   7.691   6.959  1.0093  1.4093  0.0781
   92MOL    H4822070   4.313   7.646   7.123  0.2350  1.9351  2.8022
   92MOL    H4922071   4.443   7.776   7.088  1.3726  0.4528 -3.3191
   92MOL    C5022072   3.926   0.013   7.024  0.2440  0.8106 -0.4368
   92MOL    C5122073   3.947   0.018   6.864 -0.3067  0.0516 -0.4748
   92MOL    C5222074   3.852   7.856   6.786  0.1659 -0.3395 -0.8252
   92MOL    O5322075   3.890   7.764   6.712 -0.2655 -0.0753 -1.1740
   92MOL    O5422076   3.722   7.881   6.821 -0.1476  0.0948 -0.0953
   92MOL    C5522077   3.629   7.806   6.762  0.3475  0.1681  0.7292
   92MOL    H5622078   3.857   7.863   7.041 -1.2889  2.2361  0.4116
   92MOL    H5722079   3.871   0.099   7.062  0.0973  0.7974 -0.6175
   92MOL    H5822080   4.046   7.910   6.846  1.2638  2.6851  1.8274
   92MOL    H5922081   3.630   7.703   6.799  1.3248 -0.5372 -1.1741
   92MOL    H6022082   3.632   7.808   6.653 -0.2171  2.0836  0.7421
   92MOL    H6122083   3.531   7.845   6.790  0.6570  2.3790 -1.1374
   92MOL    C6222084   3.928   0.158   6.812 -0.1566 -0.6505 -0.5032
   92MOL    C6322085   4.046   0.247   6.830 -0.6667 -0.2217 -1.2169
   92MOL    C6422086   4.179   0.187   6.777 -0.7316 -0.1022  0.1886
   92MOL    O6522087   4.194   0.123   6.674 -0.0325 -0.4729  0.0483
   92MOL    O6622088   4.286   0.223   6.856 -0.2708  0.3847 -0.5280
   92MOL    C6722089   4.407   0.163   6.826 -0.0239 -0.7692  0.2290
   92MOL    H6822090   3.904   0.158   6.706 -0.3453  2.9603 -0.5090
   92MOL    H6922091   3.840   0.206   6.855  1.1816  2.0107 -0.6972
   92MOL    H7022092   4.051   0.272   6.936 -2.5367  0.9954 -1.3891
   92MOL    H7122093   4.469   0.191   6.740 -0.0176 -1.6041 -0.0519
   92MOL    H7222094   4.385   0.056   6.831  0.3383 -0.9473 -1.7254
   92MOL    H7322095   4.480   0.179   6.906 -0.5299 -2.9012  1.1588
   92MOL    C7422096   4.011   0.390   6.772  0.3655  0.2019 -0.2730
   92MOL    C7522097   3.914   0.468   6.868 -0.3113 -0.4200 -0.1828
   92MOL    C7622098   3.980   0.505   7.001 -0.2621  0.1120  0.0106
   92MOL    O7722099   4.098   0.550   7.004 -0.0296 -0.5374 -0.1755
   92MOL    O7822100   3.901   0.499   7.103 -0.5430  0.2442  0.8350
   92MOL    C7922101   3.963   0.506   7.231  0.2620  0.0755  0.3529
   92MOL    H8022102   4.093   0.457   6.749  0.9492  0.5124  2.5051
   92MOL    H8122103   3.954   0.385   6.679  0.5406  1.4022 -0.4472
   92MOL    H8222104   3.828   0.408   6.898  0.9325 -1.8050  0.6902
   92MOL    H8322105   3.886   0.566   7.280  1.1034  2.2708 -0.9768
   92MOL    H8422106   4.048   0.573   7.236 -0.4879  1.0719  0.0440
   92MOL    H8522107   3.966   0.404   7.270  2.0630  0.3260  0.8883
   92MOL    C8622108   3.857   0.595   6.801 -0.4268 -0.2210 -0.0193
   92MOL    C8722109   3.712   0.577   6.746 -0.1584  0.8073  0.1031
   92MOL    C8822110   3.608   0.547   6.857 -0.8904 -0.2237  0.8369
   92MOL    O8922111   3.642   0.548   6.974 -0.4045  0.3748  0.2008
   92MOL    O9022112   3.487   0.531   6.816 -0.0407  0.1045  0.2303
   92MOL    C9122113   3.380   0.481   6.896  0.8319 -0.3582 -0.1610
   92MOL    H9222114   3.858   0.672   6.878  1.2860  0.3267 -0.5692
   92MOL    H9322115   3.914   0.629   6.714 -0.5683  0.3156  0.1000
   92MOL    H9422116   3.725   0.487   6.686 -0.6814  0.8380 -0.0628
   92MOL    H9522117   3.308   0.451   6.820  0.1717 -0.0545  0.3448
   92MOL    H9622118   3.326   0.561   6.946 -0.8986 -0.8387 -1.2233
   92MOL    H9722119   3.403   0.399   6.964  1.4895 -2.1333 -2.4516
   92MOL    C9822120   3.662   0.697   6.665 -0.3267 -0.2933  0.2938
   92MOL    C9922121   3.678   0.839   6.722  0.2855  0.1492 -0.0701
   92MOL   C10022122   3.817   0.901   6.672 -0.0920 -0.3694  0.4029
   92MOL   O10122123   3.832   0.938   6.553  0.4116  0.3202 -0.3962
   92MOL   O10222124   3.909   0.909   6.761  0.0213  0.3410  0.1768
   92MOL   C10322125   4.041   0.959   6.728  0.2318 -0.1356 -0.5556
   92MOL   H10422126   3.703   0.681   6.565 -1.7530  1.2996 -0.5830
   92MOL   H10522127   3.555   0.682   6.645 -0.5864  0.8868  0.8093
   92MOL   H10622128   3.690   0.830   6.830 -1.6287  0.1194  0.1474
   92MOL   H10722129   4.060   0.999   6.629  3.0096 -1.4859 -0.6019
   92MOL   H10822130   4.120   0.885   6.741 -0.1256 -0.2652  1.0043
   92MOL   H10922131   4.070   1.045   6.789  2.2035  0.6953 -2.6216
   92MOL   C11022132   3.554   0.930   6.697 -0.2594  0.9081 -0.2402
   92MOL   C11122133   3.554   1.069   6.761  0.4407  0.0869  0.4657
   92MOL   C11222134   3.421   1.142   6.735  0.5950 -0.1935  0.9299
   92MOL   O11322135   3.423   1.234   6.650  0.5192 -0.2279  0.4810
   92MOL   O11422136   3.316   1.108   6.813  0.2829  0.3789 -0.2897
   92MOL   C11522137   3.200   1.181   6.822 -0.0918  0.2122  0.5442
   92MOL   H11622138   3.530   0.948   6.592 -2.4801 -1.2799 -0.1528
   92MOL   H11722139   3.466   0.880   6.738 -0.5891  0.9159 -0.9227
   92MOL   H11822140   3.633   1.126   6.711 -0.9090  2.2626  0.7486
   92MOL   H11922141   3.121   1.129   6.768  1.3936 -1.4116 -0.0923
   92MOL   H12022142   3.207   1.272   6.763 -0.5323  1.2975  2.1152
   92MOL   H12122143   3.162   1.197   6.923 -1.7698 -0.2539 -0.0035
   92MOL   C12222144   3.596   1.072   6.911 -0.0528 -0.2822 -0.3028
   92MOL   C12322145   3.612   1.222   6.961 -0.5163 -0.6303  0.2955
   92MOL   C12422146   3.490   1.288   7.030 -0.4097  0.0020 -0.1497
   92MOL   O12522147   3.458   1.404   7.009  0.1030 -0.1028 -0.3222
   92MOL   O12622148   3.433   1.208   7.114  0.7004 -0.3707 -0.1159
   92MOL   C12722149   3.329   1.258   7.192  0.3112  0.7844 -0.3127
   92MOL   H12822150   3.518   1.018   6.965  0.4209  0.3151  0.9989
   92MOL   H12922151   3.686   1.015   6.934  0.4247  0.6662  0.1968
   92MOL   H13022152   3.631   1.285   6.875 -2.1833 -1.8458 -0.9919
   92MOL   H13122153   3.363   1.341   7.253  3.3282  1.0199 -2.1851
   92MOL   H13222154   3.312   1.180   7.266  0.0619 -0.7266 -1.9104
   92MOL   H13322155   3.236   1.269   7.136 -0.5795  0.2259  1.0407
   92MOL   C13422156   3.738   1.243   7.045  0.2177  0.1919 -0.2232
   92MOL   C13522157   3.763   1.161   7.180  0.3674  0.5773 -0.2652
   92MOL   C13622158   3.809   1.012   7.167  0.0473  0.2297  0.4419
   92MOL   O13722159   3.881   0.984   7.075 -0.1702 -0.1681  0.4390
   92MOL   O13822160   3.750   0.937   7.251 -0.3914 -0.0959 -1.0680
   92MOL   C13922161   3.789   0.806   7.263  0.0816 -0.1232 -0.3318
   92MOL   H14022162   3.821   1.234   6.974  0.5093  1.5974 -0.0626
   92MOL   H14122163   3.738   1.350   7.065  2.6633  0.2228 -0.2207
   92MOL   H14222164   3.661   1.158   7.219 -0.4437  1.4634 -2.2619
   92MOL   H14322165   3.716   0.738   7.308 -0.7137 -0.2594 -1.7880
   92MOL   H14422166   3.885   0.802   7.314  0.3418  0.8605 -0.7433
   92MOL   H14522167   3.798   0.763   7.163  2.7619  0.9348 -0.5793
   92MOL   C14622168   3.860   1.229   7.283 -0.0794 -0.2472  0.5146
   92MOL   C14722169   3.817   1.371   7.321 -0.2406 -0.5661 -0.7147
   92MOL   C14822170   3.686   1.365   7.397 -0.9138  0.2212 -0.4613
   92MOL   O14922171   3.586   1.411   7.345  0.2658  0.4763 -0.5128
   92MOL   O15022172   3.700   1.310   7.514  0.1906  0.5377  0.1687
   92MOL   C15122173   3.586   1.283   7.593  0.4827  0.3175 -0.0678
   92MOL   H15222174   3.876   1.163   7.368 -1.3953 -0.5727  0.5244
   92MOL   H15322175   3.960   1.232   7.238  0.5670 -0.1955  1.9538
   92MOL   H15422176   3.806   1.435   7.233  0.4360 -1.4717 -1.4790
   92MOL   H15522177   3.509   1.237   7.532  0.7116 -0.3832  0.1638
   92MOL   H15622178   3.548   1.372   7.644  0.7133  0.6782 -0.5184
   92MOL   H15722179   3.609   1.218   7.677  3.3979 -0.0081 -1.0680
   92MOL   C15822180   3.925   1.444   7.396  0.0252 -0.2590 -0.1353
   92MOL   C15922181   3.891   1.575   7.457 -0.5524  0.7595 -0.0276
   92MOL   C16022182   3.915   1.573   7.610  0.1133 -0.0244 -0.1993
   92MOL   O16122183   4.028   1.606   7.653 -0.1272 -0.5300 -0.5983
   92MOL   O16222184   3.807   1.536   7.681  0.1440 -0.1202 -0.0070
   92MOL   C16322185   3.823   1.526   7.824  0.1554 -0.4681  0.0812
   92MOL   H16422186   3.956   1.378   7.478 -0.0693 -0.3539 -0.1762
   92MOL   H16522187   4.018   1.440   7.338 -0.4279 -2.4956 -0.7658
   92MOL   H16622188   3.786   1.598   7.435 -0.5143 -0.5918 -1.6393
   92MOL   H16722189   3.737   1.504   7.887 -1.6773  0.1705 -2.1257
   92MOL   H16822190   3.846   1.622   7.868  0.1798 -0.6089  0.3727
   92MOL   H16922191   3.907   1.461   7.852  1.6979  0.7939 -1.5081
   92MOL   C17022192   3.980   1.684   7.392 -0.0510  0.1472 -0.4721
   92MOL   C17122193   3.934   1.704   7.246 -0.2427 -1.1210 -0.9123
   92MOL   C17222194   3.793   1.769   7.235  0.4501  0.2777  0.0710
   92MOL   O17322195   3.706   1.704   7.184 -0.1022  0.4414  0.4875
   92MOL   O17422196   3.777   1.894   7.291  0.1482  0.2713  0.4103
   92MOL   C17522197   3.652   1.953   7.291 -0.0514 -0.8013  0.6320
   92MOL   H17622198   3.976   1.778   7.448 -1.7834  1.3051 -2.4610
   92MOL   H17722199   4.081   1.645   7.389 -1.1383 -2.7060 -1.7448
   92MOL   H17822200   3.933   1.610   7.192 -2.0748 -1.2496 -0.6818
   92MOL   H17922201   3.594   1.903   7.368 -2.6360  2.1328  0.6692
   92MOL   H18022202   3.594   1.928   7.202  1.3282 -1.5868 -0.0770
   92MOL   H18122203   3.660   2.061   7.301 -0.1882 -0.7899  0.6181
   92MOL   C18222204   4.035   1.800   7.188 -0.6830  0.6753 -0.4432
   92MOL   C18322205   4.021   1.828   7.031 -0.6822 -0.0352  0.2662
   92MOL   C18422206   4.008   1.977   6.997 -0.2401 -0.4227  0.6332
   92MOL   O18522207   4.104   2.035   6.947 -0.3784 -0.0843 -0.2856
   92MOL   O18622208   3.888   2.026   7.034 -0.1279 -0.5037  0.1252
   92MOL   C18722209   3.864   2.167   6.991  0.5021 -0.3963  0.2390
   92MOL   H18822210   4.045   1.890   7.248  0.9011  1.3081 -1.6295
   92MOL   H18922211   4.128   1.745   7.193 -1.0709 -0.3231 -3.2393
   92MOL   H19022212   3.936   1.780   6.982  0.8242 -5.0686  2.2894
   92MOL   H19122213   3.842   2.163   6.884  3.3227  0.5960 -0.4169
   92MOL   H19222214   3.950   2.235   6.995  0.6213 -0.6149  1.5202
   92MOL   H19322215   3.782   2.225   7.034  1.3738  0.2680  1.0240
   92MOL   C19422216   4.144   1.767   6.947  0.7236 -0.2984 -0.0433
   92MOL   C19522217   4.144   1.614   6.924  0.4554  0.5699 -0.6222
   92MOL   C19622218   4.042   1.574   6.820 -0.4371  0.6926 -0.5771
   92MOL   O19722219   4.000   1.655   6.732 -0.3392  0.6450  0.2371
   92MOL   O19822220   4.006   1.446   6.828 -0.8909  0.2031  0.0312
   92MOL   C19922221   3.936   1.396   6.712 -0.1368  0.2354 -0.0873
   92MOL   H20022222   4.154   1.826   6.856  0.7536  0.2281  0.3011
   92MOL   H20122223   4.237   1.789   6.998  0.5993 -0.8915  0.4522
   92MOL   H20222224   4.109   1.572   7.019 -0.6893  2.2768 -0.2668
   92MOL   H20322225   3.828   1.405   6.720 -0.1623 -0.0448 -0.1424
   92MOL   H20422226   3.958   1.290   6.705  4.9885  1.3935 -6.4379
   92MOL   H20522227   3.969   1.439   6.617  0.9730  1.7586  0.9715
   92MOL   C20622228   4.287   1.554   6.890  0.0614 -0.1435  0.0199
   92MOL   C20722229   4.367   1.483   7.003  0.6458 -0.4520  0.4290
   92MOL   C20822230   4.301   1.359   7.060  0.4042 -0.1168 -0.3072
   92MOL   O20922231   4.258   1.350   7.180 -0.1472 -0.0263 -0.2729
   92MOL   O21022232   4.296   1.255   6.974  0.2645 -0.4836 -0.0852
   92MOL   C21122233   4.221   1.144   7.019  0.3930  0.3216  0.1173
   92MOL   H21222234   4.277   1.482   6.809  0.5857 -1.1761  0.8562
   92MOL   H21322235   4.345   1.637   6.851  0.9661 -0.1749  1.2661
   92MOL   H21422236   4.370   1.563   7.077  2.3518 -0.9495  0.9086
   92MOL   H21522237   4.120   1.184   7.025  0.7787  1.1934  0.8011
   92MOL   H21622238   4.261   1.116   7.116 -0.6405 -0.1093  0.4176
   92MOL   H21722239   4.230   1.064   6.945 -0.6141 -1.1496  1.5488
   92MOL   C21822240   4.507   1.442   6.955 -0.0089 -0.3116 -0.0350
   92MOL   C21922241   4.613   1.553   6.951 -0.5226 -0.0541  0.1186
   92MOL   C22022242   4.715   1.549   7.064 -0.0605 -0.6639  0.6700
   92MOL   O22122243   4.813   1.473   7.061 -0.2389  0.2614 -0.0795
   92MOL   O22222244   4.697   1.654   7.147 -0.0449  0.6441  0.5459
   92MOL   C22322245   4.792   1.673   7.245 -0.2751  0.3073  0.0049
   92MOL   H22422246   4.549   1.353   7.001  2.7830  0.1144 -1.6609
   92MOL   H22522247   4.494   1.406   6.853 -2.0831 -0.4037  0.2234
   92MOL   H22622248   4.562   1.648   6.963  2.0811  1.6154 -1.6548
   92MOL   H22722249   4.767   1.762   7.303  0.1015  0.7125 -0.4396
   92MOL   H22822250   4.894   1.682   7.207 -0.7222 -0.2329 -1.3551
   92MOL   H22922251   4.789   1.590   7.315  0.7409 -0.3791 -0.7555
   92MOL   C23022252   4.677   1.565   6.807  0.1358  0.1898  0.1876
   92MOL   C23122253   4.758   1.693   6.777  0.3118  0.1585  0.2908
   92MOL   C23222254   4.674   1.816   6.746  0.7919  0.6511  0.3556
   92MOL   O23322255   4.641   1.889   6.843  0.3792 -0.1288  0.4219
   92MOL   O23422256   4.627   1.820   6.625 -0.5159  0.5356 -0.0147
   92MOL   C23522257   4.523   1.919   6.607 -0.2900 -0.0279 -1.2728
   92MOL   H23622258   4.731   1.471   6.797  0.4511  0.4681 -0.7144
   92MOL   H23722259   4.595   1.558   6.735  1.1043 -0.1536 -0.8823
   92MOL   H23822260   4.824   1.673   6.693  2.3354  1.2508  1.5991
   92MOL   H23922261   4.444   1.905   6.681 -0.0074  2.3035 -0.4678
   92MOL   H24022262   4.475   1.899   6.512 -1.9903  0.8599 -0.6213
   92MOL   H24122263   4.557   2.023   6.613  0.1741 -0.1530 -1.6791
   92MOL   H24222264   4.828   1.713   6.857  0.5221 -0.2890  0.2208
   93MOL     C122265   0.835   2.562   0.726 -0.3193 -0.1134  1.1241
   93MOL     C222266   0.831   2.548   0.880 -0.1093 -0.1014 -0.8219
   93MOL     C322267   0.860   2.679   0.949 -0.3253  0.2461  0.1541
   93MOL     O422268   0.840   2.787   0.901  0.1014 -0.7614  0.3838
   93MOL     O522269   0.919   2.661   1.072 -0.1582  0.5391  0.1176
   93MOL     C622270   0.956   2.773   1.145  0.1285 -0.3742 -0.2184
   93MOL     H722271   0.916   2.632   0.704 -0.2368 -0.1392  1.3368
   93MOL     H822272   0.744   2.599   0.679  0.2891 -0.3187 -0.2425
   93MOL     H922273   0.914   2.479   0.894 -1.4358 -1.6594 -0.4991
   93MOL    H1022274   0.950   2.751   1.252  1.9934 -0.6378 -0.1361
   93MOL    H1122275   0.891   2.860   1.134  1.0917  0.7610  2.4983
   93MOL    H1222276   1.055   2.810   1.117 -0.7069  0.7365 -1.8188
   93MOL    H1322277   0.858   2.469   0.675  2.1491 -0.1708  2.2746
   93MOL    C1422278   0.693   2.494   0.936 -0.2828  0.8070 -0.2114
   93MOL    C1522279   0.704   2.413   1.062  0.0576  0.6665  0.1830
   93MOL    C1622280   0.566   2.381   1.119  0.1451 -0.8994  0.2954
   93MOL    O1722281   0.461   2.403   1.057  0.4328 -0.0428  0.6460
   93MOL    O1822282   0.571   2.317   1.233 -0.3357  0.8218 -0.0985
   93MOL    C1922283   0.453   2.277   1.301  0.2279  0.0988  0.1212
   93MOL    H2022284   0.621   2.574   0.948 -0.3964  0.6375  0.2361
   93MOL    H2122285   0.654   2.422   0.864  1.0648  0.0140 -0.1716
   93MOL    H2222286   0.754   2.475   1.136  2.1238 -1.9567  1.0526
   93MOL    H2322287   0.487   2.218   1.386 -0.2315 -0.3049  0.0282
   93MOL    H2422288   0.400   2.201   1.243 -1.3898  0.7341  0.7177
   93MOL    H2522289   0.383   2.355   1.329  0.2576 -0.4019  1.6143
   93MOL    C2622290   0.786   2.281   1.043 -0.2783 -0.8553  0.1609
   93MOL    C2722291   0.861   2.227   1.169 -0.0157 -0.0442 -0.4073
   93MOL    C2822292   0.883   2.079   1.145  0.2173 -0.0030 -0.1024
   93MOL    O2922293   0.821   1.991   1.212 -0.5399 -0.6618  0.2997
   93MOL    O3022294   0.972   2.061   1.047 -0.1564  0.1487 -0.4068
   93MOL    C3122295   0.962   1.943   0.968  0.2462  0.4923 -0.3431
   93MOL    H3222296   0.715   2.210   1.000 -1.2951  0.0640  0.2951
   93MOL    H3322297   0.866   2.287   0.970 -0.6280  0.7168 -0.1087
   93MOL    H3422298   0.796   2.224   1.257  0.9647 -0.2737  0.3134
   93MOL    H3522299   1.034   1.944   0.886 -0.0728  0.4929 -0.6231
   93MOL    H3622300   0.860   1.920   0.940 -0.0358 -0.5718  1.4660
   93MOL    H3722301   1.001   1.857   1.022  0.8826 -0.1292 -1.7652
   93MOL    C3822302   0.984   2.305   1.206 -0.0453 -0.1609  0.6661
   93MOL    C3922303   1.042   2.303   1.352  0.1076  0.3813  0.8780
   93MOL    C4022304   0.947   2.375   1.449  0.2924  1.2030  0.4825
   93MOL    O4122305   0.971   2.491   1.485 -0.5416  0.8350 -0.2518
   93MOL    O4222306   0.859   2.292   1.497 -0.1850  0.7074 -0.1167
   93MOL    C4322307   0.783   2.330   1.612  0.2788 -0.1607 -0.0933
   93MOL    H4422308   1.074   2.274   1.153  1.3058  2.0192  1.6381
   93MOL    H4522309   0.973   2.412   1.190  1.9312 -0.3469 -2.3158
   93MOL    H4622310   1.130   2.366   1.339  0.7373 -1.1730 -3.1452
   93MOL    H4722311   0.756   2.246   1.677  0.5176  1.5197  2.2525
   93MOL    H4822312   0.686   2.367   1.582  1.3052  0.7771 -2.3298
   93MOL    H4922313   0.841   2.403   1.668  1.1859  1.3316 -2.8952
   93MOL    C5022314   1.103   2.162   1.401 -0.1831  0.4542 -0.8046
   93MOL    C5122315   1.236   2.156   1.473 -0.1140  0.8455  0.1104
   93MOL    C5222316   1.352   2.164   1.377 -0.2713  0.0993 -0.6711
   93MOL    O5322317   1.371   2.268   1.309 -0.5871  0.3386  0.2294
   93MOL    O5422318   1.434   2.054   1.376 -0.2915 -0.0430  0.3135
   93MOL    C5522319   1.569   2.071   1.329 -0.6301 -0.6848  0.0067
   93MOL    H5622320   1.039   2.115   1.476  1.7903 -0.2041  0.5185
   93MOL    H5722321   1.107   2.090   1.320  1.8365  1.1647 -1.3739
   93MOL    H5822322   1.232   2.055   1.514  1.9231 -0.0741 -1.9395
   93MOL    H5922323   1.566   2.118   1.230  2.5438  0.9862  0.6523
   93MOL    H6022324   1.624   1.977   1.325  1.5211  0.4764  1.4392
   93MOL    H6122325   1.630   2.131   1.396 -2.3039  0.6207  0.4116
   93MOL    C6222326   1.238   2.262   1.584 -0.8443 -0.7953  0.2981
   93MOL    C6322327   1.339   2.256   1.704  0.3706 -0.2307  0.1176
   93MOL    C6422328   1.482   2.310   1.664  0.5909  0.2452  0.1915
   93MOL    O6522329   1.579   2.232   1.667 -0.2276  0.5138  0.1811
   93MOL    O6622330   1.491   2.446   1.640  0.1608 -0.2865 -0.1450
   93MOL    C6722331   1.615   2.503   1.601 -0.3096 -0.5707  0.1991
   93MOL    H6822332   1.249   2.360   1.538  0.7116 -0.6775  0.8685
   93MOL    H6922333   1.138   2.263   1.628 -0.7637 -0.7809  0.4812
   93MOL    H7022334   1.349   2.149   1.721  1.3376 -0.0478  0.7534
   93MOL    H7122335   1.702   2.458   1.649  0.3983  0.0103 -0.5326
   93MOL    H7222336   1.618   2.610   1.622 -1.1624 -0.1824 -1.5271
   93MOL    H7322337   1.622   2.480   1.494 -3.2541  0.8686 -0.3615
   93MOL    C7422338   1.283   2.338   1.821 -0.0595  0.6204 -0.4671
   93MOL    C7522339   1.370   2.343   1.950  0.0048  0.0834 -0.0744
   93MOL    C7622340   1.298   2.439   2.048 -0.2497  0.4642  0.0111
   93MOL    O7722341   1.177   2.457   2.041  0.2506 -0.0246  0.4608
   93MOL    O7822342   1.377   2.491   2.146  0.5973  0.4095  0.4833
   93MOL    C7922343   1.314   2.558   2.247 -0.5411  0.1715  0.4962
   93MOL    H8022344   1.259   2.439   1.791 -3.4489 -0.0490 -0.1628
   93MOL    H8122345   1.184   2.299   1.843 -0.9912  2.7516 -0.7787
   93MOL    H8222346   1.451   2.409   1.919  1.0344 -1.2118 -0.1930
   93MOL    H8322347   1.237   2.496   2.293 -0.8649  1.5981  1.9160
   93MOL    H8422348   1.287   2.660   2.221  2.3929  0.9288  0.2526
   93MOL    H8522349   1.386   2.569   2.328 -1.2566  0.3311  1.1160
   93MOL    C8622350   1.427   2.211   2.008  0.3420 -0.2819  0.3460
   93MOL    C8722351   1.336   2.089   2.047 -0.6652  0.0415  0.1351
   93MOL    C8822352   1.400   1.957   2.006 -0.6344 -0.4150 -0.7530
   93MOL    O8922353   1.338   1.877   1.929  0.2894 -0.0839  0.4026
   93MOL    O9022354   1.522   1.944   2.060 -0.4485 -0.1542  0.4202
   93MOL    C9122355   1.610   1.855   2.008 -0.1698 -0.6541  0.6125
   93MOL    H9222356   1.512   2.170   1.955  1.2613  0.7767  0.9951
   93MOL    H9322357   1.481   2.250   2.095  0.9815  0.3307 -0.3235
   93MOL    H9422358   1.236   2.099   2.006 -0.1231  0.6588 -1.0732
   93MOL    H9522359   1.709   1.875   2.051  1.4556  0.3166 -3.3791
   93MOL    H9622360   1.613   1.866   1.900  1.0200  0.4051  0.7328
   93MOL    H9722361   1.573   1.754   2.029 -0.6916 -0.3043  1.4157
   93MOL    C9822362   1.322   2.085   2.200 -0.1241 -0.3788  0.1190
   93MOL    C9922363   1.196   2.009   2.260  0.1814  0.1548  0.6727
   93MOL   C10022364   1.219   1.872   2.325 -0.2613 -0.8887  0.4533
   93MOL   O10122365   1.324   1.810   2.304  0.2947 -0.0659  0.0194
   93MOL   O10222366   1.105   1.817   2.378  0.3815  0.2770  0.6520
   93MOL   C10322367   1.094   1.687   2.423 -0.5556  0.1204 -0.0668
   93MOL   H10422368   1.414   2.045   2.244  1.0523 -0.0286 -1.9555
   93MOL   H10522369   1.311   2.187   2.236  1.2668  0.0236 -0.5673
   93MOL   H10622370   1.144   1.971   2.172 -0.3993  1.8065  0.2704
   93MOL   H10722371   1.156   1.669   2.510  2.0227  0.0820 -1.8466
   93MOL   H10822372   1.122   1.608   2.353  1.2368  0.2034  0.5157
   93MOL   H10922373   0.992   1.667   2.456 -0.0588  2.7526  3.3198
   93MOL   C11022374   1.103   2.093   2.344  0.4049 -0.0314 -0.4501
   93MOL   C11122375   1.150   2.125   2.492 -0.9588 -0.5324  0.2157
   93MOL   C11222376   1.294   2.189   2.493 -0.4578 -0.3666 -0.3535
   93MOL   O11322377   1.301   2.309   2.452  0.6982  0.0934  0.3970
   93MOL   O11422378   1.404   2.102   2.525  0.0126  0.0181 -0.6184
   93MOL   C11522379   1.532   2.155   2.532  0.6633  0.1711  0.3019
   93MOL   H11622380   1.090   2.193   2.301  2.0229 -0.2270 -1.4455
   93MOL   H11722381   1.004   2.046   2.341 -0.7791  2.2585  1.1562
   93MOL   H11822382   1.162   2.034   2.551  0.9251  1.1115  2.4802
   93MOL   H11922383   1.570   2.154   2.430  1.8426  2.1252  0.6953
   93MOL   H12022384   1.583   2.082   2.594  0.3222  0.2531  0.6883
   93MOL   H12122385   1.528   2.252   2.582  2.5798  2.0978 -3.0958
   93MOL   C12222386   1.041   2.217   2.561  0.0467 -0.5560  0.0254
   93MOL   C12322387   0.917   2.126   2.602  0.1405  0.7742 -0.3150
   93MOL   C12422388   0.950   2.030   2.725 -0.7332  0.4519 -0.1916
   93MOL   O12522389   1.043   2.062   2.803 -0.2231 -0.3628  0.3178
   93MOL   O12622390   0.869   1.929   2.736 -0.2268  0.4661  0.4010
   93MOL   C12722391   0.875   1.847   2.843 -0.0724  0.4867 -0.0400
   93MOL   H12822392   1.082   2.252   2.656  1.7758  1.3444 -1.3807
   93MOL   H12922393   1.020   2.307   2.504 -1.6530 -1.4128 -0.7428
   93MOL   H13022394   0.896   2.059   2.519  2.4880  0.3105 -0.5618
   93MOL   H13122395   0.877   1.904   2.935  1.7460  1.2028 -0.5039
   93MOL   H13222396   0.969   1.792   2.831 -0.1439  0.8028 -2.3181
   93MOL   H13322397   0.787   1.783   2.845  0.0767  0.2353 -1.2229
   93MOL   C13422398   0.793   2.214   2.646  0.2887  0.1068 -0.0755
   93MOL   C13522399   0.719   2.275   2.521 -0.1384 -0.9991 -0.3453
   93MOL   C13622400   0.654   2.176   2.419 -0.1880  0.6370 -0.7461
   93MOL   O13722401   0.707   2.142   2.311  0.0162 -0.0244 -0.2388
   93MOL   O13822402   0.539   2.129   2.468  0.9340  0.1696  0.1445
   93MOL   C13922403   0.470   2.036   2.384 -0.6835 -0.1313 -0.5645
   93MOL   H14022404   0.727   2.139   2.691  1.7711 -0.7700  0.6483
   93MOL   H14122405   0.815   2.283   2.727 -0.6719 -1.2432  1.3529
   93MOL   H14222406   0.806   2.326   2.479 -1.1155  0.2495 -0.8667
   93MOL   H14322407   0.435   2.085   2.293  0.7782  0.5404 -0.7731
   93MOL   H14422408   0.375   2.009   2.430  0.1828 -0.4414  1.0842
   93MOL   H14522409   0.530   1.946   2.376  1.6816  1.4267 -0.8795
   93MOL   C14622410   0.629   2.384   2.576  0.4670  0.0654 -0.3332
   93MOL   C14722411   0.558   2.486   2.480  0.3355  0.5535  0.8125
   93MOL   C14822412   0.404   2.461   2.459  0.3356  0.1774 -0.3202
   93MOL   O14922413   0.321   2.435   2.550 -0.5105  0.1330 -0.3442
   93MOL   O15022414   0.372   2.450   2.331 -0.8133  0.0080 -0.4008
   93MOL   C15122415   0.251   2.399   2.295 -0.2058 -0.4116  0.3128
   93MOL   H15222416   0.553   2.340   2.640  0.6549  1.4945  0.8919
   93MOL   H15322417   0.688   2.442   2.647 -0.8771  1.4458 -0.3341
   93MOL   H15422418   0.601   2.475   2.380  1.4679  0.0131  1.3535
   93MOL   H15522419   0.224   2.411   2.190  0.5719  1.4107  0.2879
   93MOL   H15622420   0.171   2.451   2.347 -0.7540 -0.2843 -0.6460
   93MOL   H15722421   0.250   2.296   2.329  1.0631 -0.0807  1.3994
   93MOL   C15822422   0.590   2.630   2.528  0.7236 -0.3134  0.1574
   93MOL   C15922423   0.550   2.744   2.435 -0.1937  0.1245  0.2987
   93MOL   C16022424   0.571   2.873   2.515 -0.4400  0.0822 -0.2977
   93MOL   O16122425   0.483   2.955   2.525  0.5891  0.0082  0.1265
   93MOL   O16222426   0.696   2.880   2.560  0.7598  0.0617  0.7099
   93MOL   C16322427   0.728   2.976   2.653 -0.0339 -0.4819 -0.2121
   93MOL   H16422428   0.539   2.635   2.624 -0.2162  2.4227 -0.4433
   93MOL   H16522429   0.695   2.639   2.556  0.9144  1.2936 -1.0819
   93MOL   H16622430   0.444   2.730   2.414 -0.3548 -0.5599  1.5387
   93MOL   H16722431   0.836   2.990   2.660 -0.3945  3.1122 -0.8898
   93MOL   H16822432   0.677   2.950   2.746 -1.3088  0.5108 -0.6104
   93MOL   H16922433   0.684   3.070   2.620  2.4594  1.2183  1.1772
   93MOL   C17022434   0.612   2.738   2.293 -0.1381 -0.1750  0.2470
   93MOL   C17122435   0.767   2.733   2.285  0.3440  0.4619  0.2356
   93MOL   C17222436   0.817   2.613   2.197  0.6952  0.2838  0.7571
   93MOL   O17322437   0.900   2.529   2.231 -0.3017 -0.8008 -0.1889
   93MOL   O17422438   0.768   2.624   2.073 -0.2154 -0.5269  0.1509
   93MOL   C17522439   0.826   2.545   1.968 -0.0208 -0.4689 -1.0079
   93MOL   H17622440   0.567   2.655   2.239  0.0262  0.7427 -1.3525
   93MOL   H17722441   0.574   2.824   2.237 -1.5144  1.2379  3.2681
   93MOL   H17822442   0.810   2.719   2.383 -0.9935 -0.5154  0.7019
   93MOL   H17922443   0.780   2.447   1.978 -0.9737  0.2012  1.4184
   93MOL   H18022444   0.934   2.533   1.980 -0.0801  0.4056  0.5443
   93MOL   H18122445   0.809   2.580   1.866  1.0060  3.1732 -0.0057
   93MOL   C18222446   0.818   2.873   2.223  0.6054  0.3128 -0.0734
   93MOL   C18322447   0.967   2.908   2.211 -0.1406 -0.0464 -0.2881
   93MOL   C18422448   1.042   2.889   2.350 -0.0223 -0.8401  0.6690
   93MOL   O18522449   1.139   2.813   2.364 -0.1830  0.5649  0.0426
   93MOL   O18622450   0.996   2.967   2.451 -0.1305 -0.2199 -0.7200
   93MOL   C18722451   1.081   2.989   2.560 -0.4970  0.3554  0.0242
   93MOL   H18822452   0.762   2.889   2.132 -0.5686  2.1220  0.9276
   93MOL   H18922453   0.772   2.943   2.292 -3.3696  0.9801 -3.2634
   93MOL   H19022454   0.982   3.014   2.192  2.7470 -0.3635  0.0246
   93MOL   H19122455   1.184   2.975   2.530 -0.0478  0.8875  1.2677
   93MOL   H19222456   1.054   2.927   2.646  0.3369  0.0838  0.0885
   93MOL   H19322457   1.068   3.091   2.596 -1.4508  0.3600 -0.3174
   93MOL   C19422458   1.048   2.840   2.097  0.5169  0.5230  0.6542
   93MOL   C19522459   1.012   2.897   1.958  0.4064  0.2689  0.1249
   93MOL   C19622460   1.060   3.040   1.943  0.4613  0.1219  0.2735
   93MOL   O19722461   1.177   3.071   1.968 -0.1955 -0.0618 -0.2642
   93MOL   O19822462   0.966   3.114   1.881  0.5793 -0.0654  0.4616
   93MOL   C19922463   0.989   3.243   1.830  0.8201 -0.2596 -0.2677
   93MOL   H20022464   1.156   2.847   2.107  0.5859  1.7070 -0.7949
   93MOL   H20122465   1.021   2.734   2.100 -0.0237  0.6228 -0.4101
   93MOL   H20222466   0.903   2.895   1.949  0.3970  3.4002 -1.0617
   93MOL   H20322467   1.034   3.247   1.731  1.3646 -1.1613 -0.0640
   93MOL   H20422468   1.044   3.305   1.900 -1.7313  0.8459  0.8111
   93MOL   H20522469   0.887   3.280   1.816  0.2341 -1.4790  0.6005
   93MOL   C20622470   1.086   2.808   1.856 -0.5503  0.1899  0.2833
   93MOL   C20722471   1.039   2.829   1.707  0.1233 -0.7869 -0.9612
   93MOL   C20822472   1.149   2.794   1.605  0.5071  0.6199 -0.0088
   93MOL   O20922473   1.212   2.885   1.549  0.1737  1.1518  0.0888
   93MOL   O21022474   1.175   2.672   1.583  0.2000  0.0943 -0.5886
   93MOL   C21122475   1.250   2.645   1.463  0.4142  0.2102  0.0285
   93MOL   H21222476   1.194   2.817   1.862 -0.6602  0.7628  1.7317
   93MOL   H21322477   1.070   2.704   1.885 -1.2977  0.2700  0.1608
   93MOL   H21422478   1.022   2.937   1.702 -0.4551 -0.8582 -0.6418
   93MOL   H21522479   1.183   2.673   1.382  1.2372  3.0186  0.2675
   93MOL   H21622480   1.270   2.538   1.453 -2.9343 -0.4354 -0.1499
   93MOL   H21722481   1.338   2.708   1.452  0.4255  0.5846  2.1442
   93MOL   C21822482   0.898   2.773   1.684 -0.3373  0.7049 -0.2144
   93MOL   C21922483   0.831   2.790   1.545  0.5945 -0.2623 -0.5040
   93MOL   C22022484   0.687   2.734   1.536  0.4418 -0.3196  0.1777
   93MOL   O22122485   0.620   2.699   1.633  0.2509  0.3309  0.5462
   93MOL   O22222486   0.656   2.715   1.409  0.1253 -0.4704  1.2055
   93MOL   C22322487   0.542   2.635   1.372 -0.3831 -0.1541  0.5829
   93MOL   H22422488   0.917   2.667   1.702 -2.0436  0.1712 -1.4096
   93MOL   H22522489   0.829   2.809   1.761  0.6543 -0.0162  1.0307
   93MOL   H22622490   0.901   2.737   1.480  0.9983 -0.0718 -0.2291
   93MOL   H22722491   0.541   2.540   1.426  1.9029 -0.4387  0.1767
   93MOL   H22822492   0.558   2.618   1.266  2.8963  1.2939  0.8021
   93MOL   H22922493   0.458   2.703   1.390  1.0023  1.3872  1.3417
   93MOL   C23022494   0.816   2.933   1.492  0.3617  0.0061 -0.0962
   93MOL   C23122495   0.733   3.027   1.588 -0.2834 -0.0464 -0.2532
   93MOL   C23222496   0.720   3.169   1.541 -0.0225  0.1796  0.0493
   93MOL   O23322497   0.757   3.205   1.426 -0.8974  0.0767 -0.1987
   93MOL   O23422498   0.664   3.238   1.627 -0.4180  0.0958  0.0892
   93MOL   C23522499   0.639   3.380   1.606 -0.1624 -0.0780  0.2558
   93MOL   H23622500   0.923   2.956   1.496  0.6806 -1.5650  0.8348
   93MOL   H23722501   0.779   2.933   1.390  0.9908 -2.0202 -0.3388
   93MOL   H23822502   0.757   3.031   1.695 -1.6964 -1.5972  0.1563
   93MOL   H23922503   0.697   3.446   1.670  0.8931 -1.9632  1.2807
   93MOL   H24022504   0.536   3.406   1.630 -0.3638  1.8234 -2.4418
   93MOL   H24122505   0.650   3.412   1.502 -0.7690  1.0219  0.5229
   93MOL   H24222506   0.633   2.986   1.576 -0.8837  0.3015  2.9199
   94MOL     C122507   7.451   1.485   0.373  0.3513 -0.5637  0.2413
   94MOL     C222508   7.362   1.601   0.394 -0.7406 -0.1165  0.1861
   94MOL     C322509   7.215   1.556   0.378 -0.9282  0.0269  0.3823
   94MOL     O422510   7.164   1.471   0.451  0.4305  0.1474 -0.0753
   94MOL     O522511   7.152   1.616   0.273 -0.5843  0.1390  0.6671
   94MOL     C622512   7.025   1.576   0.222  0.0947 -0.1490 -0.1257
   94MOL     H722513   7.407   1.389   0.400  0.1335 -1.0650 -1.7937
   94MOL     H822514   7.545   1.497   0.428 -0.3027  0.3967  1.1681
   94MOL     H922515   7.387   1.656   0.303 -4.1901  0.6696 -0.3552
   94MOL    H1022516   7.030   1.472   0.190 -3.7035 -0.6255  0.5905
   94MOL    H1122517   7.010   1.627   0.127  1.8782  2.1437  0.7672
   94MOL    H1222518   6.939   1.591   0.288  0.9656 -0.9860  1.2374
   94MOL    H1322519   7.471   1.476   0.266 -2.3513 -1.5340 -0.2257
   94MOL    C1422520   7.393   1.694   0.518 -0.3509 -0.2484 -0.2540
   94MOL    C1522521   7.344   1.842   0.512 -0.1580 -0.0999 -0.0946
   94MOL    C1622522   7.352   1.916   0.644  0.6003 -0.2726 -0.4747
   94MOL    O1722523   7.393   1.860   0.745  0.0424 -0.4320 -0.4845
   94MOL    O1822524   7.314   2.037   0.642  0.1223 -0.2205  0.1457
   94MOL    C1922525   7.302   2.104   0.768  0.2504  0.5675  0.5737
   94MOL    H2022526   7.354   1.647   0.608  0.6546  1.9687  1.3753
   94MOL    H2122527   7.499   1.708   0.537 -0.5249  1.2129 -0.2764
   94MOL    H2222528   7.236   1.848   0.500  0.0030  1.3446 -0.9404
   94MOL    H2322529   7.257   2.202   0.762  1.4160  1.1148  0.6175
   94MOL    H2422530   7.396   2.109   0.823  1.5587 -0.1523 -1.5352
   94MOL    H2522531   7.235   2.052   0.837 -0.5534  2.4731  1.2381
   94MOL    C2622532   7.413   1.918   0.397  0.0682  0.5907 -0.0650
   94MOL    C2722533   7.326   1.985   0.292  1.0151 -0.2904  0.3636
   94MOL    C2822534   7.223   2.080   0.349  0.1272 -0.2278  0.3700
   94MOL    O2922535   7.240   2.203   0.359  0.0946 -0.8024  0.1898
   94MOL    O3022536   7.116   2.016   0.394 -0.0479  0.3376 -0.1021
   94MOL    C3122537   7.025   2.089   0.471  0.0118 -0.7178  0.2012
   94MOL    H3222538   7.474   2.000   0.436 -1.7051  2.6407 -1.4667
   94MOL    H3322539   7.482   1.847   0.353  1.1769  1.5619  0.0632
   94MOL    H3422540   7.274   1.907   0.236 -0.8903  0.4586  1.0423
   94MOL    H3522541   7.068   2.167   0.534 -1.6958  0.6814 -0.3194
   94MOL    H3622542   6.971   2.032   0.547 -0.3525  2.5210  2.4599
   94MOL    H3722543   6.954   2.141   0.407 -1.3667  0.5748  2.6870
   94MOL    C3822544   7.416   2.062   0.190  0.1899 -0.2555  0.1366
   94MOL    C3922545   7.335   2.134   0.073  0.1197 -0.0870  0.4769
   94MOL    C4022546   7.409   2.228   7.921 -0.2726 -0.5672  0.2692
   94MOL    O4122547   7.530   2.237   7.913  0.0688  0.1663  0.0919
   94MOL    O4222548   7.322   2.312   7.846 -0.5354 -0.3231 -0.2643
   94MOL    C4322549   7.365   2.417   7.762  0.1112 -0.2676  0.6367
   94MOL    H4422550   7.463   2.136   0.255 -2.5034  1.8335 -0.2276
   94MOL    H4522551   7.490   1.993   0.150 -0.5161 -0.9672  0.0473
   94MOL    H4622552   7.271   2.206   0.124 -1.0016  1.4556 -2.9280
   94MOL    H4722553   7.435   2.388   7.685 -2.9677 -3.1627 -1.1896
   94MOL    H4822554   7.389   2.508   7.817  2.1143  0.9034 -2.1156
   94MOL    H4922555   7.287   2.451   7.694 -0.1248 -0.6754  0.7024
   94MOL    C5022556   7.250   2.030   7.923 -0.7241  0.2144  0.6742
   94MOL    C5122557   7.331   1.929   7.831  0.8587  0.3430  0.1346
   94MOL    C5222558   7.405   1.820   7.894 -0.3478 -0.2558 -0.8460
   94MOL    O5322559   7.353   1.755   0.052  0.1723  0.2723 -0.0222
   94MOL    O5422560   7.523   1.794   7.840  0.8600 -0.8802  0.5870
   94MOL    C5522561   7.619   1.703   7.896 -0.3678  0.1088  0.5593
   94MOL    H5622562   7.190   1.965   0.054 -0.6850 -0.8927 -0.3995
   94MOL    H5722563   7.173   2.085   7.870 -0.1023 -0.1432 -0.6217
   94MOL    H5822564   7.407   1.985   7.777  1.2996  0.1367  0.5388
   94MOL    H5922565   7.655   1.751   0.054 -1.4352  1.1535  0.4476
   94MOL    H6022566   7.693   1.684   7.819  0.8512  1.0029  1.4949
   94MOL    H6122567   7.558   1.621   0.001 -2.8857  2.0345  0.7984
   94MOL    C6222568   7.247   1.873   7.711  0.4967  0.0655 -0.0297
   94MOL    C6322569   7.125   1.777   7.729  0.5883  0.1474 -0.0410
   94MOL    C6422570   6.993   1.854   7.708  0.1428  0.4019  0.4924
   94MOL    O6522571   6.921   1.880   7.803  0.2433 -0.3216 -0.6614
   94MOL    O6622572   6.961   1.868   7.586  0.0927 -0.3088  0.5221
   94MOL    C6722573   6.840   1.938   7.541  0.9115  0.1663 -0.1689
   94MOL    H6822574   7.211   1.956   7.650 -1.0169 -0.3287  0.3087
   94MOL    H6922575   7.323   1.822   7.652  0.5661  1.0636 -0.8224
   94MOL    H7022576   7.132   1.745   7.833 -0.4667  0.5535  0.1730
   94MOL    H7122577   6.822   2.029   7.598 -0.5911  1.4053 -2.5475
   94MOL    H7222578   6.745   1.889   7.562 -0.4106  1.6695 -2.5305
   94MOL    H7322579   6.850   1.955   7.434 -1.1589  1.3780 -0.1942
   94MOL    C7422580   7.113   1.648   7.649  0.0288 -0.1204  0.1102
   94MOL    C7522581   7.233   1.559   7.670  0.3621  0.3424 -0.4378
   94MOL    C7622582   7.229   1.482   7.802 -1.0244  0.3024 -0.5066
   94MOL    O7722583   7.123   1.462   7.854 -0.5335 -0.2343 -0.0101
   94MOL    O7822584   7.351   1.434   7.838  0.1302 -0.3811 -0.9294
   94MOL    C7922585   7.340   1.360   0.027  0.8714 -0.0558  0.4128
   94MOL    H8022586   7.014   1.604   7.660 -1.1629  1.5124 -3.3562
   94MOL    H8122587   7.124   1.682   7.546  0.8957 -1.0814 -0.1260
   94MOL    H8222588   7.318   1.625   7.686 -0.3457  1.7437 -2.3188
   94MOL    H8322589   7.292   1.426   0.100  0.9242  1.7232 -1.1296
   94MOL    H8422590   7.426   1.311   0.072  1.3217  0.8413  0.5520
   94MOL    H8522591   7.275   1.275   0.007 -0.6298  0.7592  1.6400
   94MOL    C8622592   7.290   1.477   7.544 -0.5078 -0.3881  0.3157
   94MOL    C8722593   7.199   1.357   7.503  0.6218  0.1896  0.0997
   94MOL    C8822594   7.079   1.399   7.411 -0.3567 -0.5018 -0.3780
   94MOL    O8922595   7.077   1.507   7.359  0.8778 -0.2892 -0.0451
   94MOL    O9022596   6.990   1.302   7.401 -0.2433  0.0283 -0.6759
   94MOL    C9122597   6.867   1.326   7.343  0.4027  0.0252 -0.4333
   94MOL    H9222598   7.288   1.556   7.469 -2.0564  2.0755  2.8103
   94MOL    H9322599   7.391   1.446   7.570  0.2236  1.6671 -0.0298
   94MOL    H9422600   7.155   1.325   7.598 -1.1092 -1.3583 -1.1888
   94MOL    H9522601   6.801   1.370   7.419  1.8283 -0.7148  1.2741
   94MOL    H9622602   6.809   1.239   7.311 -0.4736  0.1185  0.8289
   94MOL    H9722603   6.866   1.390   7.255 -0.9185 -0.3806 -0.7249
   94MOL    C9822604   7.279   1.242   7.442 -0.0784  0.6658  0.6890
   94MOL    C9922605   7.355   1.148   7.535 -0.1597  0.7033  0.1251
   94MOL   C10022606   7.271   1.114   7.660 -0.5766  0.4565  0.6190
   94MOL   O10122607   7.326   1.095   7.771  0.0420  0.4624  0.5342
   94MOL   O10222608   7.144   1.106   7.636  0.1451  0.0809  0.3822
   94MOL   C10322609   7.042   1.093   7.734  0.6578 -0.4648 -0.1629
   94MOL   H10422610   7.209   1.185   7.380  1.8259  1.6804 -2.4946
   94MOL   H10522611   7.347   1.261   7.358 -1.1585 -2.3984 -0.9759
   94MOL   H10622612   7.434   1.214   7.569 -0.0426  1.1405 -0.9884
   94MOL   H10722613   6.945   1.061   7.696  1.1190 -1.5164 -0.4537
   94MOL   H10822614   7.040   1.186   7.791  0.2382  0.5417 -1.8024
   94MOL   H10922615   7.067   1.022   7.813 -0.6987 -0.8909 -0.1039
   94MOL   C11022616   7.420   1.021   7.465  0.2570  0.0320  0.1225
   94MOL   C11122617   7.560   1.044   7.403 -0.3843  0.7360  0.0856
   94MOL   C11222618   7.671   1.047   7.510  0.1903  0.1093  0.6337
   94MOL   O11322619   7.757   0.959   7.514  0.1184  0.0963 -0.2781
   94MOL   O11422620   7.657   1.145   7.588 -0.1268 -0.2500 -0.2074
   94MOL   C11522621   7.759   1.182   7.678 -0.6065  0.6997 -0.1150
   94MOL   H11622622   7.431   0.936   7.533 -2.8155  0.6031  1.4047
   94MOL   H11722623   7.355   0.983   7.386 -1.2984  0.5272  1.1490
   94MOL   H11822624   7.556   1.140   7.351  0.1735  1.2056  0.8931
   94MOL   H11922625   7.742   1.124   7.768  2.1731 -1.3393 -0.8528
   94MOL   H12022626   7.751   1.286   7.709  1.1401  1.0745 -0.8726
   94MOL   H12122627   7.857   1.164   7.635 -0.1543 -0.0437  1.2270
   94MOL   C12222628   7.575   0.931   7.296  0.1626 -0.0947 -0.0786
   94MOL   C12322629   7.705   0.957   7.197 -0.1277  0.8118  0.3561
   94MOL   C12422630   7.763   0.814   7.173 -0.0991  0.6817  0.3290
   94MOL   O12522631   7.881   0.797   7.151 -0.4449 -0.7244  0.1877
   94MOL   O12622632   7.670   0.722   7.144 -0.4416  0.7684  0.0414
   94MOL   C12722633   7.718   0.586   7.110  0.3825 -0.2547  0.0712
   94MOL   H12822634   7.577   0.838   7.353  0.9787 -0.3433 -0.5024
   94MOL   H12922635   7.483   0.918   7.239 -0.2218  1.1888  0.2393
   94MOL   H13022636   7.776   1.009   7.262 -2.1059  3.3284  0.5695
   94MOL   H13122637   7.780   0.601   7.022  0.1245  1.3543  0.1456
   94MOL   H13222638   7.629   0.528   7.083 -0.8212  1.2476  0.7341
   94MOL   H13322639   7.757   0.537   7.200  1.0457  0.9961  0.4711
   94MOL   C13422640   7.667   1.026   7.061 -0.2704  0.5579  0.1822
   94MOL   C13522641   7.637   1.176   7.064  0.4955  0.4956 -0.4068
   94MOL   C13622642   7.743   1.260   7.145 -0.1960  0.4005  0.0236
   94MOL   O13722643   7.728   1.277   7.268 -0.1812  0.4542  0.0917
   94MOL   O13822644   7.855   1.291   7.072 -0.3542  0.5539  0.2144
   94MOL   C13922645   0.024   1.354   7.139 -0.5802 -0.0800 -0.1620
   94MOL   H14022646   7.747   0.999   6.992  0.6116  1.5003  0.8225
   94MOL   H14122647   7.573   0.981   7.027 -0.1287  0.8413 -0.5826
   94MOL   H14222648   7.550   1.190   7.128  3.3521  0.4030  3.6901
   94MOL   H14322649   0.031   1.334   7.246  1.0782  1.9616  0.1139
   94MOL   H14422650   0.015   1.461   7.126  0.9188  0.0768  0.0754
   94MOL   H14522651   0.121   1.331   7.095  0.0363  1.6048  0.3146
   94MOL   C14622652   7.601   1.251   6.933  0.4171  0.3619  0.4006
   94MOL   C14722653   7.456   1.266   6.888  0.0263  0.1776  0.2196
   94MOL   C14822654   7.395   1.138   6.839 -0.5063  0.1334  0.2987
   94MOL   O14922655   7.297   1.086   6.899  0.2224  0.0785 -0.1098
   94MOL   O15022656   7.468   1.080   6.747  1.3152 -0.1431 -0.1509
   94MOL   C15122657   7.438   0.946   6.715  1.2548  0.0558 -0.0056
   94MOL   H15222658   7.643   1.352   6.940  0.9473  0.2865 -1.4340
   94MOL   H15322659   7.663   1.218   6.850  0.8419  1.7358  0.1527
   94MOL   H15422660   7.454   1.326   6.797 -0.6823 -3.3780 -2.2273
   94MOL   H15522661   7.428   0.888   6.806  2.9897  1.6924  1.2576
   94MOL   H15622662   7.530   0.916   6.665  0.5788 -0.8119 -0.7580
   94MOL   H15722663   7.349   0.951   6.652 -0.5112  1.2431  2.5399
   94MOL   C15822664   7.366   1.347   6.983  0.6472  0.6046  0.2347
   94MOL   C15922665   7.406   1.489   7.003  0.6689 -0.1986  0.8183
   94MOL   C16022666   7.414   1.572   6.877 -0.3145 -0.1786 -0.2934
   94MOL   O16122667   7.521   1.599   6.820 -0.4982  0.1365  0.2742
   94MOL   O16222668   7.295   1.618   6.834 -0.1224  0.5131 -0.0636
   94MOL   C16322669   7.282   1.716   6.739 -0.0549  0.0839 -0.3808
   94MOL   H16422670   7.271   1.355   6.930  0.0946 -0.5117  1.0300
   94MOL   H16522671   7.343   1.293   7.075 -0.3927  1.0329  0.2423
   94MOL   H16622672   7.510   1.485   7.034  0.7539  0.7563  0.6837
   94MOL   H16722673   7.184   1.715   6.692  0.2467 -1.8903 -1.0253
   94MOL   H16822674   7.356   1.709   6.660  0.9560  2.2194  0.3386
   94MOL   H16922675   7.300   1.806   6.798  0.2393 -1.6181  2.2240
   94MOL   C17022676   7.320   1.572   7.105  0.2931  0.4326 -0.1856
   94MOL   C17122677   7.402   1.685   7.176  0.2905  0.0644  0.3702
   94MOL   C17222678   7.308   1.758   7.275 -0.6178 -0.0482  0.6154
   94MOL   O17322679   7.336   1.804   7.388  0.4517  0.3767  0.5699
   94MOL   O17422680   7.185   1.776   7.213  0.4218 -0.4854  0.4156
   94MOL   C17522681   7.082   1.822   7.297  0.3705  1.0644 -0.2731
   94MOL   H17622682   7.224   1.605   7.065  0.1366 -0.9361 -0.9940
   94MOL   H17722683   7.288   1.506   7.185  2.3637 -1.9648 -1.2722
   94MOL   H17822684   7.431   1.762   7.105 -1.0740  0.3711  0.1425
   94MOL   H17922685   7.049   1.741   7.362  1.3293 -0.1382 -1.2661
   94MOL   H18022686   6.997   1.841   7.231 -0.9574 -3.4697  0.0048
   94MOL   H18122687   7.101   1.910   7.358 -1.9356  0.7882  0.9184
   94MOL   C18222688   7.526   1.634   7.254  0.0239 -0.4596  0.7387
   94MOL   C18322689   7.630   1.741   7.296 -0.0193 -0.0601 -0.1642
   94MOL   C18422690   7.708   1.680   7.412 -0.1139 -0.0866 -0.9700
   94MOL   O18522691   7.680   1.701   7.528 -0.0210  0.1821  0.1023
   94MOL   O18622692   7.794   1.589   7.374 -0.8788  0.0643 -0.2158
   94MOL   C18722693   7.854   1.497   7.462  0.2143  0.1503 -1.0226
   94MOL   H18822694   7.495   1.580   7.343  0.7502 -0.8685  0.7454
   94MOL   H18922695   7.582   1.568   7.188 -1.1839  0.1485 -0.9460
   94MOL   H19022696   7.571   1.828   7.323 -0.4846 -0.2316 -0.6167
   94MOL   H19122697   7.777   1.433   7.506  1.9419 -0.9801  0.4357
   94MOL   H19222698   7.895   1.541   7.553  0.3777  0.8210 -1.4155
   94MOL   H19322699   0.002   1.441   7.415 -0.0872 -0.3039 -1.0060
   94MOL   C19422700   7.718   1.803   7.185 -0.1055  0.5096  0.0916
   94MOL   C19522701   7.774   1.945   7.217 -0.5950  0.0383  0.2153
   94MOL   C19622702   7.881   1.994   7.109  0.3045 -0.3160  0.1515
   94MOL   O19722703   0.055   2.054   7.140 -0.2386 -0.2568 -0.1008
   94MOL   O19822704   7.837   1.968   6.983  0.2618  0.3196  0.1120
   94MOL   C19922705   7.905   2.021   6.875 -0.6186 -0.2228  0.3881
   94MOL   H20022706   7.803   1.737   7.170  1.6297  2.6419  0.1566
   94MOL   H20122707   7.655   1.806   7.096  0.4361 -1.0197 -0.3548
   94MOL   H20222708   7.822   1.946   7.315 -1.0009  0.2242  0.4133
   94MOL   H20322709   0.045   2.099   6.900 -0.6095 -0.2795  0.5397
   94MOL   H20422710   7.843   2.051   6.791  0.6712  2.3626  0.2782
   94MOL   H20522711   0.047   1.950   6.839  0.7719  1.4229 -0.0914
   94MOL   C20622712   7.654   2.046   7.214 -0.0568  0.3592 -1.0555
   94MOL   C20722713   7.668   2.167   7.310  0.1988 -0.4811 -0.2628
   94MOL   C20822714   7.619   2.138   7.447  0.1743 -0.4088 -0.0232
   94MOL   O20922715   7.525   2.204   7.494  0.3212  0.4143  0.2616
   94MOL   O21022716   7.685   2.035   7.505  0.0918 -0.2239  0.3492
   94MOL   C21122717   7.640   1.996   7.631  0.2467 -0.0330 -0.4533
   94MOL   H21222718   7.629   2.090   7.118  0.1994  1.7970 -0.4812
   94MOL   H21322719   7.561   1.998   7.244  0.9152 -0.6507  0.4004
   94MOL   H21422720   7.595   2.237   7.269  1.4567  0.9696 -0.0559
   94MOL   H21522721   7.655   2.087   7.690 -0.8965  0.6378 -1.1743
   94MOL   H21622722   7.713   1.925   7.671  0.0923 -0.4514 -0.9186
   94MOL   H21722723   7.535   1.967   7.626  0.6790 -1.7760  0.1907
   94MOL   C21822724   7.802   2.239   7.309 -0.4408  0.4318  0.1730
   94MOL   C21922725   7.816   2.370   7.376 -0.2673  0.2133  1.3426
   94MOL   C22022726   7.853   2.363   7.525 -0.1006 -0.7871 -0.1871
   94MOL   O22122727   0.014   2.298   7.566 -0.4473  0.6566 -0.4320
   94MOL   O22222728   7.782   2.449   7.597  0.2874 -0.3751 -0.0715
   94MOL   C22322729   7.799   2.448   7.737  0.0518 -0.9050  0.7094
   94MOL   H22422730   7.884   2.173   7.337 -0.4755  1.0902  1.8971
   94MOL   H22522731   7.816   2.251   7.202 -0.0425 -0.7945  0.0812
   94MOL   H22622732   7.726   2.430   7.359  1.4976  2.0276 -2.1456
   94MOL   H22722733   7.767   2.353   7.780  2.0699 -1.5245  0.8652
   94MOL   H22822734   7.771   2.534   7.799  1.3854 -0.0680  0.1687
   94MOL   H22922735   7.906   2.438   7.753  0.0392 -2.1593 -0.0045
   94MOL   C23022736   7.906   2.458   7.291  0.3228  0.3828  0.4135
   94MOL   C23122737   7.883   2.609   7.320  0.6352 -1.2273  0.1811
   94MOL   C23222738   0.031   2.701   7.221  1.0659  0.1157 -0.1341
   94MOL   O23322739   7.916   2.728   7.116 -0.4755 -0.5299  0.8581
   94MOL   O23422740   0.147   2.748   7.264 -0.1977 -0.1105  0.3267
   94MOL   C23522741   0.216   2.842   7.180 -0.0965  0.0694 -0.2618
   94MOL   H23622742   0.077   2.426   7.301 -0.2383 -1.9005 -0.7160
   94MOL   H23722743   7.887   2.440   7.185  0.9925 -1.8693  0.6448
   94MOL   H23822744   7.926   2.634   7.417  0.1223  2.3898 -0.4634
   94MOL   H23922745   0.311   2.867   7.228 -1.1794 -0.3098  2.1866
   94MOL   H24022746   0.166   2.939   7.182  1.0716  0.6622  1.2987
   94MOL   H24122747   0.228   2.814   7.076 -1.3901  1.6252 -0.8611
   94MOL   H24222748   7.779   2.641   7.313  0.4888 -1.2685  1.8931
   95MOL     C122749   0.590   7.552   2.641 -0.8274 -0.3271 -0.5413
   95MOL     C222750   0.733   7.613   2.652 -0.0568  0.2505 -0.6285
   95MOL     C322751   0.805   7.640   2.521 -0.1935 -0.0958 -0.0858
   95MOL     O422752   0.874   7.744   2.497 -0.4349 -0.1552 -0.2307
   95MOL     O522753   0.793   7.534   2.441 -0.0083  0.6136 -0.0544
   95MOL     C622754   0.831   7.555   2.306  0.5977 -0.3828 -0.6892
   95MOL     H722755   0.522   7.599   2.570 -0.6503  2.0741  0.8219
   95MOL     H822756   0.525   7.542   2.729 -1.7939  0.2400 -1.1732
   95MOL     H922757   0.795   7.552   2.717  1.0336  2.3098  0.3416
   95MOL    H1022758   0.786   7.650   2.276  2.8062  1.6892  2.1704
   95MOL    H1122759   0.802   7.475   2.238 -0.2526  0.1255 -0.9416
   95MOL    H1222760   0.935   7.585   2.298  0.4150  0.6100  0.4114
   95MOL    H1322761   0.593   7.449   2.605 -0.4630 -0.0972 -1.1709
   95MOL    C1422762   0.716   7.749   2.732 -0.1323 -0.0552  0.0247
   95MOL    C1522763   0.840   7.812   2.790  0.1022  0.2027 -0.2634
   95MOL    C1622764   0.830   0.029   2.834  0.9281  0.0533 -0.1824
   95MOL    O1722765   0.889   0.079   2.929  0.9117 -0.1526  0.6932
   95MOL    O1822766   0.750   0.104   2.753 -0.1348 -1.0023  0.0821
   95MOL    C1922767   0.717   0.238   2.788  0.5551  0.2191  0.2663
   95MOL    H2022768   0.669   7.823   2.668  2.2625  1.0935 -0.4444
   95MOL    H2122769   0.650   7.725   2.815  2.6358 -0.2358  2.2671
   95MOL    H2222770   0.905   7.836   2.706  0.5173 -0.2762 -0.0849
   95MOL    H2322771   0.673   0.288   2.702  0.0814 -1.8017 -0.6914
   95MOL    H2422772   0.819   0.274   2.793  1.4919 -2.2650 -0.5401
   95MOL    H2522773   0.684   0.260   2.890  1.1218 -1.7418  0.8967
   95MOL    C2622774   0.922   7.725   2.886 -0.1744 -0.0366  0.3090
   95MOL    C2722775   0.836   7.657   3.005 -0.4839  0.3031 -0.3781
   95MOL    C2822776   0.866   7.512   3.009 -0.0027  0.3839  0.7792
   95MOL    O2922777   0.796   7.435   2.947 -0.1896 -0.1721  0.6601
   95MOL    O3022778   0.978   7.469   3.076 -0.3067  0.4442 -0.4833
   95MOL    C3122779   1.016   7.341   3.071  0.2229  0.6497 -0.1954
   95MOL    H3222780   0.968   7.643   2.831 -0.1901 -0.0641  0.3373
   95MOL    H3322781   1.007   7.785   2.916  0.2593 -0.0531 -0.8726
   95MOL    H3422782   0.730   7.676   2.989 -1.1045  0.1744  3.1304
   95MOL    H3522783   0.945   7.260   3.060  1.7639 -0.7030 -0.4194
   95MOL    H3622784   1.030   7.320   3.177 -1.2457  2.3190  0.3480
   95MOL    H3722785   1.099   7.309   3.007  0.6776 -0.8026  1.1059
   95MOL    C3822786   0.862   7.734   3.143  0.4861  0.2032  0.1602
   95MOL    C3922787   0.805   7.673   3.272  1.0780  0.4916 -0.9128
   95MOL    C4022788   0.859   7.751   3.391 -0.1476  0.6580 -0.1295
   95MOL    O4122789   0.858   7.872   3.390  0.3486  0.1198 -0.3382
   95MOL    O4222790   0.919   7.673   3.488  0.3356 -0.0542 -0.1825
   95MOL    C4322791   0.964   7.739   3.607 -0.3084  0.2007  0.3471
   95MOL    H4422792   0.970   7.733   3.160  0.4241 -0.4415  0.5444
   95MOL    H4522793   0.825   7.835   3.128 -2.1275 -1.0816 -2.6455
   95MOL    H4622794   0.846   7.573   3.262  1.0819  0.4118 -0.1555
   95MOL    H4722795   1.023   7.826   3.579 -0.3253 -0.2907 -1.3100
   95MOL    H4822796   1.043   7.680   3.653  1.0134  1.2565 -0.5079
   95MOL    H4922797   0.882   7.763   3.674  0.8427 -0.4952  2.0446
   95MOL    C5022798   0.654   7.663   3.267  0.1175  0.4508 -0.1629
   95MOL    C5122799   0.606   7.560   3.374  1.1935 -0.3074  0.2073
   95MOL    C5222800   0.454   7.561   3.390  0.3693 -0.4392 -0.4878
   95MOL    O5322801   0.391   7.457   3.374  0.8063  0.4431 -0.3326
   95MOL    O5422802   0.402   7.671   3.435 -0.1063  0.2680  0.0006
   95MOL    C5522803   0.263   7.676   3.477  0.2519  0.9984 -0.1905
   95MOL    H5622804   0.604   7.759   3.282 -0.2820  0.0161  1.4362
   95MOL    H5722805   0.615   7.630   3.171 -0.8046  0.5470  0.1739
   95MOL    H5822806   0.635   7.595   3.473 -0.9877 -0.0800  0.7827
   95MOL    H5922807   0.256   7.780   3.508  3.1648  1.2124 -0.1554
   95MOL    H6022808   0.237   7.622   3.569  0.0297 -0.0553 -0.8620
   95MOL    H6122809   0.193   7.631   3.406 -1.3643  1.5489  1.0229
   95MOL    C6222810   0.659   7.414   3.352  0.4233  0.0061  0.1831
   95MOL    C6322811   0.748   7.359   3.457 -0.0372  0.1800  0.3917
   95MOL    C6422812   0.682   7.355   3.595 -0.2724  0.0489  0.4269
   95MOL    O6522813   0.727   7.418   3.693  0.5595  0.0017 -0.5984
   95MOL    O6622814   0.585   7.261   3.596 -0.6122 -0.1421  0.1929
   95MOL    C6722815   0.509   7.240   3.712 -0.1375 -0.4464  0.2210
   95MOL    H6822816   0.582   7.338   3.339 -0.0781  0.8585 -2.1079
   95MOL    H6922817   0.717   7.415   3.259 -2.2448  1.6279 -1.5404
   95MOL    H7022818   0.834   7.419   3.486  2.3913 -3.1942  0.4524
   95MOL    H7122819   0.450   7.327   3.740  1.2681  0.2968  0.9157
   95MOL    H7222820   0.573   7.218   3.797  0.1906 -3.7853 -0.8144
   95MOL    H7322821   0.445   7.152   3.706 -2.3681  1.1184  0.5899
   95MOL    C7422822   0.798   7.219   3.401 -0.4884  0.2485 -0.0186
   95MOL    C7522823   0.918   7.172   3.487  0.1152  0.4500 -0.0391
   95MOL    C7622824   0.867   7.089   3.604 -0.7521  0.3485  0.1489
   95MOL    O7722825   0.868   7.139   3.714 -0.1553  0.2757 -0.7794
   95MOL    O7822826   0.812   6.972   3.566  0.2486 -0.0804 -0.2260
   95MOL    C7922827   0.750   6.893   3.671  0.5563  0.0095  0.9621
   95MOL    H8022828   0.713   7.151   3.397 -2.5176  2.7005  0.1643
   95MOL    H8122829   0.829   7.229   3.297 -0.9925 -0.6685 -0.2590
   95MOL    H8222830   0.974   7.251   3.538  0.9827  0.0205 -0.3100
   95MOL    H8322831   0.735   6.797   3.621 -2.6567  1.4044 -0.8571
   95MOL    H8422832   0.662   6.946   3.706 -0.6376 -0.5600 -1.1142
   95MOL    H8522833   0.819   6.894   3.756  3.1028 -0.6605 -1.0283
   95MOL    C8622834   1.021   7.102   3.400  0.0732  1.2379  0.4932
   95MOL    C8722835   1.137   7.034   3.480  0.0211 -0.6938  0.2207
   95MOL    C8822836   1.178   6.903   3.410  0.1140 -0.4240 -0.1621
   95MOL    O8922837   1.283   6.887   3.348  0.4684 -0.2153 -0.0162
   95MOL    O9022838   1.081   6.820   3.406 -0.2298  0.4212 -0.1053
   95MOL    C9122839   1.084   6.692   3.344  0.2312 -0.5407  0.5003
   95MOL    H9222840   0.967   7.019   3.355 -2.6190  1.6930  2.7818
   95MOL    H9322841   1.063   7.176   3.332  0.6187 -0.7854 -1.4283
   95MOL    H9422842   1.098   7.006   3.578 -0.7432 -1.8841 -0.4069
   95MOL    H9522843   1.135   6.621   3.410  1.2871  0.2967  0.5909
   95MOL    H9622844   1.140   6.686   3.250  0.8882 -0.4366  0.8824
   95MOL    H9722845   0.982   6.659   3.326 -0.1008  0.8949 -0.2577
   95MOL    C9822846   1.259   7.127   3.495  0.9670 -0.6497  0.8619
   95MOL    C9922847   1.238   7.270   3.557  0.5936 -0.0244 -0.3409
   95MOL   C10022848   1.180   7.261   3.699  0.9438 -0.1866 -0.2054
   95MOL   O10122849   1.202   7.164   3.770 -0.2500  0.7369 -0.2469
   95MOL   O10222850   1.100   7.369   3.732 -0.3359  0.7421  0.1883
   95MOL   C10322851   1.059   7.382   3.862  0.1056 -0.6764  0.1342
   95MOL   H10422852   1.335   7.073   3.551  1.0874 -1.8527 -0.4349
   95MOL   H10522853   1.301   7.124   3.394  1.8468  0.3727  1.1912
   95MOL   H10622854   1.171   7.331   3.497 -0.3873  0.4187  1.1645
   95MOL   H10722855   1.127   7.444   3.919 -1.6629  1.1688  0.3171
   95MOL   H10822856   1.044   7.291   3.921  1.9089 -1.9740 -1.3298
   95MOL   H10922857   0.962   7.431   3.872 -0.1881 -1.2945  0.4149
   95MOL   C11022858   1.371   7.349   3.565  0.8153  0.2370  0.3535
   95MOL   C11122859   1.436   7.373   3.421 -0.1278 -0.6426 -0.2902
   95MOL   C11222860   1.339   7.451   3.338 -0.3884 -0.4546 -0.0621
   95MOL   O11322861   1.281   7.400   3.242 -0.3293  0.2105  0.4667
   95MOL   O11422862   1.315   7.576   3.380 -0.1488  0.4055  0.0263
   95MOL   C11522863   1.223   7.651   3.305 -0.3077  0.4183  0.0450
   95MOL   H11622864   1.351   7.445   3.614 -0.2102 -0.0131  0.4349
   95MOL   H11722865   1.438   7.294   3.631 -1.2859 -2.5460  0.2487
   95MOL   H11822866   1.462   7.273   3.385 -1.4880 -1.1105  0.0144
   95MOL   H11922867   1.134   7.589   3.292  0.0297 -0.1818  0.5560
   95MOL   H12022868   1.265   7.664   3.206 -0.8575 -1.5950 -0.4850
   95MOL   H12122869   1.204   7.748   3.351  0.0157  0.4632  0.0859
   95MOL   C12222870   1.574   7.444   3.425  0.3087 -0.4267 -0.4416
   95MOL   C12322871   1.644   7.450   3.282  0.0428  0.2379  0.1453
   95MOL   C12422872   1.665   7.595   3.239 -0.2382 -0.1950  0.4710
   95MOL   O12522873   1.577   7.658   3.186 -0.1675  0.5511 -0.3276
   95MOL   O12622874   1.788   7.643   3.283  0.2709  0.0856 -0.0329
   95MOL   C12722875   1.809   7.781   3.285  0.3042  0.1982  0.0666
   95MOL   H12822876   1.553   7.539   3.473 -2.9314 -1.1594 -0.3417
   95MOL   H12922877   1.640   7.392   3.495  1.6898  1.3991 -0.3516
   95MOL   H13022878   1.576   7.411   3.206 -1.0481 -0.1841  1.3163
   95MOL   H13122879   1.755   7.831   3.204  2.2895  4.4404  1.1912
   95MOL   H13222880   1.910   7.814   3.259  0.5184 -1.0891 -0.8169
   95MOL   H13322881   1.785   7.812   3.386  1.2210 -1.0456  0.6780
   95MOL   C13422882   1.767   7.358   3.282 -0.7586  0.0081  0.0441
   95MOL   C13522883   1.720   7.209   3.291  0.1631  0.2407  0.1282
   95MOL   C13622884   1.643   7.162   3.169 -0.1060  0.2318 -0.5877
   95MOL   O13722885   1.669   7.201   3.058  0.1467  0.1033  0.0015
   95MOL   O13822886   1.537   7.080   3.199  0.2462  0.5816 -0.2267
   95MOL   C13922887   1.423   7.053   3.109 -0.2237 -0.4886 -0.0156
   95MOL   H14022888   1.826   7.373   3.191 -2.0061 -0.7794 -0.9082
   95MOL   H14122889   1.829   7.373   3.371  1.6397 -0.6048 -1.4709
   95MOL   H14222890   1.642   7.197   3.366  0.3526 -0.4858  0.2131
   95MOL   H14322891   1.382   6.953   3.122  0.8375 -1.0097 -0.5982
   95MOL   H14422892   1.465   7.053   3.008  2.2931  0.2265  0.9805
   95MOL   H14522893   1.356   7.138   3.108 -0.1675 -0.4352 -2.5847
   95MOL   C14622894   1.833   7.119   3.327  0.7529  0.2134 -0.1595
   95MOL   C14722895   1.934   7.068   3.213 -0.1532  0.5859  0.2493
   95MOL   C14822896   2.002   7.179   3.135 -0.7133 -0.4750  0.1483
   95MOL   O14922897   2.024   7.162   3.016 -0.1783 -0.4977 -0.1736
   95MOL   O15022898   2.064   7.274   3.215  0.3524 -0.4317  0.0805
   95MOL   C15122899   2.146   7.382   3.168 -0.4772  0.5579  0.5680
   95MOL   H15222900   1.900   7.152   3.405  0.0862 -1.6449  1.2371
   95MOL   H15322901   1.791   7.028   3.370  1.0644  0.2527  0.2231
   95MOL   H15422902   1.882   7.002   3.143  2.2942  0.4512 -1.4662
   95MOL   H15522903   2.086   7.459   3.118  0.3829 -0.3094 -1.8651
   95MOL   H15622904   2.216   7.339   3.097 -0.9685  1.1629 -0.2933
   95MOL   H15722905   2.190   7.424   3.259 -1.4149  1.9853  0.3832
   95MOL   C15822906   2.039   6.970   3.278  0.7268 -0.0266 -0.4790
   95MOL   C15922907   2.142   6.901   3.191 -0.4263  0.3547  0.2306
   95MOL   C16022908   2.281   6.888   3.259 -0.2131  0.7059  0.3315
   95MOL   O16122909   2.291   6.842   3.376  0.2396 -0.2891 -0.1464
   95MOL   O16222910   2.381   6.916   3.171  0.0756 -0.2697  0.5014
   95MOL   C16322911   2.513   6.892   3.198  0.1639  0.7075  0.6674
   95MOL   H16422912   2.098   7.024   3.352  0.5063  0.2080 -0.4724
   95MOL   H16522913   1.993   6.890   3.335  0.3637  0.5518  0.0345
   95MOL   H16622914   2.170   6.971   3.111  3.1022 -1.8378 -0.5739
   95MOL   H16722915   2.544   6.788   3.192 -1.7825  0.1188  0.7552
   95MOL   H16822916   2.531   6.931   3.299  2.5713 -0.1328  0.5925
   95MOL   H16922917   2.580   6.952   3.135  0.0904  0.8431  0.7186
   95MOL   C17022918   2.091   6.767   3.118 -0.1309  0.0381  0.2027
   95MOL   C17122919   2.184   6.702   3.009  0.2122  0.2375  0.6023
   95MOL   C17222920   2.250   6.574   3.056 -1.3123  0.8716  0.8968
   95MOL   O17322921   2.361   6.563   3.105  0.2190 -0.5923 -0.4642
   95MOL   O17422922   2.171   6.465   3.025  0.0112  0.1721  0.2321
   95MOL   C17522923   2.207   6.331   3.066  0.4905  0.2923  0.1950
   95MOL   H17622924   2.065   6.685   3.185  0.3939 -1.1958 -1.0903
   95MOL   H17722925   1.996   6.791   3.071  0.1976 -0.2845 -0.6307
   95MOL   H17822926   2.263   6.774   2.990 -0.9383  0.6092 -3.2027
   95MOL   H17922927   2.154   6.299   3.155 -0.2565 -1.3819 -0.8058
   95MOL   H18022928   2.314   6.320   3.082  0.7377  0.6729 -1.1318
   95MOL   H18122929   2.187   6.264   2.982  1.0490  1.5367 -0.9617
   95MOL   C18222930   2.100   6.680   2.878  0.0183  0.0934  1.2760
   95MOL   C18322931   2.062   6.812   2.791 -0.4434 -0.0837  0.0356
   95MOL   C18422932   2.181   6.911   2.761  0.3637 -0.4819  0.0869
   95MOL   O18522933   2.203   7.023   2.822  0.2940  0.2311  0.0913
   95MOL   O18622934   2.279   6.856   2.685 -0.3592 -0.0573 -1.0554
   95MOL   C18722935   2.402   6.918   2.662  1.1991  0.6532  0.0511
   95MOL   H18822936   2.162   6.618   2.812  2.0252  0.7975  2.4581
   95MOL   H18922937   2.003   6.633   2.894 -0.3221  0.2473 -0.2495
   95MOL   H19022938   1.984   6.869   2.840 -0.6890  0.3610 -0.8673
   95MOL   H19122939   2.461   6.927   2.753 -0.5796  0.3870  1.2500
   95MOL   H19222940   2.386   7.018   2.620 -0.2439  0.2658 -0.3466
   95MOL   H19322941   2.463   6.862   2.591 -0.0489  1.5846 -1.7912
   95MOL   C19422942   2.004   6.761   2.652  0.5656  0.3909  0.3576
   95MOL   C19522943   1.866   6.690   2.657  0.1069 -0.2344 -0.7029
   95MOL   C19622944   1.746   6.775   2.690  0.3539 -0.2855  0.3852
   95MOL   O19722945   1.649   6.790   2.614 -0.3396  0.4998  0.2709
   95MOL   O19822946   1.761   6.826   2.814  0.0769  0.0003  0.4519
   95MOL   C19922947   1.691   6.947   2.845  0.4306 -0.1451  0.2444
   95MOL   H20022948   1.987   6.853   2.595 -1.2705  1.0179  1.8480
   95MOL   H20122949   2.075   6.695   2.604 -1.6274 -1.0487 -0.9660
   95MOL   H20222950   1.867   6.625   2.745  1.4780  2.3318  1.2662
   95MOL   H20322951   1.596   6.906   2.881  1.5687 -2.1924  1.0124
   95MOL   H20422952   1.668   7.004   2.755  0.6301 -2.4080 -1.2953
   95MOL   H20522953   1.747   7.000   2.922  0.0802 -0.2367  0.5600
   95MOL   C20622954   1.840   6.606   2.531  0.0559  0.5682  0.5991
   95MOL   C20722955   1.919   6.469   2.540  0.3154 -0.1290  0.0470
   95MOL   C20822956   1.843   6.364   2.624 -0.5727 -0.3127  0.4354
   95MOL   O20922957   1.901   6.309   2.717  0.1554 -0.6489  0.3387
   95MOL   O21022958   1.718   6.333   2.583 -0.6455  0.0718 -0.4237
   95MOL   C21122959   1.632   6.255   2.660 -0.2967 -0.1959 -0.2842
   95MOL   H21222960   1.738   6.581   2.504  0.4377 -1.7820  1.2586
   95MOL   H21322961   1.872   6.663   2.443  1.0685 -0.2549  0.4180
   95MOL   H21422962   2.012   6.482   2.595  0.7331  2.0591 -1.1378
   95MOL   H21522963   1.536   6.237   2.610 -0.3728 -1.4879  0.2880
   95MOL   H21622964   1.617   6.309   2.753 -0.2326  2.0339 -1.5386
   95MOL   H21722965   1.676   6.157   2.681  1.6388  0.0400 -3.0257
   95MOL   C21822966   1.958   6.412   2.403 -0.1042  0.6729  0.4251
   95MOL   C21922967   2.052   6.279   2.396  0.3352 -0.5921 -0.0711
   95MOL   C22022968   2.073   6.223   2.259 -0.5509 -0.6558 -0.4582
   95MOL   O22122969   2.072   6.292   2.156  0.2333  0.2270  0.4141
   95MOL   O22222970   2.087   6.089   2.263  0.5877 -0.2021  0.6510
   95MOL   C22322971   2.077   6.012   2.136 -0.0090  0.2364  0.0362
   95MOL   H22422972   1.866   6.386   2.351 -0.0039 -0.7693  0.9374
   95MOL   H22522973   1.992   6.502   2.353 -1.7681  1.6767  1.0695
   95MOL   H22622974   1.998   6.205   2.455 -1.2224 -1.9731 -3.1092
   95MOL   H22722975   1.996   5.940   2.147 -0.2670  0.6714  1.0336
   95MOL   H22822976   2.176   5.968   2.118 -0.6717 -0.2517 -2.6342
   95MOL   H22922977   2.061   6.083   2.055 -3.4757  0.8192  1.1694
   95MOL   C23022978   2.191   6.298   2.465  0.1938 -0.1271  0.7900
   95MOL   C23122979   2.297   6.390   2.402  0.2754 -0.2967  0.5442
   95MOL   C23222980   2.278   6.537   2.445 -0.1547  0.1456  0.0339
   95MOL   O23322981   2.318   6.565   2.553 -0.0640  0.0198 -0.2178
   95MOL   O23422982   2.220   6.621   2.356  0.1167  0.2277 -0.0765
   95MOL   C23522983   2.252   6.757   2.349 -0.0739 -0.0379 -0.7347
   95MOL   H23622984   2.166   6.339   2.562 -0.7619 -0.4853  0.6984
   95MOL   H23722985   2.227   6.199   2.494 -0.3844 -0.2671  1.0266
   95MOL   H23822986   2.311   6.387   2.294  0.2611 -0.5580  0.5499
   95MOL   H23922987   2.324   6.761   2.268  0.5922  0.0165 -0.1404
   95MOL   H24022988   2.286   6.815   2.435  0.2955  1.0531 -1.5957
   95MOL   H24122989   2.164   6.821   2.340  0.3823  0.7250  0.1163
   95MOL   H24222990   2.399   6.366   2.433 -0.0254 -0.1893  1.6413
   96MOL     C122991   7.097   4.929   1.220  0.3321 -0.0331  0.1743
   96MOL     C222992   7.028   4.833   1.124  0.0330 -1.0894  0.0338
   96MOL     C322993   6.984   4.916   0.997  0.0271 -0.0492 -0.5600
   96MOL     O422994   7.049   4.911   0.891  0.4742  0.2745 -0.5757
   96MOL     O522995   6.870   4.984   1.022  0.3484  0.3979 -0.0029
   96MOL     C622996   6.797   5.049   0.923  1.1507 -0.2833 -0.3730
   96MOL     H722997   7.054   5.030   1.217 -2.3916 -1.1344  0.2611
   96MOL     H822998   7.203   4.944   1.203  1.1527 -2.3769  2.8348
   96MOL     H922999   6.939   4.800   1.176  0.1180 -1.2542  0.0751
   96MOL    H1023000   6.813   4.989   0.832  0.8480 -0.9381 -0.0012
   96MOL    H1123001   6.825   5.153   0.907 -1.8994  0.7214  0.5189
   96MOL    H1223002   6.690   5.052   0.942  1.1108  1.0930 -0.7970
   96MOL    H1323003   7.093   4.883   1.319  1.0011  3.2737  1.8210
   96MOL    C1423004   7.109   4.706   1.088 -0.0795 -0.6700 -0.7196
   96MOL    C1523005   7.123   4.603   1.201  0.1344  0.1902  0.1197
   96MOL    C1623006   6.993   4.562   1.266  0.4115  0.0801  0.1584
   96MOL    O1723007   6.975   4.560   1.388  0.4991 -0.1794  0.2145
   96MOL    O1823008   6.901   4.522   1.176 -0.5255  0.1975  0.0194
   96MOL    C1923009   6.780   4.467   1.215 -0.2054 -0.1355  0.1454
   96MOL    H2023010   7.062   4.666   0.998 -0.3953  0.4340 -1.0476
   96MOL    H2123011   7.207   4.727   1.044 -0.4965 -1.0649 -1.8598
   96MOL    H2223012   7.176   4.653   1.282  0.2442 -0.0653  0.2054
   96MOL    H2323013   6.743   4.386   1.152  1.6202  0.0909 -1.2702
   96MOL    H2423014   6.691   4.527   1.233  0.3523 -0.1751  3.4321
   96MOL    H2523015   6.806   4.421   1.311 -1.6162 -0.2639  0.4782
   96MOL    C2623016   7.212   4.487   1.145 -0.4723  0.3920 -0.0123
   96MOL    C2723017   7.268   4.400   1.265  0.4804 -0.3252 -0.1083
   96MOL    C2823018   7.225   4.255   1.272  0.1716 -0.4729 -0.2518
   96MOL    O2923019   7.304   4.164   1.285  0.5734  0.3475  0.6467
   96MOL    O3023020   7.097   4.246   1.261  0.3149 -0.1762  0.4488
   96MOL    C3123021   7.041   4.116   1.277 -0.8511  0.1518  0.1098
   96MOL    H3223022   7.153   4.431   1.073 -0.4350 -0.5872  0.7052
   96MOL    H3323023   7.300   4.536   1.102  0.3081 -0.0785  1.0148
   96MOL    H3423024   7.237   4.448   1.358  0.9658  2.1205 -1.1749
   96MOL    H3523025   6.938   4.109   1.241 -0.0132  2.0491 -2.8978
   96MOL    H3623026   7.050   4.089   1.382 -0.6275  0.7329  0.2378
   96MOL    H3723027   7.105   4.044   1.226 -0.1640  0.6896  0.2193
   96MOL    C3823028   7.418   4.409   1.271 -0.2269  0.9302 -0.8049
   96MOL    C3923029   7.475   4.551   1.290  0.2042 -0.4224 -0.2378
   96MOL    C4023030   7.441   4.609   1.428 -0.6185 -0.3861 -0.0206
   96MOL    O4123031   7.492   4.577   1.534 -0.5383  0.0197 -0.1206
   96MOL    O4223032   7.351   4.707   1.414 -0.1330 -0.4028  0.3956
   96MOL    C4323033   7.318   4.786   1.521 -0.2826  0.1175 -0.1384
   96MOL    H4423034   7.463   4.349   1.351  0.7137  1.9861 -0.5400
   96MOL    H4523035   7.457   4.378   1.174 -0.0259 -0.4046 -0.3059
   96MOL    H4623036   7.447   4.630   1.220  1.1522  1.1206  1.0857
   96MOL    H4723037   7.266   4.735   1.603 -0.0021 -0.3898 -0.2730
   96MOL    H4823038   7.245   4.856   1.481  0.1073  1.5639  1.5907
   96MOL    H4923039   7.402   4.844   1.560 -0.4293  0.6547 -0.6161
   96MOL    C5023040   7.631   4.553   1.271 -0.2149  0.0892  0.6152
   96MOL    C5123041   7.708   4.691   1.282 -0.5902  0.7048  0.5194
   96MOL    C5223042   7.855   4.671   1.336  0.6559  0.7325 -1.2478
   96MOL    O5323043   7.890   4.727   1.444  0.3365  0.0249  0.4967
   96MOL    O5423044   7.932   4.591   1.259 -0.3010 -0.3971 -0.0861
   96MOL    C5523045   0.128   4.549   1.306  0.2357 -0.0034  0.2879
   96MOL    H5623046   7.683   4.490   1.343  1.4329  1.8343  0.9953
   96MOL    H5723047   7.653   4.512   1.172  0.6165  0.2907  0.7106
   96MOL    H5823048   7.653   4.734   1.366 -0.4579  1.2085  0.3497
   96MOL    H5923049   0.182   4.484   1.237  0.6312  0.2283  0.3740
   96MOL    H6023050   0.105   4.501   1.401  1.3263 -4.4219 -1.5692
   96MOL    H6123051   0.190   4.635   1.330  0.7289  0.1328 -1.4190
   96MOL    C6223052   7.699   4.782   1.161 -0.0463  0.1371  0.0341
   96MOL    C6323053   7.724   4.937   1.181  0.6393  0.6706 -0.6110
   96MOL    C6423054   7.783   5.007   1.059 -0.2394 -0.5644 -0.3511
   96MOL    O6523055   7.903   5.031   1.042 -0.2699  0.8436  0.3866
   96MOL    O6623056   7.685   5.036   0.967  0.4078  0.1214  0.3324
   96MOL    C6723057   7.724   5.106   0.851 -0.2323  0.5853 -0.6031
   96MOL    H6823058   7.760   4.737   1.082  0.0981 -2.2334  1.4588
   96MOL    H6923059   7.598   4.790   1.121  0.3113  2.5973 -0.5032
   96MOL    H7023060   7.805   4.938   1.254 -2.3310 -0.2220  2.8570
   96MOL    H7123061   7.681   5.071   0.758 -0.5113  0.5489 -0.4596
   96MOL    H7223062   7.831   5.089   0.838 -0.1933  0.5284 -0.2156
   96MOL    H7323063   7.703   5.212   0.871 -1.3205  0.4793 -1.1955
   96MOL    C7423064   7.600   5.000   1.236 -0.3787  0.1689  0.1429
   96MOL    C7523065   7.596   5.157   1.274  0.0152  0.0573  0.3118
   96MOL    C7623066   7.449   5.208   1.281 -0.1628  0.5713  0.4863
   96MOL    O7723067   7.407   5.300   1.207 -0.3012  0.6428 -1.4716
   96MOL    O7823068   7.376   5.137   1.371  0.2474 -0.0139  0.3423
   96MOL    C7923069   7.242   5.189   1.391 -0.3914  0.1847  0.8341
   96MOL    H8023070   7.522   4.977   1.164 -0.6202 -0.0625  0.4765
   96MOL    H8123071   7.564   4.946   1.324  2.3489 -0.0921  1.1499
   96MOL    H8223072   7.636   5.215   1.192  0.3149 -0.7639 -0.1321
   96MOL    H8323073   7.234   5.286   1.439  0.8776  0.2377  0.9434
   96MOL    H8423074   7.185   5.112   1.443  2.2475 -1.5043  1.3343
   96MOL    H8523075   7.191   5.182   1.294  2.4908 -0.6173 -0.6767
   96MOL    C8623076   7.679   5.183   1.409 -0.0788  0.0414  0.5506
   96MOL    C8723077   7.834   5.193   1.389  0.0650  0.5581 -0.4009
   96MOL    C8823078   7.880   5.321   1.309  0.5243  0.0348  0.0582
   96MOL    O8923079   7.838   5.437   1.335 -1.3910  0.0683  0.6805
   96MOL    O9023080   0.016   5.288   1.200 -0.1783  0.2601 -0.5307
   96MOL    C9123081   0.085   5.390   1.125  0.3355  0.9501 -0.4415
   96MOL    H9223082   7.652   5.285   1.437 -0.7923  0.0963 -0.3207
   96MOL    H9323083   7.644   5.115   1.487 -0.6251 -0.2505  0.0551
   96MOL    H9423084   7.863   5.108   1.327 -0.4569 -0.6797  1.0264
   96MOL    H9523085   0.026   5.481   1.130 -2.0208 -0.6067  0.9042
   96MOL    H9623086   0.100   5.361   1.021  0.0346  0.3387 -0.3150
   96MOL    H9723087   0.177   5.416   1.178 -0.1741  0.8351  0.5291
   96MOL    C9823088   7.913   5.200   1.522 -0.1239  0.1648  0.2969
   96MOL    C9923089   0.057   5.063   1.540  0.3216  0.1352  0.0388
   96MOL   C10023090   0.165   5.022   1.439 -0.4498  0.2042 -0.3009
   96MOL   O10123091   0.282   5.038   1.465 -0.8003  0.8290 -0.1488
   96MOL   O10223092   0.118   4.971   1.318 -0.1425  0.0204 -0.0718
   96MOL   C10323093   0.218   4.950   1.216 -0.0464  0.8080  0.5027
   96MOL   H10423094   0.058   5.276   1.518  1.1620 -1.1258  0.1434
   96MOL   H10523095   7.849   5.221   1.607  1.1818 -2.1296  1.8966
   96MOL   H10623096   7.916   4.984   1.528 -0.9070  0.8652  2.4880
   96MOL   H10723097   0.281   4.868   1.249 -1.3418 -0.6879 -0.6504
   96MOL   H10823098   0.290   5.031   1.206  1.9031 -0.8175  1.0289
   96MOL   H10923099   0.159   4.917   1.130  2.4809  0.4995 -1.1544
   96MOL   C11023100   0.105   5.037   1.680 -0.1811  0.5509 -0.2306
   96MOL   C11123101   0.005   5.038   1.798  0.0206  0.4248 -0.4159
   96MOL   C11223102   7.847   4.909   1.776 -0.3375 -0.2881  0.7427
   96MOL   O11323103   7.884   4.797   1.815 -0.2023 -0.1087 -0.0289
   96MOL   O11423104   7.744   4.942   1.702  0.2012 -0.4719 -0.0907
   96MOL   C11523105   7.649   4.846   1.659 -0.2149  0.2061 -0.2332
   96MOL   H11623106   0.160   4.943   1.691  0.3274  0.9541  0.7015
   96MOL   H11723107   0.171   5.122   1.695 -1.2647  1.2862  0.4414
   96MOL   H11823108   7.870   5.123   1.793 -1.2897 -0.5920 -0.1464
   96MOL   H11923109   7.698   4.750   1.648 -2.0379 -0.8689  0.7919
   96MOL   H12023110   7.603   4.875   1.564 -0.9720 -0.6755 -0.1490
   96MOL   H12123111   7.585   4.842   1.747 -0.8622  1.3559 -0.6393
   96MOL   C12223112   0.072   5.033   1.939 -0.8284  0.4611 -0.6073
   96MOL   C12323113   0.118   5.169   1.971 -0.1951 -0.2296  0.1184
   96MOL   C12423114   7.931   5.258   2.012 -0.0379 -0.3417  0.9567
   96MOL   O12523115   7.887   5.351   1.943  0.1970 -0.0118 -0.1875
   96MOL   O12623116   7.867   5.216   2.129 -0.4267  0.5389  0.1333
   96MOL   C12723117   7.750   5.281   2.175 -0.0220  0.1980  0.0210
   96MOL   H12823118   7.931   4.995   2.010 -0.8547 -1.6206 -1.7109
   96MOL   H12923119   0.150   4.957   1.937 -1.3149 -0.0216 -1.8773
   96MOL   H13023120   0.173   5.214   1.888 -2.2634 -0.4156 -1.3767
   96MOL   H13123121   7.724   5.275   2.280  2.8234 -0.4964  0.7325
   96MOL   H13223122   7.666   5.240   2.118 -1.6444  1.5528  1.4002
   96MOL   H13323123   7.750   5.387   2.149  1.1087  0.4319  0.9602
   96MOL   C13423124   0.224   5.168   2.082 -0.1665 -0.1340 -0.0176
   96MOL   C13523125   0.284   5.310   2.118  0.3795 -0.2761 -0.7321
   96MOL   C13623126   0.279   5.340   2.267 -0.0010  0.0990  0.3568
   96MOL   O13723127   0.385   5.351   2.332  0.1408 -0.1965 -0.1369
   96MOL   O13823128   0.158   5.351   2.314  0.0776 -0.0785  0.7932
   96MOL   C13923129   0.143   5.353   2.458 -0.4765 -0.4516  0.3104
   96MOL   H14023130   0.191   5.111   2.169 -0.2372 -1.8531 -1.1655
   96MOL   H14123131   0.309   5.118   2.036  0.2927  0.7448 -0.1482
   96MOL   H14223132   0.212   5.381   2.077  1.5868  1.4759  0.1690
   96MOL   H14323133   0.035   5.355   2.474 -0.2859  0.2087  1.6418
   96MOL   H14423134   0.202   5.433   2.504  2.2756 -1.5159 -1.2754
   96MOL   H14523135   0.189   5.270   2.510 -0.2554  0.8369  2.2195
   96MOL   C14623136   0.429   5.326   2.064 -0.2612  0.3627 -0.2147
   96MOL   C14723137   0.438   5.348   1.918  0.1565 -0.4281 -0.6372
   96MOL   C14823138   0.393   5.493   1.883 -0.2586 -0.5958 -0.1153
   96MOL   O14923139   0.287   5.516   1.825  0.3120 -0.8425  0.2700
   96MOL   O15023140   0.477   5.587   1.934  0.3084 -0.1152  0.0868
   96MOL   C15123141   0.435   5.721   1.933 -0.2646  0.0886 -0.4924
   96MOL   H15223142   0.471   5.411   2.118 -1.6459  2.1005 -1.7688
   96MOL   H15323143   0.471   5.232   2.098  1.8419  1.5814  0.6694
   96MOL   H15423144   0.385   5.265   1.872 -0.5870  0.1956 -0.9301
   96MOL   H15523145   0.513   5.795   1.919 -1.9320  1.8710 -0.6477
   96MOL   H15623146   0.381   5.747   2.025  0.5306 -0.9602  0.2823
   96MOL   H15723147   0.379   5.747   1.843  1.4453 -0.6338 -1.7717
   96MOL   C15823148   0.582   5.326   1.873 -0.0990 -0.4697  0.2656
   96MOL   C15923149   0.612   5.288   1.718  0.8602  0.1240  0.0755
   96MOL   C16023150   0.756   5.331   1.684 -0.0558 -0.2634  0.3741
   96MOL   O16123151   0.841   5.367   1.766  0.7652  0.1769  0.1108
   96MOL   O16223152   0.768   5.331   1.554 -0.6162  0.0415 -0.1875
   96MOL   C16323153   0.891   5.374   1.492 -0.0404  0.1769 -0.2665
   96MOL   H16423154   0.635   5.419   1.896 -0.1176 -0.8360  1.8041
   96MOL   H16523155   0.640   5.259   1.936 -0.5114 -0.7643  0.3314
   96MOL   H16623156   0.546   5.351   1.659  1.7984  0.0619 -1.0552
   96MOL   H16723157   0.871   5.432   1.402 -2.7303  0.7691  0.6532
   96MOL   H16823158   0.968   5.299   1.474 -0.5445 -0.1181 -1.2422
   96MOL   H16923159   0.941   5.447   1.555  1.3820  0.8538 -2.1370
   96MOL   C17023160   0.569   5.143   1.684 -0.4487  0.0138  0.2429
   96MOL   C17123161   0.644   5.038   1.767 -0.4285  0.1103  0.3059
   96MOL   C17223162   0.566   4.979   1.881  0.6902 -0.2320 -0.7679
   96MOL   O17323163   0.581   4.992   2.001 -0.1439  0.2706 -0.3160
   96MOL   O17423164   0.466   4.901   1.830  0.2856 -0.2564 -0.3626
   96MOL   C17523165   0.389   4.813   1.913  0.2921 -0.2219  0.8344
   96MOL   H17623166   0.462   5.134   1.704 -0.8024 -0.2874 -1.7773
   96MOL   H17723167   0.598   5.124   1.581 -1.4151  0.1373 -0.0591
   96MOL   H17823168   0.728   5.090   1.813  0.1658 -0.9829  0.4867
   96MOL   H17923169   0.300   4.780   1.860  0.8613  0.9297 -0.8863
   96MOL   H18023170   0.360   4.864   2.005  0.2137 -1.0942  1.2959
   96MOL   H18123171   0.454   4.735   1.953 -0.9668 -1.6473  0.1674
   96MOL   C18223172   0.707   4.926   1.673 -0.0417  0.3097  0.5066
   96MOL   C18323173   0.856   4.952   1.623 -0.7858 -1.1458  0.1192
   96MOL   C18423174   0.945   4.922   1.743  0.7325 -0.2894 -0.2058
   96MOL   O18523175   0.992   4.808   1.761  0.1892  0.0132 -0.3925
   96MOL   O18623176   0.967   5.032   1.821 -0.2443 -0.7295  0.2340
   96MOL   C18723177   1.038   5.032   1.941  0.0952  0.4548  0.2923
   96MOL   H18823178   0.700   4.829   1.723  0.5855  0.4571  0.8774
   96MOL   H18923179   0.649   4.911   1.582 -1.5077  0.8138  1.3229
   96MOL   H19023180   0.871   5.052   1.582  0.4234 -1.7693 -0.9920
   96MOL   H19123181   1.140   5.070   1.926  0.9121 -1.7821 -0.0128
   96MOL   H19223182   1.036   4.937   1.995 -1.8575 -0.1013 -0.7364
   96MOL   H19323183   0.982   5.094   2.011 -1.1297  0.5635 -0.7880
   96MOL   C19423184   0.892   4.866   1.499 -0.9498  0.1823  0.2309
   96MOL   C19523185   0.849   4.936   1.367 -1.0735  0.0532 -0.4311
   96MOL   C19623186   0.973   4.974   1.291  0.1099  0.0179 -0.6360
   96MOL   O19723187   1.009   4.923   1.187  0.4059  0.4685  0.0828
   96MOL   O19823188   1.033   5.077   1.350  0.1860 -0.4431 -0.0360
   96MOL   C19923189   1.153   5.127   1.296  0.8077  0.0874 -0.1687
   96MOL   H20023190   1.000   4.851   1.500 -0.9034  0.5201  0.1147
   96MOL   H20123191   0.862   4.761   1.501 -2.1235  0.5223  3.1542
   96MOL   H20223192   0.781   5.020   1.384  0.6754  1.0023  2.0867
   96MOL   H20323193   1.140   5.235   1.292 -0.1258 -0.0957 -2.7246
   96MOL   H20423194   1.182   5.087   1.199  1.5147  0.2695 -0.0346
   96MOL   H20523195   1.226   5.100   1.373 -0.5882  0.1461  1.1890
   96MOL   C20623196   0.756   4.855   1.284 -0.6736 -0.3464 -0.1714
   96MOL   C20723197   0.694   4.927   1.162 -0.0613  0.7504 -0.9720
   96MOL   C20823198   0.676   4.827   1.047  0.0836 -0.6386 -0.1364
   96MOL   O20923199   0.752   4.815   0.957  0.1814 -0.1916  0.2020
   96MOL   O21023200   0.556   4.758   1.073  0.6393 -0.2174 -0.2793
   96MOL   C21123201   0.509   4.652   0.987 -0.4316 -0.6848 -0.7386
   96MOL   H21223202   0.819   4.774   1.247 -0.7261  0.4882 -2.1521
   96MOL   H21323203   0.670   4.813   1.336 -0.1092  0.8679  1.7869
   96MOL   H21423204   0.778   4.984   1.122  0.6536  0.3675 -0.0230
   96MOL   H21523205   0.528   4.677   0.882 -0.4224 -0.3220 -0.6521
   96MOL   H21623206   0.404   4.631   1.007 -0.2151 -1.7627 -0.6884
   96MOL   H21723207   0.562   4.560   1.010 -0.4354 -0.1950  1.2828
   96MOL   C21823208   0.574   5.033   1.178  0.2740 -0.2056  0.2103
   96MOL   C21923209   0.607   5.174   1.246 -1.1673 -0.1638  0.0718
   96MOL   C22023210   0.705   5.264   1.160 -0.2894  0.4260 -1.1967
   96MOL   O22123211   0.668   5.365   1.092  0.1452  0.0327 -0.3441
   96MOL   O22223212   0.842   5.233   1.182  0.2499  0.1833 -0.6107
   96MOL   C22323213   0.936   5.298   1.096  0.0533 -0.0322 -0.8876
   96MOL   H22423214   0.555   5.051   1.072  1.7662  0.3813  0.0251
   96MOL   H22523215   0.490   4.978   1.219  0.6470 -1.2797 -0.4433
   96MOL   H22623216   0.653   5.171   1.345  0.2625  2.2224 -0.4734
   96MOL   H22723217   0.940   5.396   1.142 -0.9382 -0.7682  0.8262
   96MOL   H22823218   0.888   5.318   1.000 -3.2091 -2.0281  0.2236
   96MOL   H22923219   1.028   5.241   1.086 -0.5007 -1.6489  2.5944
   96MOL   C23023220   0.479   5.263   1.263 -0.0138 -0.3904 -0.0417
   96MOL   C23123221   0.490   5.359   1.386 -0.2436 -0.2661  0.1822
   96MOL   C23223222   0.371   5.458   1.394  0.0050 -0.2597  0.5343
   96MOL   O23323223   0.365   5.564   1.330 -0.0208  0.2117  0.4819
   96MOL   O23423224   0.276   5.420   1.487  0.3658 -0.1936  0.2842
   96MOL   C23523225   0.174   5.517   1.505  0.2686  0.2386  0.3541
   96MOL   H23623226   0.450   5.306   1.167 -1.0948 -1.8726 -0.3903
   96MOL   H23723227   0.393   5.202   1.291  0.3822 -0.8626  0.1467
   96MOL   H23823228   0.585   5.412   1.379 -0.2051 -0.2919  0.4932
   96MOL   H23923229   0.213   5.611   1.545  0.8170 -0.4596  1.4839
   96MOL   H24023230   0.109   5.483   1.585  4.0998 -0.9545  3.1292
   96MOL   H24123231   0.129   5.548   1.411 -2.0406 -1.2365  0.9345
   96MOL   H24223232   0.496   5.305   1.481 -0.5394  0.9549  0.9044
   97MOL     C123233   4.634   3.760   1.962 -0.3346  0.6055 -0.2521
   97MOL     C223234   4.723   3.810   2.078 -0.1592 -0.3358 -0.7295
   97MOL     C323235   4.686   3.738   2.211  0.1155 -0.4391  0.0284
   97MOL     O423236   4.638   3.801   2.303  0.1614  0.3323  0.2591
   97MOL     O523237   4.714   3.603   2.211  0.3829 -0.0554 -0.0192
   97MOL     C623238   4.665   3.528   2.322  0.2201  0.4256 -0.1355
   97MOL     H723239   4.595   3.660   1.979  1.0501 -0.2041 -1.7027
   97MOL     H823240   4.686   3.777   1.868 -0.3981  0.1467 -0.3697
   97MOL     H923241   4.702   3.916   2.092 -0.9157 -0.6763  0.7667
   97MOL    H1023242   4.629   3.436   2.276  1.7947  0.1863 -0.9330
   97MOL    H1123243   4.588   3.580   2.379 -0.2653 -1.2867  0.7833
   97MOL    H1223244   4.739   3.497   2.395 -0.9838 -0.9152  0.5280
   97MOL    H1323245   4.546   3.825   1.956 -0.0111  0.8925 -2.2394
   97MOL    C1423246   4.875   3.799   2.045  0.1456 -0.6813 -0.1774
   97MOL    C1523247   4.973   3.878   2.132 -0.1818  0.9189 -0.3073
   97MOL    C1623248   4.992   3.812   2.267  0.1077 -0.9729  0.4573
   97MOL    O1723249   5.005   3.690   2.282 -0.3346  0.1714  0.0973
   97MOL    O1823250   5.011   3.906   2.362  0.0058  0.0034 -0.1071
   97MOL    C1923251   5.037   3.877   2.498  0.7516 -0.3028  0.6921
   97MOL    H2023252   4.905   3.694   2.051  2.2682 -0.0725  0.4633
   97MOL    H2123253   4.887   3.841   1.945 -0.8558 -2.5531 -1.1144
   97MOL    H2223254   4.933   3.978   2.153 -1.3640  0.6430 -1.1482
   97MOL    H2323255   5.084   3.968   2.535 -0.0031 -0.4048  1.9246
   97MOL    H2423256   5.098   3.791   2.522  0.7552 -0.2132  1.0018
   97MOL    H2523257   4.946   3.867   2.557  0.2845 -1.8728 -0.2779
   97MOL    C2623258   5.096   3.900   2.048 -0.7634 -0.3867  0.5937
   97MOL    C2723259   5.215   3.962   2.125 -0.1710  0.5908  0.2887
   97MOL    C2823260   5.346   3.954   2.038  0.0183 -0.3621  0.2666
   97MOL    O2923261   5.440   3.898   2.093 -0.3839 -0.1702 -0.0049
   97MOL    O3023262   5.342   4.014   1.915  0.2748  0.6715 -0.4047
   97MOL    C3123263   5.470   4.051   1.860 -0.5355  0.0624 -0.1142
   97MOL    H3223264   5.131   3.803   2.014  0.9238 -0.3892  2.2088
   97MOL    H3323265   5.073   3.970   1.968  1.5482  0.7608  0.8677
   97MOL    H3423266   5.242   3.899   2.210  0.9752  0.3974 -0.1942
   97MOL    H3523267   5.524   3.959   1.840 -0.0402 -0.0327  1.5173
   97MOL    H3623268   5.525   4.105   1.938 -1.8638 -0.6819  1.3475
   97MOL    H3723269   5.460   4.117   1.774 -1.8803 -0.0088 -0.0158
   97MOL    C3823270   5.192   4.102   2.186  0.1641  0.0269  0.1806
   97MOL    C3923271   5.313   4.152   2.277 -0.3268  0.1852  0.0924
   97MOL    C4023272   5.425   4.220   2.195  0.4674  0.1944  0.6421
   97MOL    O4123273   5.544   4.201   2.219  0.0207  0.3855  0.4839
   97MOL    O4223274   5.377   4.319   2.122 -0.3341 -0.0476 -0.0072
   97MOL    C4323275   5.450   4.416   2.058 -0.2598  0.0103 -0.0126
   97MOL    H4423276   5.178   4.176   2.107  2.3882 -1.9766 -2.1862
   97MOL    H4523277   5.107   4.090   2.253 -0.1015 -1.5862 -0.4150
   97MOL    H4623278   5.361   4.066   2.324  0.1738 -0.9068 -2.3700
   97MOL    H4723279   5.467   4.494   2.132 -0.6044  0.3368 -0.2703
   97MOL    H4823280   5.401   4.452   1.968 -0.5605  1.1383  0.5990
   97MOL    H4923281   5.545   4.367   2.038 -0.1566  0.7561 -1.4300
   97MOL    C5023282   5.272   4.261   2.387 -0.5108 -0.3503 -0.3261
   97MOL    C5123283   5.293   4.212   2.531  0.7343 -0.1693 -0.5709
   97MOL    C5223284   5.443   4.181   2.551 -0.4731 -0.9517 -0.1784
   97MOL    O5323285   5.483   4.070   2.583 -0.7496 -0.9096 -0.1327
   97MOL    O5423286   5.524   4.284   2.517 -0.3330  0.1631  0.1709
   97MOL    C5523287   5.661   4.274   2.509  0.1227  0.0047  0.7189
   97MOL    H5623288   5.324   4.356   2.384  0.8476 -0.9901  2.0426
   97MOL    H5723289   5.169   4.287   2.363 -0.7972  0.8828  2.1178
   97MOL    H5823290   5.242   4.115   2.534  0.2101  0.1118 -0.4423
   97MOL    H5923291   5.695   4.170   2.503  2.9772  0.8630  1.2464
   97MOL    H6023292   5.708   4.335   2.585 -0.1718  2.4380 -0.9906
   97MOL    H6123293   5.708   4.304   2.415 -1.1060  1.2932  0.5010
   97MOL    C6223294   5.218   4.298   2.632  0.2143 -0.1593 -0.1477
   97MOL    C6323295   5.211   4.259   2.781 -0.3852 -0.5956  0.0903
   97MOL    C6423296   5.148   4.126   2.817  0.2632  0.4951  0.7001
   97MOL    O6523297   5.219   4.024   2.826 -0.1042  0.2666 -0.4101
   97MOL    O6623298   5.007   4.139   2.824 -0.1988  0.4402  0.3840
   97MOL    C6723299   4.931   4.030   2.856 -0.0070  0.4370 -0.1288
   97MOL    H6823300   5.243   4.403   2.613 -1.1740 -0.0215 -1.3201
   97MOL    H6923301   5.115   4.300   2.598  0.9565  2.5148 -2.4532
   97MOL    H7023302   5.145   4.332   2.829  1.1643  1.2017 -0.4316
   97MOL    H7123303   4.827   4.062   2.864 -0.0490  0.4651 -0.7807
   97MOL    H7223304   4.955   3.989   2.954 -0.6056  0.9001  0.2182
   97MOL    H7323305   4.936   3.952   2.780  1.6675  1.1142 -0.7562
   97MOL    C7423306   5.351   4.283   2.841 -0.8503 -0.5873  0.2490
   97MOL    C7523307   5.363   4.288   2.988 -0.0160  0.4645  0.1966
   97MOL    C7623308   5.509   4.284   3.036  0.3623  0.4966  0.0476
   97MOL    O7723309   5.560   4.191   3.103  0.2861 -0.3857  0.2759
   97MOL    O7823310   5.571   4.402   3.004 -0.0471 -0.3699 -0.5323
   97MOL    C7923311   5.719   4.422   3.026  0.9266 -0.4460  0.2451
   97MOL    H8023312   5.405   4.191   2.819  0.4439 -0.4544  2.7524
   97MOL    H8123313   5.406   4.363   2.790 -1.5428 -1.1083 -1.3739
   97MOL    H8223314   5.331   4.193   3.032 -0.7094 -0.0500 -1.3358
   97MOL    H8323315   5.743   4.452   3.128  0.8489 -0.7249  0.3458
   97MOL    H8423316   5.750   4.498   2.955  1.1851 -0.6992  0.0877
   97MOL    H8523317   5.778   4.333   3.006  1.0611 -0.3346  0.1471
   97MOL    C8623318   5.291   4.416   3.037 -0.3838 -0.0818 -0.1945
   97MOL    C8723319   5.151   4.402   3.096 -0.7142 -0.2629  0.0918
   97MOL    C8823320   5.128   4.277   3.173 -0.4979 -0.2452 -0.3168
   97MOL    O8923321   5.056   4.189   3.130  0.8262  0.0564 -0.4510
   97MOL    O9023322   5.203   4.265   3.284 -0.4231  0.7287 -0.3621
   97MOL    C9123323   5.201   4.141   3.361 -0.2899  0.0970 -1.1850
   97MOL    H9223324   5.349   4.457   3.120  0.0562 -1.8419  0.3878
   97MOL    H9323325   5.285   4.489   2.957 -0.0370  0.5755  0.3785
   97MOL    H9423326   5.076   4.389   3.018 -0.7183 -0.1429  0.0767
   97MOL    H9523327   5.100   4.100   3.364 -0.8674  1.6107  1.8473
   97MOL    H9623328   5.212   4.170   3.466  2.2144  2.0113 -1.9495
   97MOL    H9723329   5.283   4.073   3.340 -1.1713 -1.4758  0.2920
   97MOL    C9823330   5.099   4.515   3.184  0.2736 -0.2618 -0.2027
   97MOL    C9923331   5.078   4.650   3.110  0.1906 -0.6584  0.5086
   97MOL   C10023332   4.976   4.640   2.998 -0.3609 -0.7225 -0.1742
   97MOL   O10123333   4.991   4.692   2.890  0.0925  0.6850  0.1334
   97MOL   O10223334   4.882   4.555   3.027  0.7705 -0.3126 -0.0138
   97MOL   C10323335   4.801   4.505   2.913 -0.2002  0.0850  0.2547
   97MOL   H10423336   5.015   4.491   3.249  0.9485 -1.5200  0.2269
   97MOL   H10523337   5.180   4.529   3.256  0.7189 -1.7456 -0.4049
   97MOL   H10623338   5.171   4.686   3.067 -1.5402  2.0640 -1.1726
   97MOL   H10723339   4.746   4.581   2.859 -1.0457 -0.6316  0.1091
   97MOL   H10823340   4.728   4.428   2.938  0.4926 -0.2744  1.2451
   97MOL   H10923341   4.865   4.463   2.836  0.1197  0.6514  0.2064
   97MOL   C11023342   5.038   4.764   3.202 -0.2560 -0.0893 -0.0924
   97MOL   C11123343   5.009   4.903   3.146  0.7222 -0.3407  0.1367
   97MOL   C11223344   4.856   4.943   3.122 -0.6914  0.5556  0.1714
   97MOL   O11323345   4.786   4.984   3.216 -0.0362  0.2415  0.3689
   97MOL   O11423346   4.806   4.919   2.998  0.4552 -0.3583 -0.0913
   97MOL   C11523347   4.680   4.966   2.958  0.2099 -0.1793 -0.5957
   97MOL   H11623348   4.943   4.727   3.241 -0.8753  2.8427  1.3062
   97MOL   H11723349   5.105   4.777   3.286 -2.1202  1.0642  1.2675
   97MOL   H11823350   5.032   4.918   3.041 -0.3452 -1.8367 -0.3111
   97MOL   H11923351   4.659   5.073   2.964 -2.4223 -0.7371  1.8637
   97MOL   H12023352   4.598   4.920   3.014  0.6122  1.4426  1.3670
   97MOL   H12123353   4.668   4.937   2.854 -0.6772 -1.2305 -0.2188
   97MOL   C12223354   5.091   5.003   3.231 -0.1279 -0.2270  0.1801
   97MOL   C12323355   5.120   5.135   3.155 -0.1097 -0.0687 -0.2582
   97MOL   C12423356   5.141   5.258   3.248  0.5281 -1.3409 -0.3446
   97MOL   O12523357   5.249   5.317   3.264  0.0421 -0.1243  0.2265
   97MOL   O12623358   5.029   5.298   3.315  0.1353  0.3141  0.8622
   97MOL   C12723359   5.034   5.415   3.394 -0.0247 -0.6331 -0.4108
   97MOL   H12823360   5.026   5.024   3.316 -0.8177 -1.4633 -0.0174
   97MOL   H12923361   5.180   4.959   3.276 -0.0169 -0.9398 -0.7078
   97MOL   H13023362   5.032   5.174   3.104 -1.1811  0.3613  1.8716
   97MOL   H13123363   5.089   5.388   3.485  1.2552 -1.9573 -1.5463
   97MOL   H13223364   4.936   5.439   3.435 -0.0153  0.4243 -1.0040
   97MOL   H13323365   5.080   5.505   3.353 -1.3267  0.4168  0.3748
   97MOL   C13423366   5.233   5.118   3.048 -0.5082  0.0780 -0.1862
   97MOL   C13523367   5.200   5.176   2.913 -0.4847 -0.2269  0.0594
   97MOL   C13623368   5.248   5.316   2.903 -0.3586  0.2561  0.0666
   97MOL   O13723369   5.173   5.409   2.898 -0.3640 -0.2516 -0.3250
   97MOL   O13823370   5.389   5.330   2.883 -0.2265 -0.4515  0.3570
   97MOL   C13923371   5.454   5.459   2.885 -0.4680 -0.0706 -0.1384
   97MOL   H14023372   5.318   5.170   3.094  1.2147 -2.3469 -0.5420
   97MOL   H14123373   5.271   5.017   3.036  0.8429  0.7342 -1.7427
   97MOL   H14223374   5.091   5.180   2.904 -0.4743  0.3149  0.1523
   97MOL   H14323375   5.550   5.454   2.936 -0.6678 -1.6695  0.1200
   97MOL   H14423376   5.402   5.528   2.950 -0.5961 -0.2655 -0.0314
   97MOL   H14523377   5.468   5.502   2.786  0.8033  0.1407  0.1300
   97MOL   C14623378   5.267   5.093   2.799  0.7017 -0.4919  0.2038
   97MOL   C14723379   5.221   5.128   2.648 -0.3431  0.0471  0.0023
   97MOL   C14823380   5.334   5.101   2.545  0.2436 -0.2796  0.1007
   97MOL   O14923381   5.321   5.034   2.449  0.6272  0.8778  0.2176
   97MOL   O15023382   5.451   5.172   2.580 -0.2864  0.1810 -0.2473
   97MOL   C15123383   5.575   5.141   2.514 -0.1337  0.3252  0.4753
   97MOL   H15223384   5.374   5.113   2.798  0.4709  0.8060 -1.8434
   97MOL   H15323385   5.255   4.986   2.816 -3.8411 -0.0724  0.3161
   97MOL   H15423386   5.189   5.231   2.637  2.0747  0.8766  0.3858
   97MOL   H15523387   5.593   5.040   2.551 -0.5174  0.3140  0.6302
   97MOL   H15623388   5.652   5.213   2.543  0.4488  0.6323 -1.7306
   97MOL   H15723389   5.548   5.154   2.409  0.6646 -0.6444  0.1369
   97MOL   C15823390   5.101   5.046   2.603  0.1981  0.2451  0.7366
   97MOL   C15923391   4.965   5.059   2.675  0.0009 -0.3265  0.5118
   97MOL   C16023392   4.913   5.200   2.644  0.6043  0.0451 -0.0477
   97MOL   O16123393   4.880   5.233   2.528 -0.1427 -0.6986  0.0102
   97MOL   O16223394   4.891   5.266   2.758 -0.0060  0.7411  0.2691
   97MOL   C16323395   4.850   5.401   2.748  0.4106 -0.0910 -0.3906
   97MOL   H16423396   5.084   5.082   2.501 -0.1595 -0.1810  0.6442
   97MOL   H16523397   5.130   4.941   2.599 -1.1604 -0.1359  0.6438
   97MOL   H16623398   4.986   5.060   2.782  0.0679 -0.8285  0.5041
   97MOL   H16723399   4.852   5.467   2.835  0.6991 -1.3775  0.5939
   97MOL   H16823400   4.754   5.395   2.698  0.6206 -0.5883 -0.7304
   97MOL   H16923401   4.909   5.459   2.677  0.5870  0.7684  0.4393
   97MOL   C17023402   4.857   4.953   2.641  0.5679  0.2684 -0.0635
   97MOL   C17123403   4.881   4.873   2.508  0.2570 -0.1100  0.4988
   97MOL   C17223404   4.810   4.739   2.516 -0.3591  0.8218  0.0939
   97MOL   O17323405   4.873   4.643   2.525 -0.7110  0.4846  0.1197
   97MOL   O17423406   4.680   4.742   2.509  0.1640  0.5880  0.4695
   97MOL   C17523407   4.599   4.628   2.546  0.1897 -0.0095  0.2075
   97MOL   H17623408   4.846   4.891   2.729 -1.4501 -1.0023 -1.1949
   97MOL   H17723409   4.755   4.991   2.638  0.9699  1.2891 -1.4764
   97MOL   H17823410   4.984   4.839   2.503 -0.1009 -1.2037  0.3626
   97MOL   H17923411   4.588   4.551   2.470 -0.9764 -1.1700  1.5348
   97MOL   H18023412   4.498   4.658   2.571 -0.1228  0.2359 -1.2650
   97MOL   H18123413   4.649   4.588   2.634 -0.9079  0.7337  1.1801
   97MOL   C18223414   4.852   4.942   2.370  0.2239  0.0405 -0.1705
   97MOL   C18323415   4.881   4.865   2.243  0.3447  0.2697  0.2687
   97MOL   C18423416   4.829   4.934   2.119  0.4467 -0.1473 -0.3469
   97MOL   O18523417   4.904   4.992   2.040 -0.7328  1.5491 -0.2659
   97MOL   O18623418   4.696   4.928   2.114  0.0776 -0.1301  0.5284
   97MOL   C18723419   4.634   4.985   2.005 -0.3561 -0.6651 -0.1899
   97MOL   H18823420   4.746   4.966   2.372  0.3274  0.4354  0.7196
   97MOL   H18923421   4.905   5.038   2.366  0.3118  0.0358  0.7108
   97MOL   H19023422   4.826   4.771   2.252 -0.2282  0.5528 -0.2486
   97MOL   H19123423   4.691   5.074   1.975 -1.8168  0.1413 -0.6202
   97MOL   H19223424   4.535   5.024   2.028  0.7062  2.2330 -0.3032
   97MOL   H19323425   4.637   4.911   1.925 -2.1739 -1.1780  0.1974
   97MOL   C19423426   5.027   4.817   2.236  0.0459  0.5794 -0.3596
   97MOL   C19523427   5.080   4.707   2.141 -0.0638  0.5459 -0.1532
   97MOL   C19623428   5.225   4.736   2.105 -0.4324 -0.2155 -0.2641
   97MOL   O19723429   5.273   4.738   1.991  0.1965  0.2699 -0.0453
   97MOL   O19823430   5.296   4.762   2.216  0.2127  0.3379  0.3570
   97MOL   C19923431   5.427   4.800   2.200  0.3157  0.2669  0.3754
   97MOL   H20023432   5.096   4.900   2.249  1.8852 -1.1840  1.5868
   97MOL   H20123433   5.056   4.776   2.333 -0.8382  2.2084  0.6086
   97MOL   H20223434   5.029   4.723   2.046 -0.8462  0.2596  0.2102
   97MOL   H20323435   5.465   4.865   2.279  0.1958  2.7858 -1.5491
   97MOL   H20423436   5.437   4.870   2.116  1.7405  0.2083  0.4779
   97MOL   H20523437   5.494   4.716   2.179 -0.0585  0.3568 -1.2328
   97MOL   C20623438   5.048   4.563   2.196 -0.0948  0.3056 -0.6686
   97MOL   C20723439   4.904   4.513   2.162 -0.0605  0.6429  0.6891
   97MOL   C20823440   4.877   4.519   2.009 -0.6903  0.1298 -0.4590
   97MOL   O20923441   4.948   4.456   1.930  0.2583  0.0249  0.8084
   97MOL   O21023442   4.770   4.598   1.980  0.5177 -0.2956 -0.4783
   97MOL   C21123443   4.719   4.615   1.849  0.6297  0.0344 -0.1979
   97MOL   H21223444   5.116   4.499   2.139 -1.3942 -0.2411 -1.6187
   97MOL   H21323445   5.073   4.547   2.301 -0.9337  0.3847 -0.4530
   97MOL   H21423446   4.825   4.563   2.217  0.4014  1.1281  0.9178
   97MOL   H21523447   4.685   4.519   1.809  1.3955 -0.0584 -0.6415
   97MOL   H21623448   4.798   4.653   1.785 -0.1599 -0.8108 -1.7075
   97MOL   H21723449   4.639   4.689   1.850  0.3721 -0.1818 -2.2296
   97MOL   C21823450   4.899   4.364   2.212  0.0677 -0.3170  0.3518
   97MOL   C21923451   4.765   4.303   2.243  0.1516  0.9425 -0.0367
   97MOL   C22023452   4.694   4.267   2.112 -0.0761 -0.3257 -0.3374
   97MOL   O22123453   4.592   4.323   2.077  0.4720 -0.0746  0.3084
   97MOL   O22223454   4.751   4.173   2.041 -0.2676  0.8179 -0.0331
   97MOL   C22323455   4.697   4.139   1.912 -0.4012 -0.2801 -0.6351
   97MOL   H22423456   4.940   4.302   2.131  0.5683  0.5581 -0.0725
   97MOL   H22523457   4.964   4.357   2.299  2.9014  1.9232 -1.4852
   97MOL   H22623458   4.707   4.380   2.294 -0.1275  1.8122 -1.6343
   97MOL   H22723459   4.710   4.217   1.837  0.9931 -1.6859 -1.8844
   97MOL   H22823460   4.598   4.095   1.922 -1.0928  1.1394 -1.1354
   97MOL   H22923461   4.750   4.056   1.866 -1.3761 -0.1609 -2.0187
   97MOL   C23023462   4.780   4.178   2.327 -0.4473 -1.0718  0.3511
   97MOL   C23123463   4.805   4.179   2.480 -0.0576 -0.2659  0.6341
   97MOL   C23223464   4.705   4.252   2.565 -0.2858 -0.2717 -0.5292
   97MOL   O23323465   4.744   4.295   2.675  0.3678 -0.1282  0.0456
   97MOL   O23423466   4.578   4.252   2.508  0.2099 -0.2877 -0.3717
   97MOL   C23523467   4.464   4.296   2.584  0.4843 -0.2133 -0.9449
   97MOL   H23623468   4.691   4.118   2.309  0.0876 -1.8175  0.1670
   97MOL   H23723469   4.864   4.123   2.286  1.1380  0.8794  0.8796
   97MOL   H23823470   4.894   4.238   2.500 -0.9763  1.9826 -1.6924
   97MOL   H23923471   4.489   4.376   2.654 -0.6872  0.0642 -0.8468
   97MOL   H24023472   4.431   4.209   2.642  0.2723  2.3867  3.0501
   97MOL   H24123473   4.387   4.340   2.522 -1.8485 -2.1315  0.5282
   97MOL   H24223474   4.820   4.076   2.511  2.3190 -0.0478  0.3067
   98MOL     C123475   1.871   0.764   7.207  0.0768 -0.8483 -0.4102
   98MOL     C223476   1.774   0.702   7.319  0.2110 -0.6427  0.3760
   98MOL     C323477   1.758   0.800   7.439  0.2837 -0.2852  0.8757
   98MOL     O423478   1.787   0.772   7.552 -0.1182 -0.1082  0.0758
   98MOL     O523479   1.696   0.918   7.404  0.3308  0.2630  0.4913
   98MOL     C623480   1.658   0.997   7.518  0.0881  0.2253  0.5065
   98MOL     H723481   1.830   0.742   7.108 -0.9859 -0.5147 -0.0600
   98MOL     H823482   1.976   0.735   7.204  0.3593  0.2205 -1.1490
   98MOL     H923483   1.827   0.618   7.364 -1.1534 -1.7073  0.0137
   98MOL    H1023484   1.747   1.017   7.577 -0.4825 -1.1388  1.8715
   98MOL    H1123485   1.571   0.951   7.565 -0.3901  0.5904 -0.0119
   98MOL    H1223486   1.613   1.073   7.454  0.4903 -0.3216 -0.4451
   98MOL    H1323487   1.882   0.872   7.212 -5.0713 -0.0085 -3.0050
   98MOL    C1423488   1.647   0.645   7.257  0.6119  0.3426  0.3833
   98MOL    C1523489   1.557   0.565   7.351 -0.5186 -1.1490  0.2686
   98MOL    C1623490   1.422   0.546   7.296 -0.4203 -0.0464  0.1615
   98MOL    O1723491   1.319   0.583   7.359 -0.5685  0.0602  0.4238
   98MOL    O1823492   1.425   0.491   7.168  0.1267 -0.0092  0.4834
   98MOL    C1923493   1.301   0.462   7.111  0.4010  0.1955 -0.5984
   98MOL    H2023494   1.583   0.730   7.234 -1.1266 -1.2860 -1.0503
   98MOL    H2123495   1.669   0.587   7.167 -1.1784  1.8101 -1.0364
   98MOL    H2223496   1.548   0.624   7.442  1.1385  2.0757 -1.5520
   98MOL    H2323497   1.250   0.399   7.184  2.0870 -2.1207 -1.3565
   98MOL    H2423498   1.311   0.404   7.019 -0.0116 -0.0771 -0.4725
   98MOL    H2523499   1.238   0.550   7.101  0.6242  0.5193  0.7838
   98MOL    C2623500   1.614   0.426   7.379 -0.4005 -0.2996 -0.5243
   98MOL    C2723501   1.564   0.339   7.502 -0.8136 -0.3627  0.7956
   98MOL    C2823502   1.473   0.231   7.438 -0.0703 -0.5518 -0.2140
   98MOL    O2923503   1.529   0.122   7.416  0.0762  0.4839 -0.5675
   98MOL    O3023504   1.349   0.274   7.415  0.7953 -0.4365 -0.4333
   98MOL    C3123505   1.260   0.187   7.343  0.2142 -0.3594  1.1046
   98MOL    H3223506   1.617   0.358   7.294 -3.1116  0.3403 -1.1779
   98MOL    H3323507   1.719   0.444   7.404  0.2433 -1.6290 -2.1045
   98MOL    H3423508   1.493   0.393   7.564  0.1789 -0.5835  2.1556
   98MOL    H3523509   1.318   0.144   7.262 -0.1472  1.8871 -0.3909
   98MOL    H3623510   1.169   0.234   7.306  1.3596  1.6384  0.7466
   98MOL    H3723511   1.221   0.121   7.420  1.0802  1.1807  2.9251
   98MOL    C3823512   1.679   0.296   7.583 -0.4288  0.1984  0.0277
   98MOL    C3923513   1.648   0.211   7.712 -0.6119  0.1224 -1.2322
   98MOL    C4023514   1.781   0.144   7.770  0.0267  0.4181 -0.0329
   98MOL    O4123515   1.786   0.029   7.806 -0.0793 -0.1561  0.1801
   98MOL    O4223516   1.880   0.230   7.780 -0.2518 -0.0424 -0.5093
   98MOL    C4323517   2.002   0.193   7.836  0.0180  0.1041 -0.7909
   98MOL    H4423518   1.743   0.229   7.527 -3.3924 -0.2221 -2.9885
   98MOL    H4523519   1.736   0.381   7.621 -0.9120 -0.7859  3.1580
   98MOL    H4623520   1.586   0.123   7.693  0.1016 -0.3836 -1.2309
   98MOL    H4723521   1.987   0.177   0.010 -0.4732  0.4883 -0.7989
   98MOL    H4823522   2.075   0.271   7.816  0.2534 -0.0596 -0.5736
   98MOL    H4923523   2.034   0.098   7.793  1.4572 -0.9408  2.4224
   98MOL    C5023524   1.596   0.296   7.824  0.3833 -0.0779 -0.7992
   98MOL    C5123525   1.572   0.220   0.026  0.3501 -0.0523 -0.6447
   98MOL    C5223526   1.677   0.270   0.131  0.1130  0.2306 -0.2155
   98MOL    O5323527   1.757   0.198   0.189  0.1297  0.2932  0.1966
   98MOL    O5423528   1.644   0.394   0.168 -0.8095  0.4216 -0.3257
   98MOL    C5523529   1.742   0.454   0.259  0.3608  0.1168 -0.1758
   98MOL    H5623530   1.656   0.386   7.841  0.4255 -0.3728  0.6608
   98MOL    H5723531   1.504   0.345   7.792 -1.0587 -2.5126 -0.5167
   98MOL    H5823532   1.598   0.114   0.022  0.4092 -0.1037  0.6269
   98MOL    H5923533   1.723   0.435   0.364  2.5053  0.1535  0.2465
   98MOL    H6023534   1.741   0.563   0.252 -2.6733  0.1325  0.0630
   98MOL    H6123535   1.845   0.420   0.251 -0.4807 -2.0051 -2.6680
   98MOL    C6223536   1.432   0.240   0.085 -0.2452  0.5367 -0.1972
   98MOL    C6323537   1.314   0.159   0.026  0.6186 -0.0721  0.1203
   98MOL    C6423538   1.283   0.204   7.814 -0.3182 -0.8623 -0.0775
   98MOL    O6523539   1.312   0.137   7.718  0.3035  0.8250  0.6518
   98MOL    O6623540   1.205   0.314   7.804  0.1423 -0.0578  0.0987
   98MOL    C6723541   1.162   0.353   7.673 -0.9658  0.5535  0.0508
   98MOL    H6823542   1.435   0.216   0.191  0.9643 -0.2886 -0.4095
   98MOL    H6923543   1.411   0.346   0.074 -0.6272  0.6281  1.3305
   98MOL    H7023544   1.226   0.196   0.078  1.0458  1.0696  0.0501
   98MOL    H7123545   1.234   0.404   7.610  0.4766 -0.2692  0.9885
   98MOL    H7223546   1.077   0.420   7.676  0.1831  2.0412 -0.4378
   98MOL    H7323547   1.126   0.268   7.615  0.7087 -1.0485  1.2755
   98MOL    C7423548   1.341   0.005   0.031  0.2821  0.8441 -0.3299
   98MOL    C7523549   1.361   7.882   0.171  0.2452 -0.4269  0.3140
   98MOL    C7623550   1.234   7.902   0.260 -0.2762 -0.4115  0.4919
   98MOL    O7723551   1.213   0.072   0.320 -0.0115 -0.1964  0.7566
   98MOL    O7823552   1.146   7.806   0.250  0.2906  0.0803  0.8518
   98MOL    C7923553   1.017   7.813   0.317 -0.1862 -0.1154 -0.1138
   98MOL    H8023554   1.265   7.874   7.919  1.2951 -1.2107  0.8340
   98MOL    H8123555   1.431   7.922   7.904  0.2391 -1.5701  0.2007
   98MOL    H8223556   1.450   7.931   0.212  1.0566 -1.2888 -0.4100
   98MOL    H8323557   0.943   7.755   0.262 -1.4688 -0.6004  2.0747
   98MOL    H8423558   0.988   7.917   0.332  0.1439  0.0143 -0.3706
   98MOL    H8523559   1.033   7.773   0.417  1.5733 -1.9798 -1.1005
   98MOL    C8623560   1.409   7.737   0.177  0.4235  0.4085 -0.0331
   98MOL    C8723561   1.446   7.687   0.320 -0.5377 -0.1733  0.1325
   98MOL    C8823562   1.390   7.546   0.338  0.5582  0.1352 -0.0008
   98MOL    O8923563   1.302   7.519   0.422 -0.5399 -0.4989  0.1652
   98MOL    O9023564   1.455   7.454   0.273 -0.0317  0.5124  0.2800
   98MOL    C9123565   1.429   7.317   0.275 -0.1264 -0.1711 -0.2006
   98MOL    H9223566   1.336   7.663   0.144  0.2077  1.5303 -2.1312
   98MOL    H9323567   1.497   7.709   0.119  0.2052  0.3104 -0.3167
   98MOL    H9423568   1.397   7.754   0.391 -1.3825  0.1166 -0.7126
   98MOL    H9523569   1.332   7.285   0.315 -0.6953  0.1438 -1.3192
   98MOL    H9623570   1.507   7.265   0.331  0.6499 -0.6879 -1.7424
   98MOL    H9723571   1.430   7.282   0.172  0.5448 -0.8119  0.0129
   98MOL    C9823572   1.597   7.708   0.351  0.4260  0.3049 -0.3599
   98MOL    C9923573   1.628   7.687   0.505 -0.1931  0.0609 -0.0843
   98MOL   C10023574   1.738   7.582   0.519  0.2827  0.2604  0.1834
   98MOL   O10123575   1.839   7.598   0.586  0.7589  0.2604  0.0658
   98MOL   O10223576   1.706   7.473   0.459  0.2028  0.0841 -0.5198
   98MOL   C10323577   1.791   7.360   0.451 -0.4025 -0.0999 -0.3133
   98MOL   H10423578   1.663   7.640   0.296 -0.5094 -1.7948  1.0655
   98MOL   H10523579   1.624   7.807   0.316  0.0033  0.4933 -0.1577
   98MOL   H10623580   1.534   7.650   0.547 -0.4494 -0.1298 -0.8044
   98MOL   H10723581   1.829   7.326   0.548  0.3204 -0.4853 -0.7250
   98MOL   H10823582   1.877   7.384   0.389  1.0931  0.1317  1.7880
   98MOL   H10923583   1.737   7.278   0.404  0.1511 -0.6152 -0.0488
   98MOL   C11023584   1.664   7.815   0.591  0.1131  0.3163  0.8767
   98MOL   C11123585   1.560   7.932   0.597 -0.0832 -0.1205 -0.6317
   98MOL   C11223586   1.448   7.879   0.686 -1.0099 -0.4027 -0.1806
   98MOL   O11323587   1.337   7.853   0.646 -0.4656  0.1666 -0.7762
   98MOL   O11423588   1.488   7.866   0.809 -0.1249 -0.0590 -0.0642
   98MOL   C11523589   1.402   7.834   0.919  0.1528  0.6517  0.6541
   98MOL   H11623590   1.689   7.782   0.692 -1.4453 -2.8800  0.2876
   98MOL   H11723591   1.753   7.852   0.542  0.4118  1.0368  1.9560
   98MOL   H11823592   1.505   0.009   0.503 -0.4239 -0.3781 -0.4623
   98MOL   H11923593   1.449   7.759   0.982 -1.1774  0.1864  1.0987
   98MOL   H12023594   1.304   7.794   0.894  0.2257  0.7777  0.1681
   98MOL   H12123595   1.388   0.001   0.960  1.7574  0.6116  1.3313
   98MOL   C12223596   1.609   0.137   0.652  0.1388  0.2292 -0.5872
   98MOL   C12323597   1.505   0.248   0.653 -0.0164  0.5073 -0.5295
   98MOL   C12423598   1.571   0.369   0.729  0.4912 -0.6468  0.4856
   98MOL   O12523599   1.529   0.406   0.841  0.2041 -0.4894 -0.0229
   98MOL   O12623600   1.690   0.409   0.671 -0.5795 -0.3549 -0.1271
   98MOL   C12723601   1.757   0.519   0.735 -0.0830  0.6752 -0.1661
   98MOL   H12823602   1.660   0.127   0.748 -0.3015  1.8623 -0.1684
   98MOL   H12923603   1.685   0.153   0.575  0.0338 -1.2261 -1.0224
   98MOL   H13023604   1.423   0.225   0.722  0.9420  2.3512  1.2828
   98MOL   H13123605   1.683   0.592   0.768 -1.1889  0.7153 -2.5889
   98MOL   H13223606   1.820   0.556   0.655  1.1324 -1.2826 -0.1463
   98MOL   H13323607   1.816   0.478   0.816  0.1811  0.8109 -0.2910
   98MOL   C13423608   1.455   0.281   0.500 -0.0366  0.2201  0.5930
   98MOL   C13523609   1.341   0.385   0.489 -0.2562 -0.3852  0.1640
   98MOL   C13623610   1.214   0.357   0.570 -0.1318 -0.2744  0.2168
   98MOL   O13723611   1.202   0.263   0.641  0.4672  0.4150 -0.0414
   98MOL   O13823612   1.125   0.458   0.546  0.1434 -0.4245 -0.2653
   98MOL   C13923613   0.999   0.443   0.616 -0.0109 -1.3715 -0.5686
   98MOL   H14023614   1.541   0.297   0.435 -0.7770 -0.4199 -0.5610
   98MOL   H14123615   1.406   0.190   0.465  1.4698  0.1443 -1.3590
   98MOL   H14223616   1.305   0.378   0.387 -1.9917  1.0330  0.6612
   98MOL   H14323617   1.021   0.492   0.711 -2.6317 -0.1698 -0.5477
   98MOL   H14423618   0.961   0.342   0.637  1.7718 -2.2453 -1.4295
   98MOL   H14523619   0.921   0.505   0.572 -0.6829 -1.4252  0.5303
   98MOL   C14623620   1.396   0.532   0.516 -0.0995  0.3332  0.6095
   98MOL   C14723621   1.346   0.632   0.411 -0.0945  0.4471 -0.1706
   98MOL   C14823622   1.367   0.773   0.463 -0.0455  0.0198  0.3369
   98MOL   O14923623   1.473   0.830   0.450  0.4433 -0.2619  0.6942
   98MOL   O15023624   1.252   0.823   0.511 -0.1507 -0.1769  0.0836
   98MOL   C15123625   1.253   0.953   0.552 -0.0924  0.6271  0.1315
   98MOL   H15223626   1.353   0.563   0.611  0.2568  3.9009 -0.3285
   98MOL   H15323627   1.504   0.545   0.511  0.0350 -1.0703 -0.7832
   98MOL   H15423628   1.239   0.619   0.401  0.1847 -3.6766  1.1240
   98MOL   H15523629   1.326   0.968   0.632 -0.9534  0.0868  1.0334
   98MOL   H15623630   1.156   0.977   0.595 -0.1630 -1.8101  1.4124
   98MOL   H15723631   1.269   1.018   0.466 -1.4419  0.6437 -0.1203
   98MOL   C15823632   1.408   0.619   0.268  0.1971  0.2220  0.3300
   98MOL   C15923633   1.355   0.717   0.162 -0.1272 -0.5020  0.3533
   98MOL   C16023634   1.464   0.728   0.051 -0.2511  0.3623  0.9350
   98MOL   O16123635   1.568   0.792   0.074 -0.6391  0.3856 -0.2622
   98MOL   O16223636   1.431   0.668   7.868  0.0047 -0.4029  0.3973
   98MOL   C16323637   1.525   0.684   7.768 -0.3118 -0.3130 -0.0004
   98MOL   H16423638   1.515   0.640   0.274 -0.0115  1.1149  0.9207
   98MOL   H16523639   1.409   0.516   0.232 -1.1975  0.5434 -0.6639
   98MOL   H16623640   1.350   0.816   0.209  0.7322 -0.6238  0.7094
   98MOL   H16723641   1.522   0.782   7.720  1.3381 -0.7007 -0.9146
   98MOL   H16823642   1.495   0.602   7.702  2.7013 -1.5830  0.1496
   98MOL   H16923643   1.624   0.644   7.789 -0.7049 -2.8588 -2.6521
   98MOL   C17023644   1.214   0.689   0.097  0.3586 -0.4296 -0.8185
   98MOL   C17123645   1.161   0.798   7.922 -0.1851 -0.4361 -0.8068
   98MOL   C17223646   1.061   0.735   7.822  0.1535  0.2684 -0.0549
   98MOL   O17323647   0.949   0.694   7.854  0.1916 -0.2030 -0.2469
   98MOL   O17423648   1.106   0.739   7.696 -1.1522 -0.0534 -0.1437
   98MOL   C17523649   1.029   0.696   7.589 -0.3496  0.0599 -0.1661
   98MOL   H17623650   1.202   0.592   0.050 -1.2846  0.5741 -2.5338
   98MOL   H17723651   1.137   0.682   0.173 -0.9371  0.4780 -2.0140
   98MOL   H17823652   1.241   0.831   7.855  1.0529 -1.8369 -0.0671
   98MOL   H17923653   1.073   0.709   7.490  1.1334  1.3194  0.6577
   98MOL   H18023654   0.945   0.765   7.602 -1.4469 -1.1545 -0.6369
   98MOL   H18123655   0.993   0.595   7.606  1.7480 -1.2529 -3.0651
   98MOL   C18223656   1.113   0.917   0.063  0.3413  0.3605  0.2644
   98MOL   C18323657   1.093   1.038   7.904 -0.2754  0.3887 -0.1937
   98MOL   C18423658   1.008   1.142   0.030  0.7059 -0.3097 -0.1846
   98MOL   O18523659   0.980   1.137   0.152 -0.3054 -0.3380  0.1795
   98MOL   O18623660   0.960   1.231   7.884 -0.1108  0.5137 -0.4943
   98MOL   C18723661   0.866   1.326   0.006  0.0874 -0.4878 -0.2113
   98MOL   H18823662   1.024   0.889   0.118  0.2839  1.2992  0.6491
   98MOL   H18923663   1.178   0.956   0.142  2.0519  0.4948 -1.1669
   98MOL   H19023664   1.043   0.999   7.815 -1.0367  0.0076  0.3934
   98MOL   H19123665   0.782   1.279   0.057 -0.4305  2.1042  1.4057
   98MOL   H19223666   0.822   1.382   7.855  0.9474  0.2325 -0.1859
   98MOL   H19323667   0.921   1.396   0.068 -0.2139 -0.5673  0.1444
   98MOL   C19423668   1.233   1.097   7.868  0.5590  0.5609  0.7995
   98MOL   C19523669   1.232   1.167   7.727 -0.0314  0.5696  0.0359
   98MOL   C19623670   1.350   1.262   7.732  0.0848  0.6907  0.2846
   98MOL   O19723671   1.337   1.385   7.701  0.3696 -0.5010  0.2953
   98MOL   O19823672   1.475   1.202   7.729  0.1176  0.4469 -0.0505
   98MOL   C19923673   1.589   1.284   7.713  0.7291 -0.3297  0.3212
   98MOL   H20023674   1.267   1.160   0.017 -1.2735  2.0021  0.4944
   98MOL   H20123675   1.305   1.015   7.869 -2.6777 -2.4068 -0.1973
   98MOL   H20223676   1.151   1.240   7.724  0.6686  1.3205 -0.7855
   98MOL   H20323677   1.632   1.254   7.618 -1.3607  2.1130 -1.4580
   98MOL   H20423678   1.649   1.262   7.801 -2.9032 -0.0903  2.9804
   98MOL   H20523679   1.559   1.389   7.708 -0.7484 -0.7444  0.1134
   98MOL   C20623680   1.235   1.057   7.605 -0.0779  0.2471  0.1327
   98MOL   C20723681   1.154   1.095   7.476  0.5279 -0.1917 -0.1247
   98MOL   C20823682   1.189   1.004   7.357  0.3352  0.5935  0.3539
   98MOL   O20923683   1.120   0.907   7.325 -0.3785  0.2746  0.4238
   98MOL   O21023684   1.297   1.052   7.283 -0.6513  0.0659  0.0105
   98MOL   C21123685   1.313   1.007   7.145 -0.0417 -0.4926  0.4563
   98MOL   H21223686   1.337   1.040   7.568 -0.8150 -1.7667 -1.0614
   98MOL   H21323687   1.200   0.961   7.644 -0.7467  0.5871  0.3591
   98MOL   H21423688   1.198   1.194   7.461  0.7768 -0.4003 -0.8061
   98MOL   H21523689   1.366   0.912   7.146 -0.9707 -1.0155  0.4139
   98MOL   H21623690   1.356   1.087   7.084 -2.2717 -1.1192 -1.9884
   98MOL   H21723691   1.211   1.009   7.106  0.0477  1.9452  0.2309
   98MOL   C21823692   0.996   1.118   7.504 -0.8328 -0.1242 -0.1691
   98MOL   C21923693   0.923   1.199   7.393 -0.0106  0.0621  0.5818
   98MOL   C22023694   1.009   1.317   7.361  0.4428 -0.3015  0.4197
   98MOL   O22123695   1.088   1.323   7.263 -0.4965 -0.0192  0.1888
   98MOL   O22223696   0.977   1.423   7.448  0.1058 -0.0593  0.2982
   98MOL   C22323697   1.040   1.549   7.435 -0.0906  0.0079  0.4074
   98MOL   H22423698   0.946   1.024   7.523 -2.3442  0.3425 -1.7571
   98MOL   H22523699   0.983   1.176   7.595 -0.6433 -0.6663  0.2074
   98MOL   H22623700   0.832   1.248   7.426 -0.3185  1.5301 -2.2679
   98MOL   H22723701   1.148   1.544   7.451 -0.0778  1.1700  0.7182
   98MOL   H22823702   1.000   1.616   7.511 -1.3437  1.4692 -1.5041
   98MOL   H22923703   1.028   1.595   7.337  1.1573  0.2554  0.3700
   98MOL   C23023704   0.873   1.120   7.266 -0.3309 -0.0151  0.6922
   98MOL   C23123705   0.796   1.200   7.160 -0.5667 -0.8404  0.3551
   98MOL   C23223706   0.754   1.113   7.043  0.7026  0.0852 -0.5251
   98MOL   O23323707   0.634   1.081   7.033 -0.5030  0.1198  0.2514
   98MOL   O23423708   0.855   1.075   6.965  0.4311 -0.0432  0.6901
   98MOL   C23523709   0.819   1.001   6.848  1.0531 -0.2840  0.4551
   98MOL   H23623710   0.954   1.072   7.212 -1.7647  0.6179 -2.0944
   98MOL   H23723711   0.813   1.033   7.293 -0.9387 -0.3018 -1.4856
   98MOL   H23823712   0.858   1.282   7.124  0.4599  0.3262  4.5747
   98MOL   H23923713   0.908   0.964   6.798  0.9679 -1.0599  0.8659
   98MOL   H24023714   0.744   1.041   6.780  0.5777  0.2475  1.2800
   98MOL   H24123715   0.774   0.906   6.877 -1.1271  0.2328 -1.0572
   98MOL   H24223716   0.708   1.250   7.202  0.2220  3.0926 -2.3471
   99MOL     C123717   7.068   5.729   2.964 -0.5299  0.4517  0.4682
   99MOL     C223718   7.117   5.744   2.815 -0.4703 -0.1737  0.3143
   99MOL     C323719   7.008   5.702   2.712 -0.3314 -0.5847  0.2718
   99MOL     O423720   6.890   5.702   2.739 -0.4871 -0.3989 -0.5327
   99MOL     O523721   7.057   5.679   2.592 -0.2654  0.4396 -0.4296
   99MOL     C623722   6.968   5.623   2.496 -0.8792  0.5505  0.2599
   99MOL     H723723   6.989   5.803   2.977  0.4374  1.7203 -0.7420
   99MOL     H823724   7.150   5.740   3.035  2.0172 -0.5896 -2.2214
   99MOL     H923725   7.200   5.674   2.810 -1.2047 -1.0293 -0.1184
   99MOL    H1023726   7.028   5.578   2.417 -2.4250  0.6517 -1.0038
   99MOL    H1123727   6.907   5.710   2.468 -2.4775 -0.3608  0.8631
   99MOL    H1223728   6.909   5.543   2.541 -0.7108  0.4715  0.3396
   99MOL    H1323729   7.032   5.627   2.978  0.0932  0.4381  2.1426
   99MOL    C1423730   7.154   5.894   2.783  0.6312 -0.0797 -0.1098
   99MOL    C1523731   7.239   5.931   2.662  0.5817  0.3155 -0.4379
   99MOL    C1623732   7.269   6.087   2.665  0.1832  0.1430  0.1049
   99MOL    O1723733   7.209   6.162   2.741  0.0010  0.1456 -0.0684
   99MOL    O1823734   7.339   6.117   2.553  0.4782  0.6489  0.0917
   99MOL    C1923735   7.332   6.247   2.497 -0.1078 -0.2193  0.5895
   99MOL    H2023736   7.062   5.951   2.771  1.2643  1.5565  2.5164
   99MOL    H2123737   7.194   5.938   2.874  0.5346 -0.2064 -0.0053
   99MOL    H2223738   7.182   5.907   2.572  0.7633  1.2447 -0.8035
   99MOL    H2323739   7.331   6.234   2.389  0.6189 -1.9697  0.7692
   99MOL    H2423740   7.425   6.295   2.529 -1.1597  1.2843  1.4144
   99MOL    H2523741   7.254   6.306   2.543  0.6499  0.3320  1.1874
   99MOL    C2623742   7.362   5.841   2.653 -0.8277  0.2381  0.0229
   99MOL    C2723743   7.485   5.866   2.744 -0.0816  0.0849  0.0665
   99MOL    C2823744   7.445   5.908   2.892 -0.4933  0.0833  0.1672
   99MOL    O2923745   7.438   6.027   2.919 -0.1145 -0.0397 -0.3987
   99MOL    O3023746   7.415   5.811   2.975 -0.1773  0.4156 -0.1225
   99MOL    C3123747   7.388   5.846   3.107 -0.1522  0.1877  0.1528
   99MOL    H3223748   7.331   5.736   2.652  1.7492 -0.5571 -0.3118
   99MOL    H3323749   7.390   5.845   2.547 -0.8727 -1.0426 -0.0451
   99MOL    H3423750   7.542   5.949   2.701 -0.7866  1.1420  1.1506
   99MOL    H3523751   7.387   5.751   3.161 -1.7147 -0.8070 -1.5817
   99MOL    H3623752   7.293   5.898   3.122  0.0032  0.9214 -1.3167
   99MOL    H3723753   7.470   5.908   3.143  2.2620 -1.2187 -2.7517
   99MOL    C3823754   7.585   5.748   2.733  0.1362 -0.2532  0.0770
   99MOL    C3923755   7.722   5.772   2.811  0.2618  0.0461  0.6324
   99MOL    C4023756   7.728   5.718   2.951 -0.1834 -0.6000 -0.4530
   99MOL    O4123757   7.661   5.614   2.981  0.1114 -0.2853  0.2028
   99MOL    O4223758   7.784   5.804   3.040 -0.2469 -0.0718 -0.2086
   99MOL    C4323759   7.816   5.774   3.175  0.0373  0.0138 -0.0328
   99MOL    H4423760   7.545   5.652   2.765 -0.6905  0.7120  2.0175
   99MOL    H4523761   7.610   5.737   2.627  1.2115 -1.2310  0.4152
   99MOL    H4623762   7.745   5.879   2.816  1.9000 -0.2999  0.8546
   99MOL    H4723763   7.730   5.770   3.242  0.7365 -3.3176  0.7697
   99MOL    H4823764   7.880   5.850   3.219 -1.4260  1.9359 -1.1626
   99MOL    H4923765   7.863   5.676   3.177  1.4962  0.7089  0.8954
   99MOL    C5023766   7.844   5.732   2.725 -0.3174 -0.2546  0.2054
   99MOL    C5123767   0.062   5.713   2.773  0.0116 -0.0165  0.2460
   99MOL    C5223768   0.117   5.827   2.854 -0.5502 -0.2567  0.4275
   99MOL    O5323769   0.165   5.818   2.966 -0.5884 -0.4290  0.1225
   99MOL    O5423770   0.104   5.943   2.787 -0.1514  0.1791 -0.1206
   99MOL    C5523771   0.140   6.066   2.857  0.0909 -0.2434  0.3532
   99MOL    H5623772   7.823   5.655   2.652  0.0613  0.7683 -1.0030
   99MOL    H5723773   7.853   5.817   2.657 -1.7811 -1.1970 -1.1789
   99MOL    H5823774   0.119   5.706   2.681 -2.0254  1.2923 -1.1332
   99MOL    H5923775   0.104   6.154   2.803  1.2471 -0.3864 -0.6709
   99MOL    H6023776   0.248   6.055   2.869  0.3060 -1.5217 -2.3768
   99MOL    H6123777   0.103   6.075   2.959  1.7992 -1.3695  1.0812
   99MOL    C6223778   0.066   5.579   2.852  0.3762 -0.0894  0.3981
   99MOL    C6323779   0.182   5.472   2.806  0.1981  0.6612  0.0244
   99MOL    C6423780   0.319   5.486   2.874 -0.5105  0.3255  0.3449
   99MOL    O6523781   0.418   5.507   2.811  0.2844 -0.0974  0.6722
   99MOL    O6623782   0.318   5.490   3.007 -0.0864 -0.0535  0.3396
   99MOL    C6723783   0.440   5.490   3.080 -0.4660 -0.7028  0.0489
   99MOL    H6823784   0.072   5.582   2.961 -0.5378  0.9020  0.4348
   99MOL    H6923785   7.902   5.533   2.832  1.1303 -1.9153  0.9071
   99MOL    H7023786   0.206   5.496   2.703  0.4966  0.3262  0.0182
   99MOL    H7123787   0.509   5.409   3.058  0.6168  0.6011 -1.4526
   99MOL    H7223788   0.433   5.496   3.189 -2.4557  2.1683 -0.1948
   99MOL    H7323789   0.500   5.578   3.058  1.5919 -1.3899  2.6574
   99MOL    C7423790   0.138   5.315   2.798  0.3798  0.1799 -0.7897
   99MOL    C7523791   0.140   5.235   2.928 -0.1204  0.0551 -0.0554
   99MOL    C7623792   0.027   5.290   3.019  0.5134 -0.2394  0.1371
   99MOL    O7723793   7.848   5.292   2.977  0.7777 -0.3300  0.3955
   99MOL    O7823794   0.067   5.349   3.137  0.3166  0.4755 -0.2002
   99MOL    C7923795   7.912   5.376   3.239  0.5912 -0.2240  1.0891
   99MOL    H8023796   0.039   5.314   2.752  0.9708 -1.6704 -2.0688
   99MOL    H8123797   0.208   5.265   2.732 -1.2328 -2.5090 -0.5234
   99MOL    H8223798   0.231   5.252   2.985 -0.5309 -0.7505  0.8582
   99MOL    H8323799   0.032   5.363   3.333 -0.0397  0.4972  1.5445
   99MOL    H8423800   7.822   5.315   3.239 -0.0899  0.7758  0.7357
   99MOL    H8523801   7.873   5.477   3.226 -2.2102 -1.4357 -0.3746
   99MOL    C8623802   0.124   5.082   2.898 -0.0819  0.5033 -0.1185
   99MOL    C8723803   0.178   4.979   3.007 -0.7504  0.0063 -0.1925
   99MOL    C8823804   0.325   5.015   3.049  0.6785 -0.4904 -0.1604
   99MOL    O8923805   0.359   5.069   3.151  0.6875 -0.2413 -0.5927
   99MOL    O9023806   0.413   4.988   2.957 -0.7256 -0.2523 -0.0377
   99MOL    C9123807   0.548   4.983   2.979 -0.0034  0.2329 -0.8879
   99MOL    H9223808   0.022   5.049   2.880 -0.5593  1.3387  1.0099
   99MOL    H9323809   0.182   5.057   2.809  2.9931  2.5804  1.2459
   99MOL    H9423810   0.173   4.883   2.956 -0.1745 -0.4948  0.6707
   99MOL    H9523811   0.572   5.057   3.055 -2.2283  0.3136 -0.2188
   99MOL    H9623812   0.609   4.987   2.888  0.2131  1.9274 -0.6727
   99MOL    H9723813   0.554   4.889   3.034 -1.1110  1.4656  1.4058
   99MOL    C9823814   0.081   4.967   3.123  0.0297  0.2790 -0.0112
   99MOL    C9923815   0.084   4.828   3.194 -0.6892 -0.2578  0.4851
   99MOL   C10023816   0.203   4.816   3.291 -0.3853 -0.9537 -0.8215
   99MOL   O10123817   0.276   4.726   3.276 -0.5954  0.1333  0.3990
   99MOL   O10223818   0.214   4.917   3.395  0.0571 -0.3420  0.6559
   99MOL   C10323819   0.319   4.921   3.485  0.2904 -0.3102 -0.4536
   99MOL   H10423820   0.100   5.050   3.191 -2.8536  1.2232 -0.2948
   99MOL   H10523821   7.912   4.987   3.090  0.1143  0.7466  0.0087
   99MOL   H10623822   0.116   4.768   3.109  3.7758  2.8363 -0.2017
   99MOL   H10723823   0.302   5.003   3.554 -0.5906 -1.5481  0.8516
   99MOL   H10823824   0.414   4.916   3.433  0.1893 -1.1872 -0.5702
   99MOL   H10923825   0.311   4.837   3.555 -0.2028  0.8001  0.8593
   99MOL   C11023826   7.875   4.776   3.250  0.8391 -0.7351  0.0350
   99MOL   C11123827   7.810   4.860   3.367  0.2139 -0.4662 -0.1244
   99MOL   C11223828   7.782   5.005   3.340  0.1040  0.2790 -0.2851
   99MOL   O11323829   7.838   5.092   3.406 -0.5023 -0.1682  0.8496
   99MOL   O11423830   7.684   5.022   3.255  0.1106  0.4542  0.8343
   99MOL   C11523831   7.632   5.151   3.216  0.4951  0.4010 -0.7292
   99MOL   H11623832   7.807   4.775   3.165  1.0357 -1.1745 -0.1130
   99MOL   H11723833   7.887   4.673   3.284 -0.5989 -1.7046 -2.3047
   99MOL   H11823834   7.883   4.862   3.448 -0.6198 -0.1280  0.6221
   99MOL   H11923835   7.636   5.219   3.301  0.4194  1.8593 -1.8728
   99MOL   H12023836   7.538   5.155   3.161  0.1149  3.6599  0.0483
   99MOL   H12123837   7.720   5.182   3.159  2.0786  1.9335  2.3857
   99MOL   C12223838   7.691   4.798   3.441 -0.1581 -0.0420  0.4456
   99MOL   C12323839   7.718   4.653   3.485  0.0848  0.2102  0.1343
   99MOL   C12423840   7.839   4.643   3.582  0.6637  0.2769  0.6378
   99MOL   O12523841   7.847   4.703   3.690 -0.4802 -0.0334 -0.2322
   99MOL   O12623842   7.932   4.571   3.524  0.3816  0.2980  0.1208
   99MOL   C12723843   0.136   4.572   3.572  0.0279 -0.0938  0.2673
   99MOL   H12823844   7.665   4.869   3.520 -1.3973  0.4754 -0.4135
   99MOL   H12923845   7.599   4.797   3.383  0.1667  0.3341 -0.0742
   99MOL   H13023846   7.738   4.599   3.392  1.0712 -0.5614  0.7714
   99MOL   H13123847   0.177   4.672   3.584 -0.2820 -0.0363  0.9148
   99MOL   H13223848   0.207   4.524   3.505 -0.3402  0.9539 -0.8882
   99MOL   H13323849   0.137   4.517   3.667  0.0187 -1.5024 -0.5338
   99MOL   C13423850   7.592   4.595   3.547 -0.4872  0.4715 -0.5297
   99MOL   C13523851   7.602   4.444   3.605  0.0317  0.9878  0.0059
   99MOL   C13623852   7.645   4.449   3.750 -0.1444 -0.0372  0.0431
   99MOL   O13723853   7.754   4.409   3.785 -0.4552 -0.4438 -0.0673
   99MOL   O13823854   7.559   4.511   3.829 -0.0306  0.1665  0.3005
   99MOL   C13923855   7.594   4.544   3.959 -0.0307  0.1666  0.2471
   99MOL   H14023856   7.566   4.661   3.629  0.2475  0.7876 -0.5468
   99MOL   H14123857   7.502   4.587   3.485 -0.8286  1.3014 -0.1376
   99MOL   H14223858   7.681   4.399   3.545  0.9344 -0.5720  2.2948
   99MOL   H14323859   7.596   4.453   4.019  0.0736  1.7992  2.8397
   99MOL   H14423860   7.520   4.604   4.012 -0.2884  1.1549 -1.1994
   99MOL   H14523861   7.688   4.599   3.967 -0.1697  1.0424 -3.2378
   99MOL   C14623862   7.474   4.358   3.591  0.0784  0.4605  0.0634
   99MOL   C14723863   7.471   4.286   3.447 -1.1426  0.0787  0.4630
   99MOL   C14823864   7.451   4.139   3.453 -0.2568  0.0330 -0.2670
   99MOL   O14923865   7.536   4.062   3.405  0.5112  0.4138  0.0657
   99MOL   O15023866   7.342   4.108   3.518  0.4148 -0.0413  0.1490
   99MOL   C15123867   7.305   3.973   3.543 -0.0202  0.3236 -0.0537
   99MOL   H15223868   7.468   4.282   3.668  0.2549  0.4524  0.0702
   99MOL   H15323869   7.387   4.423   3.596 -2.2044 -2.3434 -1.7333
   99MOL   H15423870   7.567   4.288   3.395 -1.9012 -0.9462 -1.0203
   99MOL   H15523871   7.203   3.951   3.576  0.7438 -0.9382  1.5396
   99MOL   H15623872   7.362   3.944   3.631 -0.1433 -0.0601 -0.0980
   99MOL   H15723873   7.333   3.919   3.452 -1.2994  0.5367 -0.5863
   99MOL   C15823874   7.368   4.353   3.350 -0.1008 -0.0221  0.2853
   99MOL   C15923875   7.407   4.358   3.209  0.2731 -0.0111  1.6105
   99MOL   C16023876   7.289   4.371   3.107 -0.7486 -0.3773 -0.2089
   99MOL   O16123877   7.284   4.462   3.025  0.4502  0.8232  0.1080
   99MOL   O16223878   7.184   4.287   3.128  0.4115  0.6038 -0.0098
   99MOL   C16323879   7.085   4.280   3.025  0.0872  0.3928  0.2323
   99MOL   H16423880   7.270   4.311   3.375  0.3945 -0.1275  2.1161
   99MOL   H16523881   7.346   4.451   3.392 -1.2127 -0.5564  0.9885
   99MOL   H16623882   7.451   4.260   3.188 -2.3015 -1.0687  0.8152
   99MOL   H16723883   7.058   4.376   2.983 -0.9540  0.9983  2.2334
   99MOL   H16823884   6.992   4.230   3.053 -0.4978  1.3030 -0.0937
   99MOL   H16923885   7.128   4.221   2.943  0.0970  1.0880 -0.2650
   99MOL   C17023886   7.514   4.461   3.172 -0.5453  0.5135 -0.5579
   99MOL   C17123887   7.590   4.431   3.037 -0.4402 -0.5641  0.0970
   99MOL   C17223888   7.621   4.558   2.949 -0.3786 -0.8386  0.1187
   99MOL   O17323889   7.560   4.664   2.966 -0.2570 -0.3355 -0.9095
   99MOL   O17423890   7.686   4.521   2.837 -0.2665 -0.3474 -0.1288
   99MOL   C17523891   7.721   4.614   2.727  0.0675  0.5634 -0.5480
   99MOL   H17623892   7.458   4.554   3.168 -1.7807 -0.1068  1.4038
   99MOL   H17723893   7.582   4.481   3.255 -1.0745 -0.2003  0.0611
   99MOL   H17823894   7.526   4.368   2.976  0.0594  1.3088 -2.4833
   99MOL   H17923895   7.805   4.674   2.763  1.2397 -0.4744 -1.4763
   99MOL   H18023896   7.635   4.668   2.688  1.1718  0.1762 -3.6046
   99MOL   H18123897   7.761   4.552   2.647  1.7525 -1.9384  2.1137
   99MOL   C18223898   7.720   4.358   3.076  0.1920  0.2838  0.2149
   99MOL   C18323899   7.710   4.201   3.102  0.8358 -0.2230 -0.0583
   99MOL   C18423900   7.612   4.136   3.003 -0.6129  0.1237  0.0900
   99MOL   O18523901   7.517   4.075   3.048 -0.2232 -0.1839 -0.7387
   99MOL   O18623902   7.658   4.139   2.874 -0.4356  0.1735 -0.0776
   99MOL   C18723903   7.578   4.080   2.775 -0.1421  0.8852 -0.3987
   99MOL   H18823904   7.783   4.355   2.987  1.6007  1.1316  1.1625
   99MOL   H18923905   7.773   4.426   3.143 -0.0296 -0.8642  1.5867
   99MOL   H19023906   7.670   4.193   3.203  0.6784  1.8742  0.0652
   99MOL   H19123907   7.614   4.104   2.675  2.4032 -0.9033  0.0476
   99MOL   H19223908   7.471   4.096   2.793  0.0603  1.1381  0.6393
   99MOL   H19323909   7.587   3.972   2.790 -0.5729  0.8215 -0.5777
   99MOL   C19423910   7.845   4.117   3.100  0.1731 -0.4280  0.2853
   99MOL   C19523911   7.846   3.989   3.185 -0.7243  0.2058 -0.8994
   99MOL   C19623912   7.763   3.879   3.111  0.3626  0.0952  0.0138
   99MOL   O19723913   7.665   3.825   3.162 -0.6319  0.0590 -0.4413
   99MOL   O19823914   7.804   3.844   2.988 -0.3980 -0.1963  0.0140
   99MOL   C19923915   7.733   3.758   2.901 -0.4479  0.4147 -0.4126
   99MOL   H20023916   7.877   4.103   2.997 -1.2208 -0.0426 -0.2146
   99MOL   H20123917   7.921   4.185   3.138 -0.6460  0.5813  0.1714
   99MOL   H20223918   7.783   4.008   3.272  1.2434 -1.1582  0.8850
   99MOL   H20323919   7.628   3.786   2.888 -0.4929  1.0428  1.2142
   99MOL   H20423920   7.748   3.658   2.941 -4.8339 -0.5531 -0.8992
   99MOL   H20523921   7.783   3.755   2.805 -0.4350 -1.2378 -0.3571
   99MOL   C20623922   0.062   3.946   3.210  0.1518  0.7561  0.0879
   99MOL   C20723923   0.143   4.020   3.317  0.1279 -0.0461  0.3622
   99MOL   C20823924   0.077   4.034   3.455  0.4415 -0.0764  0.0796
   99MOL   O20923925   0.048   3.936   3.521 -0.3012  0.1850  0.0612
   99MOL   O21023926   0.036   4.159   3.481 -0.1266 -0.1807  0.5820
   99MOL   C21123927   7.876   4.182   3.588  0.0831  0.6067 -0.3229
   99MOL   H21223928   0.069   3.841   3.239  3.1494  1.2934  1.4671
   99MOL   H21323929   0.111   3.944   3.112 -2.7587  1.1528 -1.4227
   99MOL   H21423930   0.166   4.118   3.276  1.7706  0.1780  1.7836
   99MOL   H21523931   7.844   4.286   3.596 -0.9586  0.1547  1.5233
   99MOL   H21623932   7.909   4.134   3.680 -0.5858 -0.4704 -0.6394
   99MOL   H21723933   7.778   4.144   3.558 -0.1993  0.3246  0.9658
   99MOL   C21823934   0.282   3.956   3.343 -0.0748 -0.5535 -0.7187
   99MOL   C21923935   0.388   4.044   3.416  0.4532  0.7542  0.1067
   99MOL   C22023936   0.519   3.958   3.433  0.3285 -0.1824  0.4228
   99MOL   O22123937   0.629   3.996   3.401  0.2753 -0.1046  0.1218
   99MOL   O22223938   0.497   3.836   3.483 -0.4683 -0.1220  0.0700
   99MOL   C22323939   0.607   3.741   3.505  0.8423 -0.7313  0.2741
   99MOL   H22423940   0.260   3.865   3.398  0.6252 -1.4252 -1.8526
   99MOL   H22523941   0.323   3.912   3.252  1.7900 -0.2181 -0.0616
   99MOL   H22623942   0.354   4.064   3.518 -0.3841 -3.3463  0.7559
   99MOL   H22723943   0.593   3.660   3.576 -1.0015 -0.9147 -0.2912
   99MOL   H22823944   0.692   3.797   3.544 -0.0668 -0.3164  1.6942
   99MOL   H22923945   0.626   3.682   3.415  0.7849  0.5315 -0.5774
   99MOL   C23023946   0.415   4.184   3.351  0.2535 -0.6065  0.0040
   99MOL   C23123947   0.488   4.283   3.439  0.1959  0.3668 -0.2497
   99MOL   C23223948   0.414   4.324   3.567 -0.4801  0.0959 -0.0353
   99MOL   O23323949   0.306   4.273   3.602 -0.1544  0.1325  0.1495
   99MOL   O23423950   0.477   4.420   3.628  0.1910 -0.7884  0.1508
   99MOL   C23523951   0.427   4.460   3.747 -0.3227  0.4050  0.1229
   99MOL   H23623952   0.473   4.175   3.260  1.5022  1.8652  0.5081
   99MOL   H23723953   0.320   4.229   3.322  0.6895 -0.1385 -0.6860
   99MOL   H23823954   0.504   4.376   3.383  1.2077  0.6602  0.5008
   99MOL   H23923955   0.407   4.377   3.813  0.2687 -0.2671 -0.5341
   99MOL   H24023956   0.330   4.506   3.731 -1.0054 -0.6133  1.3259
   99MOL   H24123957   0.501   4.530   3.787 -0.0055 -0.8372  1.7054
   99MOL   H24223958   0.592   4.252   3.453  0.0623 -0.0300 -0.1386
  100MOL     C123959   5.076   1.703   0.845  0.6153 -0.1073 -0.2558
  100MOL     C223960   5.127   1.598   0.940  1.1192 -0.3439  0.1016
  100MOL     C323961   5.183   1.478   0.862  0.5001  0.1132 -0.1397
  100MOL     O423962   5.125   1.369   0.869 -0.2507 -0.1168 -0.1634
  100MOL     O523963   5.298   1.504   0.788  0.4465 -0.0662  0.7788
  100MOL     C623964   5.359   1.404   0.705  0.2303 -0.0076 -0.2903
  100MOL     H723965   5.156   1.757   0.795 -0.2206 -0.3528 -1.8628
  100MOL     H823966   5.027   1.779   0.906  0.1076 -0.7339  0.1342
  100MOL     H923967   5.035   1.559   0.984  0.1820  0.5248 -1.0898
  100MOL    H1023968   5.328   1.410   0.601 -0.3372 -1.6649 -0.2254
  100MOL    H1123969   5.335   1.307   0.749  1.2994  0.6685  1.8570
  100MOL    H1223970   5.467   1.422   0.708  0.0287  1.0678  1.1383
  100MOL    H1323971   5.002   1.678   0.769  2.4678  0.6679 -2.3386
  100MOL    C1423972   5.224   1.669   1.043  0.4885  0.2396  0.3415
  100MOL    C1523973   5.243   1.602   1.180  0.1128 -0.1756  0.7689
  100MOL    C1623974   5.306   1.460   1.177  0.2909  0.8948 -0.1893
  100MOL    O1723975   5.403   1.431   1.109  0.3056  0.2857 -0.0773
  100MOL    O1823976   5.230   1.379   1.254 -0.2080 -1.0081 -0.6029
  100MOL    C1923977   5.264   1.246   1.274 -0.1087 -0.2739  0.7101
  100MOL    H2023978   5.324   1.666   1.001 -0.1329 -1.2752 -1.1174
  100MOL    H2123979   5.195   1.774   1.044  0.1217  0.1483 -0.4355
  100MOL    H2223980   5.141   1.605   1.221 -0.5759  0.6340 -0.9475
  100MOL    H2323981   5.307   1.198   1.187  1.8544 -3.2476  3.2069
  100MOL    H2423982   5.182   1.190   1.320  0.4244 -0.9609  0.8434
  100MOL    H2523983   5.341   1.248   1.351  1.0616 -1.3029 -0.4119
  100MOL    C2623984   5.336   1.696   1.268  0.0619  0.4724  0.0043
  100MOL    C2723985   5.293   1.715   1.420  0.1711 -0.0553  0.9631
  100MOL    C2823986   5.152   1.775   1.433 -0.4100 -0.4745 -0.2754
  100MOL    O2923987   5.066   1.770   1.349  0.0697 -0.2392 -0.0829
  100MOL    O3023988   5.125   1.834   1.555  0.1800  0.7264  0.6520
  100MOL    C3123989   4.996   1.893   1.580  0.2677 -0.4612  0.1482
  100MOL    H3223990   5.434   1.650   1.261 -0.2606  0.0458 -2.0438
  100MOL    H3323991   5.339   1.797   1.225  0.9460  0.4201 -0.0771
  100MOL    H3423992   5.370   1.779   1.463  1.2952 -1.0036  0.3871
  100MOL    H3523993   4.987   1.994   1.540  0.6290  0.5389  2.4735
  100MOL    H3623994   4.983   1.895   1.689  1.6156 -1.4598  0.3273
  100MOL    H3723995   4.913   1.835   1.539  1.9053 -3.2531  0.6403
  100MOL    C3823996   5.289   1.583   1.503  0.2819 -0.0789 -0.1164
  100MOL    C3923997   5.425   1.508   1.512  0.3424 -0.3647 -0.2154
  100MOL    C4023998   5.536   1.603   1.567  0.3606 -0.9155 -0.6187
  100MOL    O4123999   5.637   1.637   1.497 -0.0393  0.0737  0.6987
  100MOL    O4224000   5.524   1.635   1.698 -0.5326  0.1669  0.1049
  100MOL    C4324001   5.617   1.718   1.763 -0.1496  0.0142  0.1150
  100MOL    H4424002   5.267   1.606   1.607 -1.6716  1.3534 -0.8249
  100MOL    H4524003   5.210   1.514   1.475  0.1115  0.5621 -1.2161
  100MOL    H4624004   5.456   1.474   1.413 -1.4935 -0.8039 -0.6529
  100MOL    H4724005   5.573   1.803   1.816 -0.9505 -1.2283  1.4597
  100MOL    H4824006   5.681   1.771   1.693 -1.3553 -0.8674 -1.7059
  100MOL    H4924007   5.678   1.663   1.834  1.2604  0.0955 -1.0053
  100MOL    C5024008   5.417   1.376   1.597 -0.6107 -0.0853 -0.9694
  100MOL    C5124009   5.551   1.297   1.592 -0.7712 -0.7503  0.0099
  100MOL    C5224010   5.552   1.210   1.723  0.1397  0.6474 -0.7395
  100MOL    O5324011   5.585   1.261   1.832  0.0621 -0.1800  0.1018
  100MOL    O5424012   5.488   1.090   1.713 -0.0827  0.0184  0.3548
  100MOL    C5524013   5.464   1.008   1.821 -0.0510  0.0018 -0.1533
  100MOL    H5624014   5.399   1.411   1.698 -0.4231  0.5856 -1.1669
  100MOL    H5724015   5.332   1.311   1.580 -0.8921  0.0614 -0.1555
  100MOL    H5824016   5.625   1.376   1.605 -1.9972  0.0944  1.9344
  100MOL    H5924017   5.431   0.910   1.784 -0.1367  0.1120 -0.3724
  100MOL    H6024018   5.390   1.053   1.886 -0.5191 -2.5710  1.1498
  100MOL    H6124019   5.558   0.987   1.873 -0.5370  0.5366  0.9475
  100MOL    C6224020   5.583   1.233   1.458 -0.2988  0.6006 -0.2712
  100MOL    C6324021   5.733   1.193   1.447  0.1200 -0.0952  0.0781
  100MOL    C6424022   5.750   1.050   1.392 -0.2248  1.1349  0.7483
  100MOL    O6524023   5.810   1.038   1.285  0.4055  0.4516  0.1463
  100MOL    O6624024   5.697   0.950   1.475  0.1226  0.4296 -0.1058
  100MOL    C6724025   5.711   0.818   1.426 -0.6342  0.4011  0.6284
  100MOL    H6824026   5.521   1.145   1.443  2.2075 -1.0440 -1.3809
  100MOL    H6924027   5.555   1.298   1.376  0.3997 -0.1644 -1.1223
  100MOL    H7024028   5.761   1.186   1.552 -0.7922  0.4089  0.3540
  100MOL    H7124029   5.613   0.771   1.432 -0.4937 -0.4329 -2.5732
  100MOL    H7224030   5.785   0.762   1.483  0.4639  0.3786 -0.7933
  100MOL    H7324031   5.743   0.809   1.322 -0.8245  2.4813  0.3766
  100MOL    C7424032   5.807   1.308   1.382  0.6275  0.2580 -0.8053
  100MOL    C7524033   5.947   1.324   1.452 -0.0249  0.8394 -0.0695
  100MOL    C7624034   6.049   1.240   1.367  0.1933  0.0463 -0.8380
  100MOL    O7724035   6.062   1.254   1.248  0.2665 -0.1949  0.2862
  100MOL    O7824036   6.116   1.142   1.440 -0.0447 -0.2684 -0.8526
  100MOL    C7924037   6.201   1.043   1.373  0.2151 -0.4399  0.5830
  100MOL    H8024038   5.823   1.300   1.274 -0.3046 -3.6357 -0.7404
  100MOL    H8124039   5.750   1.401   1.394  0.6045  0.0862  0.5017
  100MOL    H8224040   5.948   1.267   1.545  0.5420 -2.4427 -2.0042
  100MOL    H8324041   6.290   1.075   1.319  0.7858 -2.7846  0.0579
  100MOL    H8424042   6.139   0.991   1.300 -0.5874  0.5964  0.5163
  100MOL    H8524043   6.241   0.966   1.439  0.0764  0.1222  1.3403
  100MOL    C8624044   6.013   1.459   1.465 -0.2590 -0.0652 -0.1217
  100MOL    C8724045   5.955   1.538   1.584 -0.7002 -0.2199 -0.8200
  100MOL    C8824046   6.011   1.508   1.720  0.8896 -0.4533  0.0227
  100MOL    O8924047   6.119   1.453   1.729  0.4642  0.2407 -0.3137
  100MOL    O9024048   5.924   1.554   1.817 -0.3661  0.1488 -0.4049
  100MOL    C9124049   5.971   1.543   1.950  0.9208  0.3074 -0.3224
  100MOL    H9224050   6.122   1.456   1.471 -0.3108 -0.2916  0.9126
  100MOL    H9324051   5.997   1.514   1.373 -0.6071 -1.5494 -0.9496
  100MOL    H9424052   5.849   1.517   1.595 -0.7548  0.2242 -0.5084
  100MOL    H9524053   6.066   1.596   1.960  0.8372  0.6351 -1.1461
  100MOL    H9624054   5.985   1.440   1.981  1.0702  0.0305 -1.2936
  100MOL    H9724055   5.892   1.587   2.011  2.1563 -0.0990  1.5976
  100MOL    C9824056   5.951   1.687   1.552 -0.1010 -0.2416  0.2273
  100MOL    C9924057   6.085   1.759   1.538  0.1932  0.1759  0.0376
  100MOL   C10024058   6.095   1.824   1.398  0.4955 -1.1732  0.0620
  100MOL   O10124059   6.151   1.757   1.311 -0.4135  0.6013 -0.2318
  100MOL   O10224060   6.045   1.947   1.381 -0.2406 -0.0561  0.1131
  100MOL   C10324061   6.066   2.018   1.256 -0.5020 -0.6595  0.2208
  100MOL   H10424062   5.885   1.704   1.467  0.9463  0.0138 -0.5424
  100MOL   H10524063   5.897   1.732   1.636 -0.3919  1.9254 -1.0953
  100MOL   H10624064   6.161   1.681   1.546  0.4863  0.5412  0.9768
  100MOL   H10724065   6.168   2.052   1.236 -0.5119 -1.5438 -1.4495
  100MOL   H10824066   6.006   2.108   1.245  1.6767  0.9484  1.1973
  100MOL   H10924067   6.039   1.959   1.168  0.0237 -0.6427  0.0457
  100MOL   C11024068   6.112   1.853   1.666 -0.8837  0.2917 -0.1278
  100MOL   C11124069   6.045   1.993   1.678 -0.0431 -0.5231 -0.5069
  100MOL   C11224070   5.994   2.021   1.817  1.3395 -0.2040  0.0897
  100MOL   O11324071   6.062   2.086   1.894  0.1523 -0.1308  0.4322
  100MOL   O11424072   5.881   1.959   1.836  0.5590  0.8400  0.2626
  100MOL   C11524073   5.815   1.970   1.961  0.6057  0.7513 -0.4090
  100MOL   H11624074   6.089   1.795   1.756 -1.9000 -0.5778 -0.9370
  100MOL   H11724075   6.219   1.873   1.673 -0.8511  0.1298 -0.1794
  100MOL   H11824076   5.951   1.983   1.623 -0.0361 -3.2789 -0.1052
  100MOL   H11924077   5.844   2.048   2.031 -1.0439  1.0955 -0.0845
  100MOL   H12024078   5.817   1.876   2.016  0.6467  0.5244 -0.7990
  100MOL   H12124079   5.709   1.989   1.941 -0.2286 -2.6136  0.3966
  100MOL   C12224080   6.134   2.102   1.630 -0.2607 -0.2513  0.1343
  100MOL   C12324081   6.065   2.240   1.619  0.7365 -0.5465 -0.1984
  100MOL   C12424082   6.166   2.338   1.558  0.2355 -0.0127 -0.5401
  100MOL   O12524083   6.203   2.338   1.445  0.2074 -0.2045 -0.0790
  100MOL   O12624084   6.212   2.426   1.658  0.0199 -0.4724  0.3860
  100MOL   C12724085   6.273   2.545   1.614  0.2063 -0.3710  0.4645
  100MOL   H12824086   6.227   2.100   1.687 -0.3416 -0.2623  0.2678
  100MOL   H12924087   6.174   2.081   1.531  2.7025  2.8880  0.5822
  100MOL   H13024088   6.028   2.275   1.716 -2.5051  0.2014 -1.6396
  100MOL   H13124089   6.305   2.543   1.509 -1.3046 -0.4187 -0.0023
  100MOL   H13224090   6.355   2.570   1.681  0.0715  0.8114  0.2051
  100MOL   H13324091   6.211   2.633   1.630  1.0598 -0.1637  2.7088
  100MOL   C13424092   5.930   2.243   1.532  0.1745  0.5657  1.1933
  100MOL   C13524093   5.857   2.382   1.525  0.4478  0.1622  0.1657
  100MOL   C13624094   5.917   2.497   1.441  1.1155 -0.4077  0.3268
  100MOL   O13724095   5.901   2.614   1.481 -0.1651  0.2613  0.1274
  100MOL   O13824096   5.967   2.464   1.327  0.0565 -0.0484  0.1403
  100MOL   C13924097   6.033   2.557   1.244  0.5900 -0.5897  0.4312
  100MOL   H14024098   5.946   2.210   1.429  1.8641  1.6497  1.1032
  100MOL   H14124099   5.864   2.169   1.578  0.5601 -1.4018 -1.2839
  100MOL   H14224100   5.871   2.422   1.626  0.9575 -0.4141  0.3294
  100MOL   H14324101   5.960   2.622   1.195  0.5634 -2.1175 -1.6020
  100MOL   H14424102   6.090   2.511   1.164  0.0868 -1.2997  0.4822
  100MOL   H14524103   6.110   2.617   1.293  0.1759  1.1928 -1.0466
  100MOL   C14624104   5.705   2.379   1.505  0.2544  0.0139 -0.0215
  100MOL   C14724105   5.623   2.305   1.615  1.0475  0.5535 -0.1796
  100MOL   C14824106   5.649   2.374   1.754  0.1513  0.0356 -0.4363
  100MOL   O14924107   5.580   2.466   1.806 -0.8685 -0.0708  0.4216
  100MOL   O15024108   5.741   2.310   1.812  0.2082 -0.3430  0.2032
  100MOL   C15124109   5.787   2.356   1.943 -0.1639  0.3729 -0.3068
  100MOL   H15224110   5.673   2.483   1.503  1.1369  0.2882 -0.1232
  100MOL   H15324111   5.663   2.342   1.411 -0.9161 -2.1232  1.3070
  100MOL   H15424112   5.656   2.201   1.623 -0.0458  0.3593  2.0366
  100MOL   H15524113   5.704   2.356   2.014  0.6195 -0.6914  0.6471
  100MOL   H15624114   5.831   2.453   1.921  1.1676 -0.1524  0.0001
  100MOL   H15724115   5.867   2.293   1.981 -0.9628 -0.3180  0.2555
  100MOL   C15824116   5.471   2.309   1.579  0.3540 -0.4832 -0.1832
  100MOL   C15924117   5.389   2.175   1.588 -0.3951  0.8590 -0.3015
  100MOL   C16024118   5.423   2.087   1.468 -0.2359 -0.0216  0.2808
  100MOL   O16124119   5.331   2.044   1.393 -0.2207 -0.2182 -0.5164
  100MOL   O16224120   5.557   2.066   1.450  0.5253  0.0667 -0.2285
  100MOL   C16324121   5.608   1.985   1.349  0.2666  0.2033  0.1320
  100MOL   H16424122   5.423   2.387   1.637 -0.1517 -0.4301 -0.6644
  100MOL   H16524123   5.462   2.351   1.479  0.1111  1.0423  0.4760
  100MOL   H16624124   5.285   2.198   1.565 -0.8027 -1.4662 -0.8942
  100MOL   H16724125   5.593   2.027   1.250  0.7847 -0.4459 -0.2188
  100MOL   H16824126   5.561   1.887   1.348 -1.4391  0.9984 -1.9024
  100MOL   H16924127   5.715   1.969   1.363 -0.2505 -2.9203  0.8107
  100MOL   C17024128   5.388   2.109   1.725 -0.2564 -0.0488  0.5595
  100MOL   C17124129   5.330   2.191   1.845 -0.6946  0.7736  0.5388
  100MOL   C17224130   5.180   2.196   1.842 -0.1198 -0.5653  0.2374
  100MOL   O17324131   5.112   2.118   1.776  0.1757  0.4693 -0.3124
  100MOL   O17424132   5.137   2.292   1.913 -0.0970  0.4832  0.5022
  100MOL   C17524133   4.999   2.331   1.923 -0.1291 -0.4269  0.2614
  100MOL   H17624134   5.334   2.014   1.726 -0.6003  0.1427  2.0517
  100MOL   H17724135   5.490   2.074   1.741 -0.2506  0.0856  0.8371
  100MOL   H17824136   5.360   2.290   1.811 -0.1854 -0.2422 -2.0483
  100MOL   H17924137   4.995   2.436   1.895 -0.4194 -0.3037  0.7607
  100MOL   H18024138   4.948   2.302   2.015  0.6676  0.8109  1.1094
  100MOL   H18124139   4.936   2.294   1.841  2.3979 -2.3511 -0.8785
  100MOL   C18224140   5.384   2.153   1.988  0.1242  0.0414  0.1081
  100MOL   C18324141   5.321   2.035   2.070  0.0553 -0.1388  0.4221
  100MOL   C18424142   5.345   1.893   2.002 -0.2551  0.2419 -0.3158
  100MOL   O18524143   5.440   1.822   2.022  0.3598  0.2617  0.2318
  100MOL   O18624144   5.250   1.870   1.909 -0.0583 -0.2366 -0.4009
  100MOL   C18724145   5.260   1.757   1.828 -1.5629 -0.1790 -0.1954
  100MOL   H18824146   5.490   2.129   1.988 -0.2410 -1.6180 -0.1143
  100MOL   H18924147   5.368   2.234   2.060 -1.9209 -0.9830  0.8322
  100MOL   H19024148   5.212   2.040   2.068  0.1014  0.7584 -0.5148
  100MOL   H19124149   5.330   1.781   1.748 -0.7491 -0.3413  0.4629
  100MOL   H19224150   5.166   1.721   1.784 -1.0187 -0.5043 -1.1045
  100MOL   H19324151   5.310   1.683   1.889  0.5481  0.7024 -0.8255
  100MOL   C19424152   5.358   2.030   2.225 -0.6724  0.5423  0.0468
  100MOL   C19524153   5.506   2.025   2.257 -1.1250 -0.7006 -0.3470
  100MOL   C19624154   5.572   2.161   2.248  0.2286 -0.0858  0.0971
  100MOL   O19724155   5.674   2.180   2.185  0.5448 -0.2209 -0.6412
  100MOL   O19824156   5.500   2.265   2.298  0.2520  0.3789  0.0379
  100MOL   C19924157   5.542   2.400   2.296  0.1067  0.4251  0.1009
  100MOL   H20024158   5.299   2.109   2.272  1.8750  1.7047  1.3970
  100MOL   H20124159   5.315   1.936   2.261  1.0455 -1.2213 -2.3327
  100MOL   H20224160   5.546   1.955   2.184  0.5360 -0.4715  0.3314
  100MOL   H20324161   5.520   2.447   2.200  0.8001  1.2880  0.3609
  100MOL   H20424162   5.651   2.398   2.304  0.0388  0.9724  1.2092
  100MOL   H20524163   5.497   2.466   2.370  0.1550 -1.0516  1.4882
  100MOL   C20624164   5.533   1.959   2.392  0.2806  0.2639 -0.0429
  100MOL   C20724165   5.476   2.033   2.517 -0.2153  0.5042 -0.1143
  100MOL   C20824166   5.328   2.016   2.561  0.4882 -0.0438  0.9317
  100MOL   O20924167   5.248   2.111   2.557 -0.2851  0.1819  0.1134
  100MOL   O21024168   5.313   1.892   2.606 -0.0936  0.2818  0.1040
  100MOL   C21124169   5.191   1.848   2.662  0.2379 -0.1162  0.1888
  100MOL   H21224170   5.509   1.853   2.403  0.0917  0.4706  1.6386
  100MOL   H21324171   5.641   1.952   2.397  0.1683 -2.8503 -0.5906
  100MOL   H21424172   5.505   2.138   2.521 -1.0472  0.6822  1.7012
  100MOL   H21524173   5.104   1.854   2.597  0.0076  0.7761  0.5712
  100MOL   H21624174   5.167   1.906   2.751 -0.3538  2.3542 -1.5071
  100MOL   H21724175   5.207   1.745   2.695  0.5688 -0.1024  0.0816
  100MOL   C21824176   5.569   1.976   2.632  0.2358  0.5362 -0.1385
  100MOL   C21924177   5.706   2.046   2.643 -0.1580  0.6549 -0.2024
  100MOL   C22024178   5.712   2.178   2.716  0.4021 -0.4972 -0.3963
  100MOL   O22124179   5.748   2.192   2.830 -0.0517  0.1304  0.0765
  100MOL   O22224180   5.673   2.275   2.638 -0.1478  0.3176 -0.5806
  100MOL   C22324181   5.649   2.407   2.689 -0.4777  0.6156  0.3148
  100MOL   H22424182   5.524   1.973   2.731  2.9809  0.6595  1.1399
  100MOL   H22524183   5.589   1.870   2.617 -0.4487  0.1371  1.7174
  100MOL   H22624184   5.738   2.071   2.542  3.0858 -0.2821  0.5192
  100MOL   H22724185   5.624   2.476   2.609  1.5041 -0.3133 -1.1196
  100MOL   H22824186   5.737   2.441   2.744  0.8595  0.1670 -1.5220
  100MOL   H22924187   5.572   2.402   2.767  0.5262 -0.6902  1.2523
  100MOL   C23024188   5.818   1.959   2.706  0.1445  0.0403  0.8344
  100MOL   C23124189   5.873   1.837   2.628  0.3758  0.2349  0.4243
  100MOL   C23224190   5.916   1.871   2.486 -0.4760  0.0359 -0.0387
  100MOL   O23324191   5.914   1.982   2.436 -0.0743  0.7970 -0.7187
  100MOL   O23424192   5.950   1.758   2.426  0.6027 -0.3392 -0.0327
  100MOL   C23524193   5.976   1.765   2.288 -0.1722 -0.2716 -0.8353
  100MOL   H23624194   5.909   2.018   2.714 -0.1016  0.6094 -0.5127
  100MOL   H23724195   5.788   1.930   2.807 -1.9263 -0.9705 -0.0297
  100MOL   H23824196   5.786   1.773   2.616  1.1834 -0.5742 -1.3503
  100MOL   H23924197   5.992   1.668   2.241  0.3325 -0.6284  0.0668
  100MOL   H24024198   6.071   1.816   2.271 -0.2899  1.2734  2.8159
  100MOL   H24124199   5.900   1.817   2.229 -0.2137 -0.2344 -0.7489
  100MOL   H24224200   5.956   1.796   2.687  2.2841  2.6558 -0.4758
  101MOL     C124201   0.094   4.863   7.888 -0.4559 -0.9784  0.6255
  101MOL     C224202   0.059   5.009   7.920  0.1635 -0.8516  0.8386
  101MOL     C324203   7.860   5.059   7.855 -0.1190 -0.0027 -0.8817
  101MOL     O424204   7.773   4.985   7.808  0.3000 -0.3046 -0.0407
  101MOL     O524205   7.850   5.185   7.857 -0.6368 -0.1933 -0.5138
  101MOL     C624206   7.727   5.242   7.817 -0.4493 -0.2467 -0.4820
  101MOL     H724207   0.025   4.793   0.000 -0.0769 -2.7888 -1.5186
  101MOL     H824208   0.190   4.839   0.001  0.2300 -0.5166 -0.5486
  101MOL     H924209   0.137   5.070   7.874 -0.9542  0.3962  0.5784
  101MOL    H1024210   7.684   5.207   7.723  1.5326 -0.7999 -1.1920
  101MOL    H1124211   7.729   5.350   7.804  0.0056 -0.1521  0.3508
  101MOL    H1224212   7.654   5.215   7.894  2.0657 -0.0879  2.0048
  101MOL    H1324213   0.096   4.835   7.782  1.6832  1.6224 -0.0920
  101MOL    C1424214   0.049   5.041   0.142  0.0618 -0.0110 -0.2472
  101MOL    C1524215   7.869   4.987   0.230 -0.0732  0.1940  0.3854
  101MOL    C1624216   7.896   4.842   0.274 -0.2245 -0.5697  0.2790
  101MOL    O1724217   7.825   4.752   0.220  0.2685  0.0531  0.0168
  101MOL    O1824218   0.067   4.825   0.363 -0.1818  0.0851  0.8475
  101MOL    C1924219   0.094   4.693   0.403  0.4057 -0.3174 -0.3580
  101MOL    H2024220   0.146   5.007   0.176  1.7885  2.5722 -2.4324
  101MOL    H2124221   0.069   5.147   0.157 -0.4345 -0.0981  1.1053
  101MOL    H2224222   7.783   4.981   0.163 -0.5592  1.4707  0.8613
  101MOL    H2324223   0.124   4.683   0.508 -0.5663 -1.0136 -0.1407
  101MOL    H2424224   0.175   4.661   0.338  1.3033  0.7472  0.2230
  101MOL    H2524225   0.009   4.629   0.379 -0.8226  1.2189 -0.1709
  101MOL    C2624226   7.834   5.073   0.349 -0.1242 -0.0843  1.5628
  101MOL    C2724227   7.692   5.070   0.400 -0.2055  0.3045 -0.5842
  101MOL    C2824228   7.649   4.938   0.465 -0.1994  0.6224 -0.3515
  101MOL    O2924229   7.682   4.904   0.580 -0.2310 -0.8110 -0.3306
  101MOL    O3024230   7.564   4.867   0.394 -0.3541  0.0695 -0.0233
  101MOL    C3124231   7.536   4.733   0.435  0.3947 -0.5137 -0.0435
  101MOL    H3224232   7.901   5.040   0.428  0.3973 -0.3608  1.0125
  101MOL    H3324233   7.862   5.177   0.328 -3.9947  0.7431  0.0493
  101MOL    H3424234   7.627   5.074   0.313  1.6977 -0.6155 -2.0882
  101MOL    H3524235   7.635   4.687   0.434  0.3592 -0.6196  0.7767
  101MOL    H3624236   7.461   4.687   0.371  0.1641 -0.6725  0.3413
  101MOL    H3724237   7.492   4.744   0.535 -0.9084  2.5112 -0.8875
  101MOL    C3824238   7.658   5.197   0.478 -0.3302 -0.2589 -0.0532
  101MOL    C3924239   7.511   5.225   0.508  0.2041 -0.0092 -0.7467
  101MOL    C4024240   7.516   5.340   0.608  0.0957 -1.3555  0.1234
  101MOL    O4124241   7.540   5.325   0.726  0.1453 -0.3006 -0.5852
  101MOL    O4224242   7.498   5.465   0.551  0.1150  0.1621  0.0857
  101MOL    C4324243   7.477   5.575   0.641 -0.1300  0.0101  0.4630
  101MOL    H4424244   7.714   5.192   0.572 -2.9685 -0.6130  1.5617
  101MOL    H4524245   7.710   5.289   0.451  1.2086 -0.9335  0.5311
  101MOL    H4624246   7.462   5.143   0.560  1.1136  2.3472  4.0425
  101MOL    H4724247   7.568   5.588   0.700  0.2824  0.4751 -0.2684
  101MOL    H4824248   7.398   5.549   0.711  1.2586 -1.0737  1.6798
  101MOL    H4924249   7.467   5.671   0.590  0.1712  0.2548  0.8573
  101MOL    C5024250   7.441   5.255   0.368 -0.3435 -0.2185 -0.0535
  101MOL    C5124251   7.331   5.162   0.320  0.0355 -0.1458 -0.5950
  101MOL    C5224252   7.224   5.127   0.429  0.0604  0.2925  1.2720
  101MOL    O5324253   7.167   5.219   0.486  0.0380 -0.1331 -0.3371
  101MOL    O5424254   7.206   4.994   0.444  0.1200  0.1028 -0.0928
  101MOL    C5524255   7.108   4.940   0.532 -0.0687 -0.3233  0.5900
  101MOL    H5624256   7.385   5.347   0.385 -0.8804 -1.0184  2.6766
  101MOL    H5724257   7.519   5.276   0.294  0.9526 -1.5055  0.9141
  101MOL    H5824258   7.374   5.064   0.302  0.3036 -0.4875  1.7454
  101MOL    H5924259   7.095   5.009   0.615 -2.9736  1.8870 -1.5758
  101MOL    H6024260   7.134   4.844   0.577  0.7641 -2.0030 -3.1937
  101MOL    H6124261   7.006   4.944   0.493  0.7890 -0.1738 -1.7053
  101MOL    C6224262   7.253   5.216   0.200  0.2523 -0.5323  0.4376
  101MOL    C6324263   7.327   5.217   0.065 -0.2611  0.2250 -0.2107
  101MOL    C6424264   7.360   5.066   0.028  0.0126 -0.1108  0.8530
  101MOL    O6524265   7.272   5.004   7.896  0.4143  0.0971 -0.0071
  101MOL    O6624266   7.478   5.021   0.058 -0.3392 -0.6333  0.1337
  101MOL    C6724267   7.501   4.887   0.060  0.2287  0.6146  0.4994
  101MOL    H6824268   7.162   5.160   0.177 -0.3168  0.1817  0.9228
  101MOL    H6924269   7.230   5.322   0.211 -0.9121 -0.7404  0.1232
  101MOL    H7024270   7.424   5.264   0.075 -1.0821  1.3089  3.2018
  101MOL    H7124271   7.460   4.846   0.152  2.4026  1.0923  1.7127
  101MOL    H7224272   7.609   4.877   0.074  0.3284  1.6525  0.5602
  101MOL    H7324273   7.463   4.836   7.905  0.6429  0.2474  0.5317
  101MOL    C7424274   7.252   5.288   7.877  0.2846 -0.9392  0.0321
  101MOL    C7524275   7.261   5.447   7.881  0.7441 -0.4830  0.3567
  101MOL    C7624276   7.396   5.503   7.854 -0.2434 -1.0579  0.4267
  101MOL    O7724277   7.484   5.439   7.799 -0.2716 -0.1447 -0.0343
  101MOL    O7824278   7.403   5.630   7.895  0.5881  0.4324 -0.1817
  101MOL    C7924279   7.522   5.703   7.891  0.5963  0.1543  0.2229
  101MOL    H8024280   7.276   5.233   7.786  1.9764 -0.9388  0.4488
  101MOL    H8124281   7.145   5.270   7.885 -0.3034  2.7823  1.9203
  101MOL    H8224282   7.249   5.477   0.052 -1.6821  0.8527 -0.2702
  101MOL    H8324283   7.572   5.705   7.794  0.8426  1.2873  0.3693
  101MOL    H8424284   7.598   5.676   0.032  0.7887  2.5235  0.9272
  101MOL    H8524285   7.499   5.807   7.914 -0.5400  0.7038 -3.0560
  101MOL    C8624286   7.153   5.509   7.789  0.0243 -0.5923  0.6202
  101MOL    C8724287   7.026   5.562   7.854 -0.2393  0.6884 -0.5075
  101MOL    C8824288   7.041   5.711   7.868  0.0206 -0.3361  0.6601
  101MOL    O8924289   7.039   5.760   0.051 -0.6077 -0.0785 -0.7295
  101MOL    O9024290   7.044   5.781   7.753  0.3740  0.1360  0.1584
  101MOL    C9124291   7.048   5.920   7.749 -0.2249  0.2128 -0.7381
  101MOL    H9224292   7.191   5.593   7.731 -0.9236  0.1906  1.1129
  101MOL    H9324293   7.118   5.440   7.712  2.2072  1.3882 -2.2529
  101MOL    H9424294   7.020   5.525   0.024  0.4349  0.5462 -0.5155
  101MOL    H9524295   7.042   5.964   7.649  0.1998  1.6574 -0.1366
  101MOL    H9624296   7.137   5.959   7.799 -1.7109  0.0262  2.1739
  101MOL    H9724297   6.970   5.960   7.814 -0.6809 -0.5354 -0.8288
  101MOL    C9824298   6.894   5.518   7.793 -0.1311  0.3464 -0.3130
  101MOL    C9924299   6.840   5.375   7.827 -0.2604  0.0878 -0.0921
  101MOL   C10024300   6.808   5.362   0.044  0.2576  0.0697  0.0844
  101MOL   O10124301   6.700   5.386   0.095  0.1317  0.0913 -0.0026
  101MOL   O10224302   6.917   5.321   0.118 -0.6957  0.1711 -0.3904
  101MOL   C10324303   6.899   5.312   0.259  0.3326  0.5564 -0.0213
  101MOL   H10424304   6.810   5.582   7.820 -1.6773 -2.2952  1.3529
  101MOL   H10524305   6.902   5.527   7.685 -1.7742 -1.3112 -0.5963
  101MOL   H10624306   6.916   5.299   7.813  1.3054  1.7277 -0.6408
  101MOL   H10724307   6.981   5.248   0.293 -0.7126 -1.1800 -0.6974
  101MOL   H10824308   6.809   5.256   0.284  1.0919 -1.1951 -1.0613
  101MOL   H10924309   6.906   5.399   0.323  1.9234 -0.5420  1.3413
  101MOL   C11024310   6.714   5.335   7.747 -0.3827 -0.3935 -0.4451
  101MOL   C11124311   6.735   5.279   7.609 -0.6247  0.1000  0.0168
  101MOL   C11224312   6.800   5.138   7.626 -0.4774 -0.2734 -0.5088
  101MOL   O11324313   6.736   5.049   7.684  0.0792  0.3794  0.5155
  101MOL   O11424314   6.927   5.139   7.582 -0.0598 -0.1439  0.7027
  101MOL   C11524315   7.004   5.023   7.609  0.5657 -0.4229 -1.0581
  101MOL   H11624316   6.664   5.257   7.804 -1.6635  0.3098 -0.5772
  101MOL   H11724317   6.632   5.408   7.743 -1.4774 -1.5515  0.4201
  101MOL   H11824318   6.797   5.346   7.549 -2.2542  1.8178  0.1905
  101MOL   H11924319   7.043   5.024   7.710 -2.0684  0.5690 -0.0093
  101MOL   H12024320   7.088   5.005   7.541  0.5126 -0.4901 -1.1043
  101MOL   H12124321   6.940   4.935   7.603  1.3082 -0.9839 -0.8957
  101MOL   C12224322   6.599   5.270   7.537  0.3735 -0.3947 -0.1265
  101MOL   C12324323   6.561   5.397   7.454 -0.1344  0.6042 -0.4442
  101MOL   C12424324   6.648   5.439   7.339 -0.5151 -0.2799  0.5283
  101MOL   O12524325   6.739   5.370   7.292  0.2321 -0.7245 -0.4434
  101MOL   O12624326   6.619   5.565   7.304  0.0676 -0.9101 -0.2306
  101MOL   C12724327   6.691   5.623   7.199  0.3898 -0.2443 -0.1991
  101MOL   H12824328   6.591   5.183   7.471 -2.7124 -0.9279  0.8764
  101MOL   H12924329   6.518   5.260   7.608 -1.2380  0.5394 -1.7797
  101MOL   H13024330   6.592   5.468   7.531 -0.3217  3.0675 -2.5382
  101MOL   H13124331   6.700   5.554   7.115 -1.7597  0.2112 -0.8391
  101MOL   H13224332   6.781   5.660   7.249  0.9175  1.0789 -2.0740
  101MOL   H13324333   6.641   5.712   7.162 -0.6217 -0.3391  0.9052
  101MOL   C13424334   6.404   5.417   7.441  0.0605 -0.6096 -0.0059
  101MOL   C13524335   6.334   5.343   7.325 -0.2714  0.4730 -0.1577
  101MOL   C13624336   6.360   5.190   7.339 -0.0511  0.5884  0.6270
  101MOL   O13724337   6.432   5.129   7.261 -0.2235  0.8522  0.6993
  101MOL   O13824338   6.312   5.142   7.450 -0.3914 -0.9413 -0.0439
  101MOL   C13924339   6.354   5.011   7.484 -0.2783  0.3255 -0.8941
  101MOL   H14024340   6.360   5.375   7.531  1.3169 -0.8255  0.5025
  101MOL   H14124341   6.385   5.524   7.452  2.6621 -0.3436  2.2350
  101MOL   H14224342   6.374   5.371   7.227 -0.9550  2.1233  0.0059
  101MOL   H14324343   6.281   4.945   7.439 -0.2979 -0.9056  0.9192
  101MOL   H14424344   6.344   4.993   7.591  1.5000 -1.1853 -0.9570
  101MOL   H14524345   6.457   4.990   7.457 -0.4699  0.7223 -1.9580
  101MOL   C14624346   6.177   5.371   7.330 -0.3384 -0.3003  0.0429
  101MOL   C14724347   6.145   5.517   7.282 -0.6449  0.0033 -0.1355
  101MOL   C14824348   6.166   5.532   7.127 -0.1100  0.5543 -0.0505
  101MOL   O14924349   6.259   5.599   7.083  0.2366  0.1039  0.0208
  101MOL   O15024350   6.084   5.451   7.055  0.4544 -0.3350  0.0985
  101MOL   C15124351   6.130   5.425   6.923 -0.2580  0.0969  0.1288
  101MOL   H15224352   6.117   5.296   7.279 -0.8669  0.7318 -0.8775
  101MOL   H15324353   6.145   5.357   7.432  0.4180 -0.9168  0.2021
  101MOL   H15424354   6.216   5.591   7.318  0.0137  0.2665 -1.9171
  101MOL   H15524355   6.234   5.396   6.931 -0.3679 -0.5998 -0.8828
  101MOL   H15624356   6.123   5.505   6.849  1.0160  0.2703  0.1824
  101MOL   H15724357   6.081   5.330   6.902  0.1810 -0.0467 -0.2305
  101MOL   C15824358   5.995   5.551   7.313 -0.2595 -0.3224 -0.0903
  101MOL   C15924359   5.942   5.531   7.461 -1.3937 -0.2798  0.6177
  101MOL   C16024360   6.028   5.608   7.570 -0.2694 -0.8982 -1.5649
  101MOL   O16124361   6.100   5.703   7.539 -0.1831 -0.3446 -0.0431
  101MOL   O16224362   6.013   5.558   7.696  0.2142  0.6696  0.0851
  101MOL   C16324363   6.074   5.615   7.811  0.0937  0.3031  0.2739
  101MOL   H16424364   5.975   5.654   7.284  2.0745 -0.1755 -1.3631
  101MOL   H16524365   5.939   5.481   7.250  0.1999 -1.5108  0.8043
  101MOL   H16624366   5.967   5.427   7.481  0.3856  0.3547  1.7426
  101MOL   H16724367   6.172   5.571   7.829  0.0042 -0.2012 -0.4615
  101MOL   H16824368   6.007   5.586   7.893 -0.4518  1.7665  0.3654
  101MOL   H16924369   6.091   5.723   7.804 -1.4282  0.4459 -1.7220
  101MOL   C17024370   5.791   5.529   7.476 -0.0967  0.5101  0.1203
  101MOL   C17124371   5.744   5.422   7.584 -0.2391 -0.5141  0.0832
  101MOL   C17224372   5.682   5.492   7.706 -0.5714  0.8168 -0.8975
  101MOL   O17324373   5.737   5.503   7.817  0.5125  0.5565 -0.2321
  101MOL   O17424374   5.557   5.536   7.688 -0.0938  0.1128 -0.0923
  101MOL   C17524375   5.484   5.587   7.796  0.7448 -0.4212 -0.3961
  101MOL   H17624376   5.762   5.630   7.506  2.3469  1.7667 -1.6362
  101MOL   H17724377   5.741   5.504   7.383 -0.8561  1.9798  0.1116
  101MOL   H17824378   5.834   5.377   7.627 -0.4597 -1.8937 -0.8550
  101MOL   H17924379   5.538   5.661   7.855 -1.1100  0.6888 -0.0427
  101MOL   H18024380   5.453   5.517   7.874 -2.4734  2.5821  1.1832
  101MOL   H18124381   5.401   5.649   7.763  1.2243 -0.1073 -1.0249
  101MOL   C18224382   5.660   5.299   7.524  0.5575  0.0612  0.1799
  101MOL   C18324383   5.718   5.226   7.395 -0.8098  1.3971  0.2468
  101MOL   C18424384   5.833   5.137   7.427  0.2186 -0.4040 -0.2386
  101MOL   O18524385   5.937   5.142   7.359  0.3550 -0.0959  0.0136
  101MOL   O18624386   5.811   5.039   7.520 -0.0616 -0.3969  0.5595
  101MOL   C18724387   5.926   4.964   7.572 -0.4769 -0.4767 -0.0898
  101MOL   H18824388   5.637   5.229   7.604 -0.5409 -0.7179 -0.7969
  101MOL   H18924389   5.566   5.348   7.494  1.0044  0.2020 -1.0430
  101MOL   H19024390   5.749   5.298   7.319  2.5862  0.7845  0.9856
  101MOL   H19124391   5.966   4.897   7.497  0.2508 -1.0757  0.8237
  101MOL   H19224392   5.900   4.909   7.662 -0.3365  0.8517  0.7855
  101MOL   H19324393   6.015   5.023   7.592  0.7774 -1.8785 -1.5120
  101MOL   C19424394   5.606   5.137   7.323  0.7452 -0.4045  0.3098
  101MOL   C19524395   5.666   5.074   7.187  0.1122 -0.1798  0.3784
  101MOL   C19624396   5.583   4.946   7.178 -0.0840  0.0733  0.1793
  101MOL   O19724397   5.496   4.935   7.088 -0.0543  0.2707 -0.5513
  101MOL   O19824398   5.604   4.848   7.276 -0.1419  0.4953 -0.3073
  101MOL   C19924399   5.515   4.741   7.277 -0.1806 -0.0917  0.0687
  101MOL   H20024400   5.570   5.068   7.399 -0.6419  2.4127  2.3093
  101MOL   H20124401   5.524   5.207   7.306  1.9344  0.4799 -2.0334
  101MOL   H20224402   5.768   5.034   7.193 -0.2471 -0.8626  2.1466
  101MOL   H20324403   5.522   4.681   7.186  0.3459  1.0374 -0.6409
  101MOL   H20424404   5.411   4.767   7.295 -0.2175 -0.7438  0.8268
  101MOL   H20524405   5.539   4.680   7.364 -0.5790  1.4324  1.2578
  101MOL   C20624406   5.648   5.169   7.059 -0.7207 -0.2256 -0.6009
  101MOL   C20724407   5.718   5.118   6.927 -0.5802  0.3577  0.0185
  101MOL   C20824408   5.648   5.181   6.806 -0.7991 -0.3935  0.1171
  101MOL   O20924409   5.607   5.300   6.800 -0.5107  1.1054  0.3909
  101MOL   O21024410   5.643   5.095   6.701  0.1156  0.0950  0.1806
  101MOL   C21124411   5.597   5.151   6.580  0.2621  0.3573  0.4390
  101MOL   H21224412   5.542   5.186   7.039 -0.1416  2.5621 -1.4008
  101MOL   H21324413   5.678   5.269   7.088  0.7551 -0.9064  0.2784
  101MOL   H21424414   5.691   5.012   6.935 -0.5321  0.3913  0.6483
  101MOL   H21524415   5.563   5.081   6.504  1.8300  1.2253 -1.0895
  101MOL   H21624416   5.677   5.208   6.533  0.6085 -1.3848 -1.1369
  101MOL   H21724417   5.516   5.221   6.602 -0.3163  0.0116 -0.5738
  101MOL   C21824418   5.868   5.137   6.930 -0.5233 -0.2741 -0.5146
  101MOL   C21924419   5.939   5.046   6.832 -0.1273  0.2446 -0.1359
  101MOL   C22024420   6.090   5.078   6.820  0.3765  0.2805  0.4539
  101MOL   O22124421   6.143   5.105   6.712 -0.2679 -0.2955  0.1693
  101MOL   O22224422   6.153   5.083   6.936  0.1805 -0.8874  0.0617
  101MOL   C22324423   6.299   5.080   6.934  0.0377 -0.0094 -0.0067
  101MOL   H22424424   5.879   5.244   6.913 -1.4896  0.3859  2.7394
  101MOL   H22524425   5.900   5.117   7.032  0.0291  2.7763 -0.0476
  101MOL   H22624426   5.906   5.088   6.737  0.0803  0.7631  0.0202
  101MOL   H22724427   6.326   5.002   7.007  0.3799 -0.9577 -1.1302
  101MOL   H22824428   6.348   5.175   6.955  1.7363 -0.6390 -1.0094
  101MOL   H22924429   6.339   5.051   6.837 -0.1728  0.6979 -0.3014
  101MOL   C23024430   5.905   4.894   6.829  0.3223  0.3853  0.7015
  101MOL   C23124431   5.922   4.835   6.966  0.1536  0.2937  0.5074
  101MOL   C23224432   5.971   4.696   6.960  0.0127 -0.0369 -0.4195
  101MOL   O23324433   5.900   4.602   6.958 -0.4982 -0.0290  0.7151
  101MOL   O23424434   6.109   4.692   6.952 -0.9036 -0.1488 -0.4351
  101MOL   C23524435   6.172   4.568   6.929  1.0156 -0.2735  0.3731
  101MOL   H23624436   5.805   4.876   6.791  1.4256 -1.7897 -1.3446
  101MOL   H23724437   5.968   4.851   6.751 -0.5674 -0.0721  0.2341
  101MOL   H23824438   5.832   4.841   7.027  0.1330  1.7561  0.3577
  101MOL   H23924439   6.154   4.486   6.999  1.2908 -0.3047  0.4058
  101MOL   H24024440   6.280   4.561   6.916  0.6374  0.3595 -3.7450
  101MOL   H24124441   6.116   4.542   6.838  2.1989  0.5229 -0.5943
  101MOL   H24224442   6.001   4.885   7.023 -0.0983 -0.7397  1.7856
  102MOL     C124443   3.310   5.584   6.354  0.7972 -0.1996 -0.4514
  102MOL     C224444   3.176   5.651   6.396 -0.2801 -0.1147 -0.2349
  102MOL     C324445   3.127   5.595   6.536  0.1628  0.0390  0.6571
  102MOL     O424446   3.152   5.646   6.643 -0.0355  0.0274  0.0428
  102MOL     O524447   3.063   5.481   6.510 -0.2648  0.2216 -0.1888
  102MOL     C624448   3.010   5.402   6.612  0.6729  0.1208  0.2707
  102MOL     H724449   3.298   5.482   6.390  2.9132 -0.6392 -0.8911
  102MOL     H824450   3.403   5.616   6.401  1.5902 -2.8720 -0.1513
  102MOL     H924451   3.112   5.619   6.314  0.3454 -1.7072 -0.1122
  102MOL    H1024452   3.024   5.300   6.575 -0.3616  1.1562 -3.1437
  102MOL    H1124453   2.903   5.412   6.624  0.3573 -1.7971 -0.6464
  102MOL    H1224454   3.058   5.411   6.709 -1.6211 -3.1299  1.7742
  102MOL    H1324455   3.322   5.583   6.246  0.4849  1.6082 -0.5203
  102MOL    C1424456   3.170   5.809   6.409 -0.8433 -0.9364  0.4482
  102MOL    C1524457   3.032   5.888   6.423  0.4397  0.1067 -0.2734
  102MOL    C1624458   3.053   6.038   6.451  0.5943 -0.1254 -0.0355
  102MOL    O1724459   3.069   6.122   6.364  0.1324  0.1902  0.6003
  102MOL    O1824460   3.078   6.066   6.576  0.1780  0.1435  0.3622
  102MOL    C1924461   3.099   6.197   6.614  0.1217  1.1438 -0.2417
  102MOL    H2024462   3.232   5.848   6.490  2.2604 -3.3832 -0.6578
  102MOL    H2124463   3.221   5.837   6.317 -0.8584 -0.1093  0.6864
  102MOL    H2224464   2.990   5.840   6.512 -2.4537  0.3239 -1.4624
  102MOL    H2324465   3.191   6.239   6.574 -0.3748  3.3866  0.8660
  102MOL    H2424466   3.117   6.210   6.721  2.0645  1.9797 -0.6625
  102MOL    H2524467   3.010   6.255   6.591 -1.3680 -1.6186 -1.6703
  102MOL    C2624468   2.947   5.856   6.295 -0.0550 -0.0648 -0.1018
  102MOL    C2724469   2.808   5.936   6.286  0.0730  0.3717  0.1883
  102MOL    C2824470   2.816   6.066   6.193  0.9153  0.4678  0.0913
  102MOL    O2924471   2.788   6.183   6.226  0.1206  0.2723  0.0960
  102MOL    O3024472   2.855   6.034   6.066 -0.4461  0.1928  0.2934
  102MOL    C3124473   2.857   6.139   5.974  0.1187  0.6956  0.6102
  102MOL    H3224474   3.010   5.879   6.209  0.9169  0.2900  0.6919
  102MOL    H3324475   2.941   5.748   6.290 -0.3284  0.0042 -1.4692
  102MOL    H3424476   2.783   5.960   6.389  0.0877 -0.2546  0.3400
  102MOL    H3524477   2.757   6.182   5.974 -0.3099 -0.2725 -0.1182
  102MOL    H3624478   2.898   6.117   5.876  2.6455  1.6285  1.4091
  102MOL    H3724479   2.926   6.213   6.016  2.9464 -2.2024  1.2767
  102MOL    C3824480   2.690   5.841   6.237 -0.1811 -1.0490 -0.3101
  102MOL    C3924481   2.553   5.905   6.228 -0.4226  0.0165  0.3009
  102MOL    C4024482   2.454   5.805   6.159  0.1698 -0.2973  0.6310
  102MOL    O4124483   2.476   5.684   6.165  0.0410  0.4127 -0.0496
  102MOL    O4224484   2.356   5.859   6.090 -0.2755  0.0279 -0.4166
  102MOL    C4324485   2.261   5.776   6.032  0.0630  0.5523 -0.7011
  102MOL    H4424486   2.718   5.801   6.139  0.0857 -3.8493  0.8702
  102MOL    H4524487   2.681   5.753   6.301 -3.3826  1.4723  2.9015
  102MOL    H4624488   2.554   5.996   6.168 -0.3133  0.6361  1.2302
  102MOL    H4724489   2.211   5.728   6.117  2.6007  0.2444  0.6453
  102MOL    H4824490   2.299   5.703   5.961 -0.0683 -1.6886  1.4507
  102MOL    H4924491   2.200   5.841   5.969 -1.9459 -2.3901 -1.9291
  102MOL    C5024492   2.497   5.960   6.361  0.0449 -0.1799  0.2002
  102MOL    C5124493   2.358   6.040   6.353 -0.2629  0.0263 -0.2384
  102MOL    C5224494   2.304   6.058   6.495  0.0038  0.3824  0.1104
  102MOL    O5324495   2.369   6.029   6.590 -0.9440  0.1283 -0.2546
  102MOL    O5424496   2.186   6.117   6.501  0.2228 -0.3587 -0.1448
  102MOL    C5524497   2.129   6.139   6.623 -0.1504 -0.1099 -0.2499
  102MOL    H5624498   2.469   5.869   6.414  0.6511 -0.3950  0.1538
  102MOL    H5724499   2.578   6.008   6.414 -0.0479  0.1036  0.0860
  102MOL    H5824500   2.291   5.973   6.300  0.9032 -0.6241 -0.9289
  102MOL    H5924501   2.184   6.228   6.656 -1.5986 -0.1364  2.3716
  102MOL    H6024502   2.149   6.061   6.696 -1.0140  1.2699  1.4986
  102MOL    H6124503   2.023   6.163   6.615  0.1075  0.9424 -0.7251
  102MOL    C6224504   2.375   6.177   6.282  0.1016  0.1554  0.1666
  102MOL    C6324505   2.299   6.194   6.155 -0.0227  0.0410  0.3310
  102MOL    C6424506   2.149   6.213   6.182  0.1781 -0.5068  0.4927
  102MOL    O6524507   2.073   6.122   6.149  0.4697 -0.1458  0.2398
  102MOL    O6624508   2.112   6.321   6.255 -0.1806  0.1372 -0.0440
  102MOL    C6724509   1.977   6.340   6.274 -0.3778 -0.2212 -0.5365
  102MOL    H6824510   2.331   6.259   6.338  2.4143  0.4159  1.6685
  102MOL    H6924511   2.478   6.205   6.261 -0.2376  1.2560 -0.0369
  102MOL    H7024512   2.297   6.104   6.094 -3.7123  2.6737 -3.7259
  102MOL    H7124513   1.931   6.257   6.326 -2.5110  2.7552  2.4918
  102MOL    H7224514   1.924   6.354   6.179 -2.7278  0.6606  0.8754
  102MOL    H7324515   1.945   6.422   6.337  2.0101  1.0946 -0.9567
  102MOL    C7424516   2.358   6.298   6.059 -0.2155 -0.5864 -0.8104
  102MOL    C7524517   2.480   6.271   5.970  0.3052  0.8132 -0.4382
  102MOL    C7624518   2.477   6.136   5.892  0.0892 -0.6255 -0.4688
  102MOL    O7724519   2.563   6.045   5.912  0.5241  0.4265  0.3913
  102MOL    O7824520   2.372   6.118   5.804  0.9707 -0.1851  0.1626
  102MOL    C7924521   2.362   5.996   5.737 -0.4065  0.5934  0.3549
  102MOL    H8024522   2.269   6.322   6.000 -0.8000 -0.7623 -0.0117
  102MOL    H8124523   2.357   6.397   6.106 -1.1153 -0.8606 -0.2328
  102MOL    H8224524   2.561   6.269   6.042 -0.6758 -1.3107  0.6396
  102MOL    H8324525   2.261   5.978   5.700 -0.0228  0.7065 -0.7451
  102MOL    H8424526   2.392   5.913   5.801  0.8880 -0.1423 -1.1940
  102MOL    H8524527   2.421   6.008   5.647  0.7548  0.2216  1.0627
  102MOL    C8624528   2.490   6.389   5.871 -0.1031 -0.0562  0.1150
  102MOL    C8724529   2.539   6.528   5.906 -0.0650 -0.5654 -0.5083
  102MOL    C8824530   2.657   6.529   6.007 -1.0879 -0.2152  0.0966
  102MOL    O8924531   2.636   6.543   6.123  0.1420  0.0588 -0.2872
  102MOL    O9024532   2.785   6.514   5.952  0.5224  0.3663 -0.0765
  102MOL    C9124533   2.890   6.538   6.045 -0.7159 -0.2726 -0.5843
  102MOL    H9224534   2.548   6.354   5.785 -0.5240 -2.2973  0.7086
  102MOL    H9324535   2.395   6.398   5.817  0.9324  0.0398 -1.7555
  102MOL    H9424536   2.457   6.563   5.969  0.5578 -0.1100  0.0662
  102MOL    H9524537   2.887   6.483   6.139 -2.3645  1.6339  0.5073
  102MOL    H9624538   2.896   6.644   6.071  1.1299 -1.0319  2.3804
  102MOL    H9724539   2.989   6.519   6.003 -0.9094 -1.3720 -0.5482
  102MOL    C9824540   2.552   6.639   5.800 -0.4522 -0.0351  0.4609
  102MOL    C9924541   2.643   6.611   5.675  0.2031 -0.2959  0.9176
  102MOL   C10024542   2.599   6.490   5.592 -0.3667 -0.3148  0.0847
  102MOL   O10124543   2.664   6.388   5.573  0.8641 -0.0120  0.2847
  102MOL   O10224544   2.484   6.520   5.525 -0.0102 -0.0790  0.3285
  102MOL   C10324545   2.468   6.442   5.407 -0.1197  0.1406 -0.5336
  102MOL   H10424546   2.450   6.669   5.774 -1.2715 -0.9803  2.4935
  102MOL   H10524547   2.602   6.722   5.850  0.1490  0.4938 -0.9806
  102MOL   H10624548   2.740   6.578   5.712  0.1106 -2.0065 -0.3014
  102MOL   H10724549   2.387   6.480   5.345 -0.4849 -0.9920 -0.7791
  102MOL   H10824550   2.456   6.335   5.425 -1.1315  0.0972 -1.3822
  102MOL   H10924551   2.556   6.448   5.343 -0.0118 -0.1233 -0.4132
  102MOL   C11024552   2.649   6.743   5.582  0.1929 -0.3456 -0.9238
  102MOL   C11124553   2.719   6.861   5.648  0.3192  0.2829  0.9237
  102MOL   C11224554   2.856   6.836   5.708 -0.0821 -0.2188  0.2064
  102MOL   O11324555   2.880   6.840   5.829  0.7046 -0.2617  0.4302
  102MOL   O11424556   2.953   6.809   5.612 -0.7599  0.8176  0.2187
  102MOL   C11524557   3.085   6.790   5.653 -0.0718 -0.2547 -0.0998
  102MOL   H11624558   2.701   6.715   5.490  2.9846 -0.9487  0.7894
  102MOL   H11724559   2.550   6.773   5.547  0.9946  0.3374 -2.6697
  102MOL   H11824560   2.657   6.881   5.736 -0.3657 -0.8815  0.7128
  102MOL   H11924561   3.109   6.876   5.716  1.7847 -1.1721  0.4585
  102MOL   H12024562   3.153   6.779   5.568  1.3572  0.2836  0.9659
  102MOL   H12124563   3.101   6.706   5.720 -1.8154 -3.3606 -3.4034
  102MOL   C12224564   2.722   6.985   5.561  0.8794  0.0696  0.4291
  102MOL   C12324565   2.791   7.110   5.630  0.1209 -0.3607  0.4246
  102MOL   C12424566   2.816   7.219   5.531 -0.5469  0.3837 -0.7375
  102MOL   O12524567   2.919   7.286   5.518  0.5086 -0.0194 -0.0626
  102MOL   O12624568   2.711   7.222   5.448 -0.0802  0.0377  0.1693
  102MOL   C12724569   2.715   7.312   5.336  0.1437  0.1582  0.4773
  102MOL   H12824570   2.777   6.950   5.473 -1.0631  0.6257 -1.0479
  102MOL   H12924571   2.626   7.011   5.517 -0.3995 -2.9606  1.3377
  102MOL   H13024572   2.893   7.085   5.657  0.1388 -1.1338 -0.3254
  102MOL   H13124573   2.651   7.281   5.254  0.0746  1.1568  0.1424
  102MOL   H13224574   2.813   7.324   5.290 -0.5998  1.7698 -0.7513
  102MOL   H13324575   2.692   7.415   5.363 -0.5728  0.6829 -2.0147
  102MOL   C13424576   2.713   7.163   5.754 -0.0296 -0.8006 -0.6589
  102MOL   C13524577   2.768   7.294   5.831 -0.0123  0.0311 -0.6835
  102MOL   C13624578   2.679   7.323   5.959  0.1258 -0.3992 -0.2288
  102MOL   O13724579   2.726   7.329   6.074 -0.0246  0.1402 -0.1259
  102MOL   O13824580   2.550   7.332   5.926 -0.6838  0.2880  0.1183
  102MOL   C13924581   2.449   7.351   6.016  0.1884 -0.0522 -0.4280
  102MOL   H14024582   2.608   7.173   5.727 -0.0504 -2.9033 -1.4182
  102MOL   H14124583   2.715   7.082   5.827 -1.6005 -1.7650 -1.6565
  102MOL   H14224584   2.753   7.382   5.770  4.3288  0.9898 -0.5230
  102MOL   H14324585   2.481   7.426   6.089  1.5193 -0.2992 -0.7403
  102MOL   H14424586   2.432   7.258   6.071  2.8547  0.9454  2.2425
  102MOL   H14524587   2.357   7.388   5.970  1.1998  0.1227 -2.3703
  102MOL   C14624588   2.918   7.278   5.864  0.4374 -0.1121  0.6709
  102MOL   C14724589   2.998   7.400   5.912 -0.6596 -0.2435 -0.0483
  102MOL   C14824590   3.138   7.364   5.965  0.2219  0.2069  0.7356
  102MOL   O14924591   3.151   7.354   6.088  0.3538  0.1103  0.0011
  102MOL   O15024592   3.234   7.343   5.865 -0.6933  0.5385 -0.1075
  102MOL   C15124593   3.364   7.325   5.914 -0.1455 -0.2057  0.8365
  102MOL   H15224594   2.909   7.210   5.949  1.5171 -1.5693 -0.3485
  102MOL   H15324595   2.978   7.221   5.792 -0.0066  1.5031 -1.0117
  102MOL   H15424596   2.942   7.436   5.999  1.1093  0.4762  0.8212
  102MOL   H15524597   3.365   7.242   5.985 -0.2354  2.7195  4.4147
  102MOL   H15624598   3.387   7.405   5.984  0.6170  0.1709  0.1552
  102MOL   H15724599   3.432   7.306   5.832 -1.7389 -0.7505 -0.3795
  102MOL   C15824600   3.024   7.502   5.802  0.4614 -0.2760 -0.2228
  102MOL   C15924601   2.964   7.645   5.812 -0.4185 -0.1034  0.2260
  102MOL   C16024602   2.902   7.681   5.949  0.6433 -0.7335  0.3577
  102MOL   O16124603   2.970   7.716   6.045 -0.0799 -0.2087  0.0637
  102MOL   O16224604   2.769   7.666   5.941  0.5516  0.6029  0.5257
  102MOL   C16324605   2.687   7.696   6.051 -0.6045  0.5421 -0.2060
  102MOL   H16424606   3.127   7.528   5.778  0.6443  0.6662  1.5200
  102MOL   H16524607   2.994   7.463   5.705  0.9510 -1.9307  0.2831
  102MOL   H16624608   2.876   7.633   5.749 -1.4248 -1.7316  1.8913
  102MOL   H16724609   2.734   7.712   6.148  1.5499  1.9812 -1.4560
  102MOL   H16824610   2.606   7.622   6.054 -0.5989  0.5052 -0.8107
  102MOL   H16924611   2.637   7.789   6.026 -0.2407  0.6802 -0.4146
  102MOL   C17024612   3.071   7.763   5.771  0.3698  0.5283 -0.1915
  102MOL   C17124613   3.001   7.891   5.731 -0.4442  0.6142  0.3554
  102MOL   C17224614   3.102   0.074   5.721 -0.1049  0.1026 -0.1703
  102MOL   O17324615   3.211   0.069   5.663 -0.0716  0.0528  0.0851
  102MOL   O17424616   3.062   0.181   5.790  0.1228  0.1403 -0.1979
  102MOL   C17524617   3.152   0.276   5.828  0.3838 -0.5234  0.8761
  102MOL   H17624618   3.139   7.782   5.853 -0.8527  1.3817  0.6430
  102MOL   H17724619   3.114   7.726   5.677 -1.7211  0.1685 -1.0353
  102MOL   H17824620   2.925   7.910   5.808 -0.8607  1.6881 -0.3026
  102MOL   H17924621   3.218   0.242   5.908  3.9090  0.7283 -1.3751
  102MOL   H18024622   3.098   0.365   5.861  2.1026  1.1421 -0.7240
  102MOL   H18124623   3.215   0.319   5.750  0.5603 -1.0294  0.7354
  102MOL   C18224624   2.918   7.887   5.600  0.2367 -0.3878 -0.1203
  102MOL   C18324625   2.860   0.092   5.542  0.4465  1.0246 -0.1707
  102MOL   C18424626   2.956   0.146   5.435 -0.3033 -0.1044 -0.1587
  102MOL   O18524627   3.015   0.255   5.456  0.2390 -0.3323  0.5434
  102MOL   O18624628   2.961   0.073   5.319 -0.1464 -0.4938 -0.6393
  102MOL   C18724629   3.053   0.120   5.220  0.5049 -0.2716 -0.0597
  102MOL   H18824630   2.964   7.842   5.512  0.8715  0.3568 -0.1774
  102MOL   H18924631   2.847   7.806   5.617  0.7561 -0.4195  1.9932
  102MOL   H19024632   2.856   0.164   5.624 -0.8166 -1.4116  1.9750
  102MOL   H19124633   3.139   0.174   5.258  0.3923 -0.4833  0.4959
  102MOL   H19224634   2.999   0.186   5.152  2.1271 -0.5028 -1.6197
  102MOL   H19324635   3.066   0.034   5.154  0.3127 -0.4720  0.1611
  102MOL   C19424636   2.724   0.075   5.466 -0.3331  0.4392 -0.5430
  102MOL   C19524637   2.598   0.082   5.546 -0.3731 -0.4597 -0.0615
  102MOL   C19624638   2.485   0.097   5.439  0.2523 -0.0524 -0.2467
  102MOL   O19724639   2.417   0.005   5.395 -0.0352 -0.4474 -0.1981
  102MOL   O19824640   2.464   0.225   5.408  0.6101 -0.4602  0.0199
  102MOL   C19924641   2.378   0.264   5.301 -0.0389 -0.1406  0.0948
  102MOL   H20024642   2.720   0.164   5.402 -0.0291  2.3318  1.9911
  102MOL   H20124643   2.717   7.932   5.388 -2.3781  1.9552 -1.9016
  102MOL   H20224644   2.591   0.179   5.596 -2.6227 -0.3269 -0.5448
  102MOL   H20324645   2.343   0.181   5.239  3.5032 -0.8652 -1.0357
  102MOL   H20424646   2.415   0.346   5.241  2.3141 -2.1386 -1.2704
  102MOL   H20524647   2.292   0.313   5.347  0.3705 -1.5674  2.5044
  102MOL   C20624648   2.572   7.881   5.629 -0.1266  0.8159 -0.4984
  102MOL   C20724649   2.441   7.879   5.704 -0.2183  0.4077 -0.5484
  102MOL   C20824650   2.420   7.743   5.774 -0.1890 -0.0846  0.1754
  102MOL   O20924651   2.513   7.663   5.798 -0.1287  0.2691  0.1068
  102MOL   O21024652   2.295   7.731   5.820  0.0001 -0.2434 -0.5207
  102MOL   C21124653   2.251   7.616   5.891  0.6452 -0.4683 -0.3950
  102MOL   H21224654   2.589   7.793   5.567  0.5230  1.9342 -1.9713
  102MOL   H21324655   2.652   7.895   5.702  1.9343 -0.6272 -2.3919
  102MOL   H21424656   2.370   7.876   5.621 -0.5541 -0.9543 -0.2208
  102MOL   H21524657   2.317   7.586   5.973 -0.0434  0.9365  0.6880
  102MOL   H21624658   2.235   7.529   5.828 -0.9545 -2.5858  2.8073
  102MOL   H21724659   2.158   7.638   5.943  0.9102 -0.4479  0.0765
  102MOL   C21824660   2.401   0.076   5.782  0.5964 -0.0540 -0.2854
  102MOL   C21924661   2.475   0.096   5.917 -0.0600 -0.0169  0.6318
  102MOL   C22024662   2.602   0.174   5.888  0.0788 -0.0970 -0.1542
  102MOL   O22124663   2.708   0.129   5.907 -0.3668  0.0361 -0.0554
  102MOL   O22224664   2.589   0.290   5.842 -0.1596 -0.5712  0.5616
  102MOL   C22324665   2.708   0.367   5.822  0.1189 -0.0907  0.3559
  102MOL   H22424666   2.405   0.163   5.716  0.3537 -0.4939 -0.8896
  102MOL   H22524667   2.297   0.056   5.810  0.0623 -0.2219 -2.2979
  102MOL   H22624668   2.491   7.929   5.957  0.2268  0.2340  1.1366
  102MOL   H22724669   2.765   0.314   5.745  0.5681  0.2367  0.4579
  102MOL   H22824670   2.773   0.369   5.909  2.7152 -0.3054 -1.5018
  102MOL   H22924671   2.687   0.471   5.794  1.0606  0.0248  0.0304
  102MOL   C23024672   2.393   0.174   6.016 -0.6532  0.4285  0.2587
  102MOL   C23124673   2.294   0.085   6.091  0.6568  0.2092 -0.6568
  102MOL   C23224674   2.352   7.902   6.164  0.3364 -0.8577  0.5797
  102MOL   O23324675   2.314   7.786   6.152  0.4467 -0.6357  0.5513
  102MOL   O23424676   2.448   0.008   6.250  0.9407 -0.5998  0.0776
  102MOL   C23524677   2.504   7.842   6.339  0.4133 -0.2889  0.1606
  102MOL   H23624678   2.454   0.205   6.102 -0.0584  1.3353 -0.4797
  102MOL   H23724679   2.346   0.267   5.983 -2.4369 -0.5152  0.1347
  102MOL   H23824680   2.218   0.056   6.019 -0.4043  1.9020 -0.2402
  102MOL   H23924681   2.578   7.892   6.402  0.4747 -0.1673 -0.0043
  102MOL   H24024682   2.544   7.754   6.288 -0.0046  0.3337 -1.2774
  102MOL   H24124683   2.420   7.814   6.401  2.0327 -1.1457  2.0255
  102MOL   H24224684   2.243   0.150   6.162  0.1056 -0.6630 -0.2395
  103MOL     C124685   4.317   6.860   6.427 -0.2372  0.2621  0.8181
  103MOL     C224686   4.304   6.740   6.336 -0.4273 -0.4693  0.2941
  103MOL     C324687   4.156   6.700   6.339  0.0291 -0.0634  0.5565
  103MOL     O424688   4.080   6.710   6.243 -0.2851 -0.6809  0.2925
  103MOL     O524689   4.110   6.646   6.454  0.1454 -0.1263 -0.0365
  103MOL     C624690   3.972   6.601   6.460  0.2704  0.3113  0.1337
  103MOL     H724691   4.291   6.829   6.528 -1.0784 -0.0848  0.4999
  103MOL     H824692   4.247   6.941   6.407  0.3632  0.4170 -0.7353
  103MOL     H924693   4.353   6.654   6.383  1.1616  0.0450 -0.4016
  103MOL    H1024694   3.947   6.527   6.384 -0.3520  3.2319 -2.6166
  103MOL    H1124695   3.908   6.688   6.442  1.2967  1.0251 -0.1168
  103MOL    H1224696   3.942   6.560   6.556 -0.1757 -2.4892 -1.1517
  103MOL    H1324697   4.418   6.899   6.435 -0.0848 -0.2077  1.2053
  103MOL    C1424698   4.366   6.760   6.189 -0.3427  0.7345 -0.1664
  103MOL    C1524699   4.335   6.638   6.089 -0.4795 -0.0880 -0.2623
  103MOL    C1624700   4.411   6.672   5.961 -0.5964  0.7908 -1.0235
  103MOL    O1724701   4.528   6.701   5.972 -0.1938  0.1960  0.0534
  103MOL    O1824702   4.338   6.676   5.853  0.3465 -0.1927 -0.3468
  103MOL    C1924703   4.399   6.713   5.725  0.3798  0.4543 -0.0853
  103MOL    H2024704   4.321   6.851   6.150  2.2917  1.7609 -0.8966
  103MOL    H2124705   4.471   6.784   6.204 -0.0950 -0.9867  1.0260
  103MOL    H2224706   4.229   6.636   6.066 -0.7460 -0.9532  0.9159
  103MOL    H2324707   4.466   6.632   5.695  0.3488 -0.2600  1.7129
  103MOL    H2424708   4.452   6.807   5.713 -1.1597  1.2659 -0.5412
  103MOL    H2524709   4.323   6.712   5.647  2.0906 -1.6640 -1.8287
  103MOL    C2624710   4.380   6.497   6.136  0.1564  0.3602 -0.3499
  103MOL    C2724711   4.295   6.372   6.093 -0.1361  0.5261  0.1971
  103MOL    C2824712   4.309   6.340   5.945 -0.5275 -1.0344  0.5621
  103MOL    O2924713   4.418   6.297   5.902  0.8080 -0.1295 -0.3507
  103MOL    O3024714   4.203   6.351   5.880  0.2268 -0.3059  0.2269
  103MOL    C3124715   4.201   6.336   5.741 -0.0102 -0.0821  0.3533
  103MOL    H3224716   4.484   6.482   6.106  0.9036  0.9641  1.8603
  103MOL    H3324717   4.381   6.501   6.245  1.7317  0.7681 -0.3680
  103MOL    H3424718   4.188   6.392   6.103 -0.0484  0.8019  0.5966
  103MOL    H3524719   4.227   6.423   5.683  0.1589 -0.3078  0.0906
  103MOL    H3624720   4.101   6.307   5.709 -0.6651 -0.7473  2.8487
  103MOL    H3724721   4.265   6.251   5.719  0.2853  0.1862  0.1858
  103MOL    C3824722   4.327   6.252   6.177  0.5973 -0.1217  0.1308
  103MOL    C3924723   4.249   6.250   6.317  0.4428  0.9318 -0.6227
  103MOL    C4024724   4.098   6.224   6.294 -0.1518 -0.2536 -0.0771
  103MOL    O4124725   4.021   6.321   6.288  0.1143 -0.1321  0.1459
  103MOL    O4224726   4.068   6.087   6.274 -0.2004 -0.7575  0.2560
  103MOL    C4324727   3.941   6.049   6.264  0.4193 -0.3517 -0.4383
  103MOL    H4424728   4.297   6.164   6.119 -1.1156 -0.0420  0.8863
  103MOL    H4524729   4.435   6.253   6.195  0.3607 -0.9274  1.7026
  103MOL    H4624730   4.255   6.353   6.355 -0.8249  1.2025 -1.1433
  103MOL    H4724731   3.896   6.055   6.363 -1.5941  1.0646 -1.4054
  103MOL    H4824732   3.932   5.943   6.238 -2.4158 -1.2307  3.7460
  103MOL    H4924733   3.896   6.120   6.194  0.7943 -2.8512 -3.3687
  103MOL    C5024734   4.302   6.146   6.419  0.1443 -0.2315 -0.1765
  103MOL    C5124735   4.438   6.175   6.476  1.0092 -0.5727  0.4570
  103MOL    C5224736   4.439   6.313   6.542  0.5428  0.3730 -0.3630
  103MOL    O5324737   4.521   6.397   6.501  0.2310 -0.4976  0.2311
  103MOL    O5424738   4.344   6.323   6.638 -0.2365 -0.0978 -0.2575
  103MOL    C5524739   4.318   6.449   6.687 -0.0161 -0.0178  0.1355
  103MOL    H5624740   4.233   6.138   6.503  1.7897  0.4011  1.2628
  103MOL    H5724741   4.315   6.052   6.367  1.4811 -0.7124  0.9689
  103MOL    H5824742   4.501   6.187   6.388  0.2453 -2.4280 -0.3856
  103MOL    H5924743   4.414   6.497   6.707  1.0096 -2.4720  1.2207
  103MOL    H6024744   4.257   6.450   6.778  0.7022  0.9290  0.6176
  103MOL    H6124745   4.271   6.518   6.616 -0.5046 -1.1071 -0.6055
  103MOL    C6224746   4.509   6.065   6.559  0.2053  0.4294  0.0655
  103MOL    C6324747   4.657   6.087   6.604  0.2775  0.2181  0.6875
  103MOL    C6424748   4.676   6.051   6.746 -0.3824  0.1546  0.6143
  103MOL    O6524749   4.728   5.936   6.765  0.1750 -0.5991 -0.1842
  103MOL    O6624750   4.621   6.142   6.835  0.2744  0.2538  0.2902
  103MOL    C6724751   4.631   6.124   6.973 -0.0626  0.6627 -0.5483
  103MOL    H6824752   4.450   6.068   6.651  0.3785 -1.6341  0.2731
  103MOL    H6924753   4.504   5.967   6.512  1.3817  1.2081 -1.7466
  103MOL    H7024754   4.681   6.193   6.599  4.1414 -0.4540  2.9368
  103MOL    H7124755   4.720   6.173   7.014  1.1685 -0.3499 -1.9676
  103MOL    H7224756   4.646   6.018   6.992 -0.3903  0.8627  0.9063
  103MOL    H7324757   4.554   6.169   7.035 -0.4527  0.6325 -1.0038
  103MOL    C7424758   4.762   6.016   6.507  0.1858 -0.0744 -0.7468
  103MOL    C7524759   4.753   6.046   6.356  0.1619 -0.3850  0.0631
  103MOL    C7624760   4.808   6.185   6.328 -0.2516  0.0635  0.0803
  103MOL    O7724761   4.929   6.211   6.350 -0.3210 -0.0247 -0.0094
  103MOL    O7824762   4.716   6.277   6.301  0.1381  0.6267  0.0792
  103MOL    C7924763   4.759   6.405   6.254  0.4978  0.5949 -0.1212
  103MOL    H8024764   4.859   6.033   6.554  0.0892 -0.0328 -0.5611
  103MOL    H8124765   4.743   5.909   6.509  3.1835 -0.6348  1.4304
  103MOL    H8224766   4.648   6.037   6.329 -0.1980  1.0604  0.9184
  103MOL    H8324767   4.850   6.389   6.196  0.5433  0.1012  0.0774
  103MOL    H8424768   4.784   6.471   6.337 -0.2904 -0.5722  1.0674
  103MOL    H8524769   4.682   6.457   6.198 -0.6184  1.2866  2.0165
  103MOL    C8624770   4.832   5.941   6.271 -0.3787 -0.2204  0.1081
  103MOL    C8724771   4.749   5.823   6.217 -0.8678 -0.5497 -0.4411
  103MOL    C8824772   4.668   5.876   6.103  0.2345 -0.2524 -0.2058
  103MOL    O8924773   4.550   5.907   6.115  0.0927 -0.4626  0.3592
  103MOL    O9024774   4.738   5.889   5.988  0.3817  0.0493  0.3956
  103MOL    C9124775   4.678   5.955   5.880  0.5135 -0.1130  0.2071
  103MOL    H9224776   4.891   5.996   6.196 -0.7666 -0.6660 -0.5238
  103MOL    H9324777   4.908   5.903   6.339 -0.4068 -0.3226  0.0815
  103MOL    H9424778   4.677   5.789   6.291 -1.2759 -3.4743 -2.1156
  103MOL    H9524779   4.751   5.954   5.800  0.7320 -4.1131  0.3630
  103MOL    H9624780   4.645   6.056   5.907  0.9640  0.2186 -0.4544
  103MOL    H9724781   4.592   5.907   5.832  0.9945 -1.3734  0.6068
  103MOL    C9824782   4.837   5.700   6.190 -0.1628  0.3721  0.6665
  103MOL    C9924783   4.863   5.602   6.310  0.3053 -0.2768  0.4425
  103MOL   C10024784   4.983   5.636   6.403 -0.0561  0.2687 -0.1310
  103MOL   O10124785   4.969   5.649   6.519 -0.0885  0.4136  0.4293
  103MOL   O10224786   5.098   5.647   6.335  0.1809 -0.1468  0.4894
  103MOL   C10324787   5.203   5.712   6.397 -0.1270 -0.4515  0.1593
  103MOL   H10424788   4.790   5.641   6.111  0.5063  0.1875  0.3980
  103MOL   H10524789   4.936   5.732   6.157  0.4570 -0.1581  1.9612
  103MOL   H10624790   4.893   5.518   6.249  2.3519  0.7014  0.0362
  103MOL   H10724791   5.291   5.665   6.352 -0.6064  0.1675 -1.4841
  103MOL   H10824792   5.214   5.691   6.503  0.4672 -2.0110 -0.1918
  103MOL   H10924793   5.210   5.818   6.374  1.3229 -0.0982  2.1110
  103MOL   C11024794   4.737   5.562   6.379  0.2116 -0.2006 -1.1105
  103MOL   C11124795   4.746   5.425   6.450  0.3458 -0.0650 -0.2068
  103MOL   C11224796   4.711   5.447   6.601  0.3733  0.5733  0.2973
  103MOL   O11324797   4.607   5.492   6.642 -0.1115 -0.2598 -0.4897
  103MOL   O11424798   4.806   5.395   6.677 -0.5109 -0.3224 -0.0400
  103MOL   C11524799   4.790   5.388   6.814 -0.1334 -0.8498 -0.3502
  103MOL   H11624800   4.718   5.640   6.453  2.2360 -1.8751  1.2164
  103MOL   H11724801   4.652   5.569   6.311 -0.9581 -0.1702  0.3362
  103MOL   H11824802   4.846   5.384   6.436  0.4094  0.1043 -0.2450
  103MOL   H11924803   4.765   5.486   6.854 -1.9665 -0.7272 -1.7536
  103MOL   H12024804   4.878   5.340   6.856 -1.0965 -1.7917  0.6457
  103MOL   H12124805   4.707   5.326   6.849 -0.1280 -0.5486  0.1990
  103MOL   C12224806   4.651   5.310   6.401 -0.5688 -0.4681  0.6145
  103MOL   C12324807   4.677   5.270   6.247  0.3917 -0.1168  0.1783
  103MOL   C12424808   4.807   5.189   6.229  0.0168 -0.3887  0.9146
  103MOL   O12524809   4.879   5.164   6.326  0.1163  0.8410 -0.1404
  103MOL   O12624810   4.827   5.151   6.096 -0.2864  0.6812 -0.3795
  103MOL   C12724811   4.937   5.061   6.071  0.0611 -0.3074 -0.0657
  103MOL   H12824812   4.651   5.224   6.467 -2.3214  0.3950  1.7698
  103MOL   H12924813   4.549   5.348   6.402 -0.5815 -0.5167  1.3169
  103MOL   H13024814   4.693   5.361   6.190  1.1913 -1.5852 -1.9594
  103MOL   H13124815   4.996   5.055   6.163  0.8780 -0.0800 -0.5629
  103MOL   H13224816   4.988   5.102   5.984 -0.2837 -1.5761 -0.8723
  103MOL   H13324817   4.900   4.961   6.049  0.4612 -0.4478 -0.1201
  103MOL   C13424818   4.556   5.193   6.188 -0.1389  0.3955  0.4339
  103MOL   C13524819   4.527   5.047   6.230 -0.1873  0.5484  0.6277
  103MOL   C13624820   4.497   5.037   6.377  0.5611  0.1258 -0.3043
  103MOL   O13724821   4.419   5.112   6.434  0.6384 -0.0089 -0.8888
  103MOL   O13824822   4.552   4.930   6.437  0.3255  0.4482  0.7025
  103MOL   C13924823   4.545   4.912   6.583  0.8237 -0.1397 -0.0880
  103MOL   H14024824   4.465   5.251   6.196  0.8169  1.6611  2.7226
  103MOL   H14124825   4.574   5.184   6.081  0.1996  1.6761  0.3720
  103MOL   H14224826   4.622   4.996   6.215 -0.0780  0.5613  1.2301
  103MOL   H14324827   4.454   4.855   6.599 -0.1374  1.6146  0.8944
  103MOL   H14424828   4.540   5.003   6.643 -1.8225 -1.0669  1.1697
  103MOL   H14524829   4.629   4.851   6.615 -0.0042 -0.1195  2.2255
  103MOL   C14624830   4.418   4.980   6.145 -0.5446 -0.2525 -0.4521
  103MOL   C14724831   4.450   4.843   6.098  0.0518 -0.1124  0.0734
  103MOL   C14824832   4.312   4.784   6.056 -0.2050  0.3650 -0.8829
  103MOL   O14924833   4.255   4.711   6.137 -0.4700 -0.7056 -0.7236
  103MOL   O15024834   4.270   4.812   5.932  0.2875 -0.5428 -0.2591
  103MOL   C15124835   4.138   4.773   5.890 -0.0726  0.9942 -0.8241
  103MOL   H15224836   4.319   4.985   6.191 -1.3055 -2.7330 -1.7454
  103MOL   H15324837   4.406   5.031   6.049 -0.7428  1.8662  0.6559
  103MOL   H15424838   4.478   4.793   6.191 -2.0178 -0.3112  0.5951
  103MOL   H15524839   4.095   4.856   5.834 -1.8842  0.5540 -0.1172
  103MOL   H15624840   4.068   4.762   5.973 -1.1972  1.0889 -1.7440
  103MOL   H15724841   4.131   4.678   5.836 -0.3716  0.9612 -0.7296
  103MOL   C15824842   4.559   4.826   5.994 -1.1962 -0.3110  0.0426
  103MOL   C15924843   4.613   4.679   5.984 -0.0357  1.2070  0.8477
  103MOL   C16024844   4.660   4.636   5.852  0.5032 -0.6214  0.3393
  103MOL   O16124845   4.610   4.552   5.780  0.1698 -0.1568  0.3691
  103MOL   O16224846   4.768   4.707   5.819 -0.3128  0.1533 -0.5567
  103MOL   C16324847   4.836   4.693   5.688 -0.0400 -0.2164  0.6951
  103MOL   H16424848   4.517   4.850   5.896  0.0024  0.0237 -0.3996
  103MOL   H16524849   4.637   4.897   6.019 -0.8975 -0.5510 -0.2068
  103MOL   H16624850   4.522   4.621   6.003 -0.1687  1.1890  0.1824
  103MOL   H16724851   4.763   4.724   5.614  2.0914 -0.6233 -1.6620
  103MOL   H16824852   4.878   4.596   5.659 -0.0432 -0.0946  0.2797
  103MOL   H16924853   4.903   4.778   5.675  1.0632 -1.2445 -0.5584
  103MOL   C17024854   4.715   4.654   6.100 -0.8851  0.4669 -0.1749
  103MOL   C17124855   4.806   4.529   6.088  0.4105 -0.3115 -0.1364
  103MOL   C17224856   4.951   4.568   6.138  0.5288  0.5316  0.0093
  103MOL   O17324857   5.014   4.500   6.225  0.4530 -0.0057  0.4572
  103MOL   O17424858   5.000   4.674   6.072 -0.4634 -0.0154  0.0103
  103MOL   C17524859   5.141   4.703   6.095 -0.4249 -0.6021  0.7805
  103MOL   H17624860   4.773   4.745   6.114 -0.8888  0.0981  2.4088
  103MOL   H17724861   4.659   4.654   6.193 -1.2560 -0.9011 -0.3850
  103MOL   H17824862   4.826   4.500   5.984  1.8722 -0.5534  0.2053
  103MOL   H17924863   5.205   4.632   6.044  1.5471  0.9312  1.0567
  103MOL   H18024864   5.163   4.708   6.202  0.6412  0.1620  0.5304
  103MOL   H18124865   5.164   4.796   6.042  2.6862 -3.1619 -2.5588
  103MOL   C18224866   4.743   4.416   6.175  0.7800 -0.1801  0.5601
  103MOL   C18324867   4.605   4.362   6.130  0.6026 -0.1945 -0.0838
  103MOL   C18424868   4.598   4.295   5.991 -0.7571  0.1514  0.7036
  103MOL   O18524869   4.510   4.320   5.913  0.4518  0.2748 -0.7240
  103MOL   O18624870   4.710   4.219   5.976  0.3543  0.0471  0.2399
  103MOL   C18724871   4.764   4.190   5.844  0.5693  0.5220 -0.1663
  103MOL   H18824872   4.808   4.328   6.170 -0.2528 -0.8734 -1.4033
  103MOL   H18924873   4.737   4.455   6.276  0.5932  2.5689 -0.4798
  103MOL   H19024874   4.538   4.448   6.121  0.9668  0.1646  0.5836
  103MOL   H19124875   4.678   4.181   5.778  0.3360  2.8018 -0.2196
  103MOL   H19224876   4.821   4.097   5.846  0.6345  0.5873  2.4014
  103MOL   H19324877   4.823   4.280   5.820  1.2568 -0.3618 -1.8816
  103MOL   C19424878   4.540   4.265   6.240  0.2486 -0.5431  0.1099
  103MOL   C19524879   4.400   4.212   6.217  0.0367  0.2331 -0.2473
  103MOL   C19624880   4.397   4.060   6.195 -0.4474  0.4079  0.2259
  103MOL   O19724881   4.461   3.984   6.266 -0.3796  0.4744  0.3452
  103MOL   O19824882   4.318   4.019   6.093 -0.5856 -0.0394 -0.3842
  103MOL   C19924883   4.306   3.878   6.068  0.2134  0.2894 -0.3079
  103MOL   H20024884   4.611   4.182   6.247  0.7735 -0.1872 -0.8655
  103MOL   H20124885   4.550   4.304   6.341  2.5126 -0.3437 -0.1454
  103MOL   H20224886   4.355   4.257   6.128  0.9084 -2.3964 -2.0730
  103MOL   H20324887   4.403   3.828   6.067 -0.1302 -0.3790 -1.0274
  103MOL   H20424888   4.268   3.861   5.967 -2.3470  1.0005  0.4868
  103MOL   H20524889   4.242   3.834   6.144  0.4300  2.0360  0.9076
  103MOL   C20624890   4.295   4.252   6.330 -0.2748  0.2154 -0.9563
  103MOL   C20724891   4.151   4.260   6.273 -0.6088 -0.8264 -0.1494
  103MOL   C20824892   4.046   4.209   6.377 -0.1890 -0.2213 -0.5702
  103MOL   O20924893   3.981   4.108   6.351  0.8712  0.0201 -0.6573
  103MOL   O21024894   4.030   4.296   6.483  0.0956  0.1328  0.0096
  103MOL   C21124895   3.934   4.256   6.582  0.2242 -0.1989 -0.4643
  103MOL   H21224896   4.318   4.186   6.414  0.3611  3.1249  1.2221
  103MOL   H21324897   4.329   4.353   6.354 -0.7870  0.0969  0.3003
  103MOL   H21424898   4.152   4.187   6.192 -0.4741  1.0484 -1.8777
  103MOL   H21524899   3.936   4.337   6.655  1.3529 -1.0153  0.4196
  103MOL   H21624900   3.974   4.168   6.632 -1.1284  1.7250  4.2802
  103MOL   H21724901   3.834   4.236   6.543  0.2108 -0.6192 -0.2106
  103MOL   C21824902   4.130   4.399   6.211 -0.4403 -0.4288 -0.1008
  103MOL   C21924903   4.002   4.410   6.123 -0.1674  0.4502 -0.2132
  103MOL   C22024904   3.957   4.552   6.100 -0.3584  0.5721  0.0026
  103MOL   O22124905   3.908   4.585   5.999  0.2490  0.1548  0.4064
  103MOL   O22224906   3.962   4.626   6.214  0.4033  0.3617 -0.0583
  103MOL   C22324907   3.911   4.757   6.210  0.7914  0.3316  1.2382
  103MOL   H22424908   4.118   4.465   6.296  0.2502 -3.2751  2.2820
  103MOL   H22524909   4.214   4.441   6.156  1.2869 -1.3066  1.8220
  103MOL   H22624910   3.929   4.364   6.190  0.8572 -0.7479  0.0954
  103MOL   H22724911   3.804   4.747   6.189  1.0502 -1.9487  0.8105
  103MOL   H22824912   3.962   4.813   6.133  2.5890 -0.2303  1.9929
  103MOL   H22924913   3.922   4.798   6.310 -1.3261  0.9561  1.2386
  103MOL   C23024914   4.002   4.325   5.989 -0.2129 -0.2191 -0.2113
  103MOL   C23124915   4.121   4.356   5.893  0.0631  0.1421 -0.8137
  103MOL   C23224916   4.146   4.247   5.790  0.3600 -0.2625 -0.8500
  103MOL   O23324917   4.107   4.264   5.673  0.2543  1.0083  0.3036
  103MOL   O23424918   4.213   4.145   5.831  0.2586 -0.6499 -0.1452
  103MOL   C23524919   4.279   4.055   5.745 -0.1326  0.0988 -0.5488
  103MOL   H23624920   4.007   4.225   6.029  0.9227 -0.5996 -1.2788
  103MOL   H23724921   3.909   4.334   5.932  1.4262 -0.1837 -3.0189
  103MOL   H23824922   4.213   4.382   5.945 -0.8147  1.5025  0.1172
  103MOL   H23924923   4.241   4.061   5.643 -2.3846  2.5865  0.3760
  103MOL   H24024924   4.263   3.956   5.787 -2.6166  0.0476 -1.5077
  103MOL   H24124925   4.387   4.068   5.745 -0.0753 -0.3313  0.4115
  103MOL   H24224926   4.088   4.451   5.850  0.3613  1.2879  1.4187
  104MOL     C124927   5.170   1.198   6.053 -0.2165  0.0256  0.1027
  104MOL     C224928   5.144   1.065   5.984 -0.3440 -0.3020 -0.2136
  104MOL     C324929   5.138   1.065   5.828 -0.3612 -0.4008  0.9752
  104MOL     O424930   5.214   1.119   5.753 -0.5681 -0.3249  0.3340
  104MOL     O524931   5.052   0.973   5.790  0.3873 -0.2049  0.1585
  104MOL     C624932   5.038   0.947   5.649  0.2135 -0.3690 -0.0805
  104MOL     H724933   5.146   1.189   6.159 -0.3980 -0.3010  0.0347
  104MOL     H824934   5.105   1.281   6.025 -0.7553 -0.4600 -0.1062
  104MOL     H924935   5.044   1.040   6.020 -0.2141  0.1384  0.4649
  104MOL    H1024936   4.975   0.861   5.625 -1.1892  0.8987 -1.0322
  104MOL    H1124937   5.121   0.924   5.582  0.2518 -0.5074  0.0141
  104MOL    H1224938   4.985   1.036   5.614  2.5836  1.4694  0.8953
  104MOL    H1324939   5.277   1.210   6.036 -0.6515  0.6331 -2.4420
  104MOL    C1424940   5.246   0.964   6.039 -0.1172  0.1974  0.2001
  104MOL    C1524941   5.240   0.815   5.979  0.6422 -0.1347  0.5262
  104MOL    C1624942   5.374   0.741   6.017 -0.0655  0.3495  0.4893
  104MOL    O1724943   5.393   0.713   6.134 -0.8536 -0.0298 -0.2149
  104MOL    O1824944   5.458   0.731   5.918  0.1828  0.3607  0.3482
  104MOL    C1924945   5.579   0.656   5.930 -0.4298  0.2857  0.5157
  104MOL    H2024946   5.346   0.998   6.012 -0.1472  1.2394  1.3708
  104MOL    H2124947   5.245   0.955   6.148  1.1081  0.5499  0.2474
  104MOL    H2224948   5.244   0.819   5.870 -1.4697  1.0419  0.4678
  104MOL    H2324949   5.636   0.684   5.842 -1.7005  1.7887  0.1336
  104MOL    H2424950   5.569   0.548   5.916  1.0178 -0.0351  1.7929
  104MOL    H2524951   5.641   0.687   6.014  0.6687  0.4557 -0.3477
  104MOL    C2624952   5.109   0.737   6.026  0.2916  0.1713  0.1660
  104MOL    C2724953   5.065   0.619   5.941 -0.2744  0.2295 -0.2536
  104MOL    C2824954   5.165   0.508   5.930 -0.3932 -0.1129  0.1469
  104MOL    O2924955   5.247   0.508   5.836  0.0455 -0.1697 -0.5157
  104MOL    O3024956   5.166   0.423   6.029  0.0267  0.0126 -0.1286
  104MOL    C3124957   5.264   0.316   6.035 -0.3408 -0.2043 -0.2618
  104MOL    H3224958   5.132   0.708   6.128 -1.4407 -1.2101  0.1814
  104MOL    H3324959   5.024   0.803   6.044  1.5296  2.0652 -0.6458
  104MOL    H3424960   5.058   0.667   5.843  1.4072 -0.8618 -0.9282
  104MOL    H3524961   5.212   0.254   6.108 -0.8884 -0.3245 -0.7472
  104MOL    H3624962   5.363   0.345   6.070 -0.5299 -0.9455  0.8889
  104MOL    H3724963   5.274   0.266   5.938  0.5718  1.6992 -1.1707
  104MOL    C3824964   4.923   0.576   5.991 -0.1106 -0.5763 -0.6193
  104MOL    C3924965   4.840   0.480   5.894  0.2663 -0.3633 -0.1531
  104MOL    C4024966   4.817   0.537   5.752 -0.1332  0.2804 -0.8342
  104MOL    O4124967   4.875   0.500   5.649 -0.6208 -0.0777  0.0741
  104MOL    O4224968   4.723   0.631   5.759 -0.0108 -0.4005 -0.0760
  104MOL    C4324969   4.694   0.702   5.631  0.4166 -0.5038  0.2853
  104MOL    H4424970   4.924   0.528   6.089 -2.0871 -2.6465 -1.5313
  104MOL    H4524971   4.864   0.666   6.006 -0.1454 -0.9357  1.6338
  104MOL    H4624972   4.738   0.477   5.934  0.4777  0.0552  0.4198
  104MOL    H4724973   4.779   0.701   5.563 -0.0274 -2.2053 -0.2647
  104MOL    H4824974   4.656   0.802   5.649  3.4313  0.6297  0.6725
  104MOL    H4924975   4.618   0.643   5.580 -0.6673  0.9066  0.2580
  104MOL    C5024976   4.884   0.330   5.892 -0.0770 -0.0588  0.4351
  104MOL    C5124977   4.883   0.255   6.028 -0.0483  0.1019  0.3159
  104MOL    C5224978   4.746   0.254   6.092  0.1474 -0.4655  0.0058
  104MOL    O5324979   4.729   0.310   6.203  0.2024 -0.2408 -0.3512
  104MOL    O5424980   4.659   0.183   6.016  0.4676 -0.1676 -0.4732
  104MOL    C5524981   4.524   0.172   6.072 -0.1582  0.9081 -0.8403
  104MOL    H5624982   4.825   0.277   5.817 -1.5281  0.0902  1.4560
  104MOL    H5724983   4.984   0.322   5.850  0.4230 -0.3266  1.6448
  104MOL    H5824984   4.940   0.316   6.098  0.8716  0.1030 -0.4154
  104MOL    H5924985   4.505   0.071   6.108  1.5062  0.9799  0.3369
  104MOL    H6024986   4.455   0.191   5.990  0.8296 -0.0656 -1.9010
  104MOL    H6124987   4.503   0.252   6.143 -2.7921 -0.0140 -0.5409
  104MOL    C6224988   4.952   0.115   6.023  0.0026  0.4135 -0.2839
  104MOL    C6324989   4.931   0.020   6.142  0.0727 -0.4175  0.2734
  104MOL    C6424990   4.985   7.810   6.106 -0.2348 -0.1790 -0.1975
  104MOL    O6524991   4.906   7.726   6.068 -0.2510  0.1503  0.1386
  104MOL    O6624992   5.119   7.791   6.114  0.2586 -0.2743  0.2484
  104MOL    C6724993   5.177   7.674   6.076 -0.4228  0.2943  0.4675
  104MOL    H6824994   4.911   0.075   5.930  2.7767 -0.2090 -1.2635
  104MOL    H6924995   5.060   0.116   6.008 -0.2428 -1.0224 -2.4229
  104MOL    H7024996   4.825   0.001   6.155 -0.1728  1.7042  1.5539
  104MOL    H7124997   5.285   7.683   6.081 -0.6065  2.0250  1.4995
  104MOL    H7224998   5.140   7.651   5.976 -0.7130  1.7305  0.2288
  104MOL    H7324999   5.143   7.591   6.138 -0.4852  2.0432  2.8202
  104MOL    C7425000   4.989   0.082   6.275  0.2942 -0.0240  0.7120
  104MOL    C7525001   4.934   0.018   6.404  0.0151  0.2554 -0.0685
  104MOL    C7625002   4.983   7.809   6.451  0.1111  0.3742  0.5859
  104MOL    O7725003   4.914   7.711   6.449 -0.1025 -0.1791  0.2169
  104MOL    O7825004   5.103   7.802   6.485  0.2269  0.0612 -0.2146
  104MOL    C7925005   5.153   7.670   6.500 -0.2580 -0.7929  0.5598
  104MOL    H8025006   5.098   0.080   6.271  0.3378  1.9615  0.5036
  104MOL    H8125007   4.964   0.188   6.283 -1.6118 -0.3487 -0.5381
  104MOL    H8225008   4.827   0.006   6.389  0.1014 -1.5060  0.6467
  104MOL    H8325009   5.160   7.615   6.406 -0.2144  0.9015 -0.4417
  104MOL    H8425010   5.099   7.607   6.571  2.3031 -1.7791  1.6979
  104MOL    H8525011   5.250   7.680   6.548 -0.2046  0.1066  0.2742
  104MOL    C8625012   4.939   0.114   6.528  0.9087  0.2464 -0.3307
  104MOL    C8725013   4.823   0.210   6.542  0.1858  0.1204  0.5669
  104MOL    C8825014   4.683   0.135   6.538  0.0953  0.0356 -0.1302
  104MOL    O8925015   4.654   0.042   6.619 -0.0985 -0.3397  0.5955
  104MOL    O9025016   4.602   0.191   6.456  0.0154  0.7583  0.3346
  104MOL    C9125017   4.470   0.126   6.444  0.2445  0.5312 -0.5396
  104MOL    H9225018   4.942   0.055   6.620  0.5612 -0.8196 -0.9890
  104MOL    H9325019   5.034   0.168   6.537  1.1681 -0.2132 -0.2578
  104MOL    H9425020   4.817   0.282   6.460  1.6694 -0.0969  0.2553
  104MOL    H9525021   4.415   0.109   6.537 -1.5913  2.6159 -1.1914
  104MOL    H9625022   4.485   0.023   6.409  0.5108  0.6666 -0.8252
  104MOL    H9725023   4.399   0.157   6.367 -0.9024  1.1308  0.7545
  104MOL    C9825024   4.846   0.295   6.669  0.2072  0.2481  1.1874
  104MOL    C9925025   4.742   0.397   6.719  0.1264 -0.0238  0.3221
  104MOL   C10025026   4.782   0.444   6.864 -0.2281  0.2689 -0.8814
  104MOL   O10125027   4.869   0.530   6.886  0.3429 -0.4392 -0.3379
  104MOL   O10225028   4.709   0.373   6.952  0.6733  0.3154  0.2504
  104MOL   C10325029   4.722   0.410   7.086 -0.7578  0.0564  0.2685
  104MOL   H10425030   4.841   0.222   6.749  0.2123  1.1895  2.0569
  104MOL   H10525031   4.947   0.337   6.670  0.7396 -0.9701  0.1971
  104MOL   H10625032   4.644   0.350   6.719  0.7513 -1.4294 -3.6538
  104MOL   H10725033   4.763   0.510   7.094 -2.5992  1.0138 -1.6880
  104MOL   H10825034   4.795   0.345   7.135 -2.2542 -0.9615  1.2080
  104MOL   H10925035   4.631   0.397   7.145 -1.7683 -0.3829 -1.3484
  104MOL   C11025036   4.745   0.511   6.620 -0.2342 -0.1918  0.1016
  104MOL   C11125037   4.613   0.538   6.552  0.8053  1.1092 -0.0939
  104MOL   C11225038   4.505   0.606   6.638  0.4574  0.6342  0.0240
  104MOL   O11325039   4.471   0.722   6.613 -0.2561 -0.0056 -0.3337
  104MOL   O11425040   4.467   0.537   6.751 -0.5906  0.0545  0.1767
  104MOL   C11525041   4.388   0.606   6.844 -0.6331 -0.3035  0.1027
  104MOL   H11625042   4.778   0.601   6.672 -0.5623 -0.3577  0.6025
  104MOL   H11725043   4.819   0.493   6.543 -0.8126  0.9635 -0.7495
  104MOL   H11825044   4.567   0.440   6.541 -2.0366  2.5640 -1.9552
  104MOL   H11925045   4.337   0.517   6.880 -0.0323 -1.0211 -0.8185
  104MOL   H12025046   4.318   0.667   6.787 -0.7021 -2.6966 -2.4315
  104MOL   H12125047   4.440   0.645   6.932  1.1210 -0.1044 -1.0103
  104MOL   C12225048   4.614   0.604   6.410  0.2063  1.0014  0.3687
  104MOL   C12325049   4.682   0.744   6.380  0.8361 -0.8755 -0.4644
  104MOL   C12425050   4.825   0.754   6.424  0.6179 -0.5128  0.1378
  104MOL   O12525051   4.859   0.828   6.523  0.4983 -0.7952  0.0971
  104MOL   O12625052   4.908   0.672   6.364 -0.2682 -0.0550 -0.3961
  104MOL   C12725053   5.047   0.690   6.392 -0.7781  0.2980  0.0967
  104MOL   H12825054   4.645   0.521   6.345 -1.4162 -0.2985  1.1892
  104MOL   H12925055   4.509   0.622   6.385 -0.1591  0.2841  1.3432
  104MOL   H13025056   4.627   0.819   6.437  1.2504 -0.9402  0.0174
  104MOL   H13125057   5.090   0.781   6.349  2.8144 -0.9283  0.9477
  104MOL   H13225058   5.110   0.620   6.337  0.7992  1.4170  0.4535
  104MOL   H13325059   5.071   0.680   6.498  1.7583 -0.1294 -0.4882
  104MOL   C13425060   4.662   0.791   6.238 -0.1397 -0.5340  0.1688
  104MOL   C13525061   4.728   0.928   6.193 -0.3893 -0.5009  0.3036
  104MOL   C13625062   4.729   0.933   6.042 -1.1414  0.8065 -0.3373
  104MOL   O13725063   4.829   0.913   5.984 -0.5207  0.4123  0.2412
  104MOL   O13825064   4.609   0.945   5.993  0.4495  0.7749 -0.2233
  104MOL   C13925065   4.587   0.994   5.860 -1.2670  0.5253  0.5067
  104MOL   H14025066   4.699   0.716   6.168  1.9928  2.0073 -1.5279
  104MOL   H14125067   4.555   0.809   6.233  0.1494  1.6524  1.2024
  104MOL   H14225068   4.835   0.932   6.213 -0.5934 -1.0435  1.5429
  104MOL   H14325069   4.666   0.962   5.791 -0.0067  0.4144  1.9803
  104MOL   H14425070   4.589   1.103   5.864  0.9421  0.4924  0.9414
  104MOL   H14525071   4.492   0.950   5.830 -0.0915 -2.0310  0.4243
  104MOL   C14625072   4.667   1.051   6.269 -1.0827 -0.4610 -0.1212
  104MOL   C14725073   4.757   1.174   6.277  0.0778 -0.5918 -0.2933
  104MOL   C14825074   4.729   1.275   6.163  0.4557 -0.0620 -0.1558
  104MOL   O14925075   4.618   1.324   6.139 -0.1126  0.2475  0.0039
  104MOL   O15025076   4.838   1.299   6.095  0.1981  0.0876 -0.8289
  104MOL   C15125077   4.833   1.393   5.990 -0.0590  0.1607  0.0196
  104MOL   H15225078   4.580   1.090   6.216 -1.5674 -2.5341 -0.8884
  104MOL   H15325079   4.623   1.030   6.366  1.6527  1.0056  1.4868
  104MOL   H15425080   4.860   1.138   6.266  1.1912  1.7890  1.8488
  104MOL   H15525081   4.790   1.492   6.000 -1.4291 -0.3441 -0.7298
  104MOL   H15625082   4.779   1.341   5.912  0.9486 -0.7035 -0.1122
  104MOL   H15725083   4.937   1.404   5.962 -0.0784  1.2740  0.3784
  104MOL   C15825084   4.755   1.251   6.417  0.2479 -0.1999  0.3503
  104MOL   C15925085   4.886   1.335   6.434 -0.6211  0.4420  0.2270
  104MOL   C16025086   4.854   1.480   6.431  0.3990 -0.3267  0.3057
  104MOL   O16125087   4.751   1.525   6.484 -0.2270  0.5618 -0.1282
  104MOL   O16225088   4.946   1.557   6.379 -0.0882  0.4058  0.4128
  104MOL   C16325089   4.940   1.698   6.408  0.6086  0.0770  0.1059
  104MOL   H16425090   4.665   1.309   6.438  1.0832  1.0014  0.6611
  104MOL   H16525091   4.757   1.169   6.489 -0.5521  0.9350  1.7049
  104MOL   H16625092   4.942   1.328   6.340 -0.4422  0.2138  0.3508
  104MOL   H16725093   4.955   1.714   6.515  1.8168 -2.3548  0.3301
  104MOL   H16825094   4.845   1.747   6.387  0.1781 -0.7103  0.2002
  104MOL   H16925095   5.012   1.754   6.348 -0.6019 -0.3595 -1.7799
  104MOL   C17025096   4.968   1.306   6.559  0.1911 -0.2717 -0.0060
  104MOL   C17125097   5.011   1.158   6.583 -0.0436 -0.4632 -0.0455
  104MOL   C17225098   5.115   1.104   6.483 -0.0275  0.7467 -0.2797
  104MOL   O17325099   5.076   1.062   6.374 -0.5031  0.5375 -0.0175
  104MOL   O17425100   5.241   1.100   6.520 -0.3118 -0.3498 -0.1253
  104MOL   C17525101   5.348   1.078   6.425  0.4955 -0.3038 -0.0191
  104MOL   H17625102   5.059   1.366   6.564  1.2449 -1.5622 -2.6560
  104MOL   H17725103   4.908   1.330   6.647  1.2027  0.0469  0.6058
  104MOL   H17825104   4.921   1.099   6.570  1.1181 -2.5621  0.9897
  104MOL   H17925105   5.342   1.133   6.331 -0.3746  1.4207  1.0365
  104MOL   H18025106   5.351   0.969   6.415 -0.2671 -0.2296 -1.1572
  104MOL   H18125107   5.440   1.111   6.472  1.2783 -0.1420 -1.6178
  104MOL   C18225108   5.056   1.110   6.723  0.0197  0.9038 -0.3550
  104MOL   C18325109   4.957   1.121   6.846  0.0686 -0.4754  0.4399
  104MOL   C18425110   4.818   1.058   6.814 -0.1168  0.0033 -0.1577
  104MOL   O18525111   4.726   1.136   6.804  0.2551 -0.2594 -0.3380
  104MOL   O18625112   4.811   0.925   6.814 -0.0126  0.0741 -0.2912
  104MOL   C18725113   4.690   0.865   6.779 -0.1467 -0.0606  0.1371
  104MOL   H18825114   5.086   1.005   6.719  2.7987  1.6013  0.8987
  104MOL   H18925115   5.145   1.163   6.757 -0.8942  2.4253 -0.3029
  104MOL   H19025116   4.942   1.228   6.861  0.7965 -0.1681 -0.8793
  104MOL   H19125117   4.609   0.911   6.836 -0.4681  0.6369 -0.8676
  104MOL   H19225118   4.708   0.765   6.819  0.5170 -0.6973 -1.6841
  104MOL   H19325119   4.656   0.864   6.675 -3.2235 -0.2577  1.0957
  104MOL   C19425120   5.024   1.057   6.975 -0.4949 -0.5214 -0.1693
  104MOL   C19525121   4.939   1.026   7.093  0.2439  0.6650  0.2532
  104MOL   C19625122   5.032   0.987   7.208 -0.4149 -0.4028  0.3369
  104MOL   O19725123   5.042   0.865   7.238  0.1634  0.9833 -0.1335
  104MOL   O19825124   5.104   1.092   7.253 -0.2955  0.0784  0.1596
  104MOL   C19925125   5.204   1.056   7.353  0.1678  0.4094  0.1527
  104MOL   H20025126   5.067   0.961   6.946 -1.5384 -0.6385 -1.3634
  104MOL   H20125127   5.108   1.119   7.007  2.5424 -3.0949 -2.9350
  104MOL   H20225128   4.880   0.938   7.067  0.0847  0.9401 -0.3095
  104MOL   H20325129   5.154   1.033   7.447  1.1148 -3.2460 -0.1884
  104MOL   H20425130   5.251   1.152   7.374  2.8081 -0.5125 -1.3294
  104MOL   H20525131   5.277   0.979   7.329  0.5357  0.1964  1.9419
  104MOL   C20625132   4.841   1.141   7.139 -0.3408 -0.5439 -0.0708
  104MOL   C20725133   4.747   1.109   7.261 -0.1711 -0.2652 -0.0784
  104MOL   C20825134   4.695   1.234   7.337 -0.8435 -0.1303 -0.2069
  104MOL   O20925135   4.741   1.272   7.446  0.2028 -0.2460  0.0306
  104MOL   O21025136   4.593   1.301   7.282 -0.8954 -0.3335 -0.2576
  104MOL   C21125137   4.530   1.416   7.347  0.0954 -0.8575 -0.8527
  104MOL   H21225138   4.914   1.213   7.176  0.1395  0.2890 -2.5327
  104MOL   H21325139   4.785   1.192   7.061  1.1671  0.7772 -0.3083
  104MOL   H21425140   4.801   1.047   7.332 -1.0654  1.6349  2.3271
  104MOL   H21525141   4.463   1.372   7.421  1.5187 -0.4621  0.6876
  104MOL   H21625142   4.473   1.485   7.285 -0.1223  0.7791  1.0990
  104MOL   H21725143   4.601   1.478   7.402  0.2187 -1.2828 -0.5345
  104MOL   C21825144   4.640   1.020   7.205 -0.7361  0.0191  0.0506
  104MOL   C21925145   4.568   0.924   7.304  0.3957 -0.2443  0.2055
  104MOL   C22025146   4.455   0.853   7.229  0.7900 -0.1072  0.2985
  104MOL   O22125147   4.458   0.834   7.109  0.5376  0.4019  0.7648
  104MOL   O22225148   4.369   0.785   7.314  0.1738  0.3490  0.3598
  104MOL   C22325149   4.276   0.694   7.262  0.1664  0.0987  0.2796
  104MOL   H22425150   4.567   1.085   7.156 -0.9475 -0.9310 -0.9126
  104MOL   H22525151   4.677   0.953   7.128 -0.5273  1.0307 -0.7319
  104MOL   H22625152   4.512   0.994   7.367  1.8356  0.1478  1.0795
  104MOL   H22725153   4.235   0.628   7.339 -0.0510 -0.5669 -0.4070
  104MOL   H22825154   4.306   0.634   7.177 -0.0774  0.0895  0.1996
  104MOL   H22925155   4.183   0.743   7.235  0.0040 -1.5314 -2.2870
  104MOL   C23025156   4.650   0.822   7.383 -0.4626  0.3916 -0.3084
  104MOL   C23125157   4.734   0.713   7.306  1.1300 -0.0948 -0.7524
  104MOL   C23225158   4.801   0.618   7.405 -0.1481  0.4516  0.0547
  104MOL   O23325159   4.774   0.500   7.408  0.6389 -0.0075  0.4104
  104MOL   O23425160   4.876   0.682   7.499 -0.2802  0.1367  0.0580
  104MOL   C23525161   4.938   0.606   7.604  0.4516  0.6463  0.3609
  104MOL   H23625162   4.701   0.871   7.467 -0.9842  1.7134 -0.7474
  104MOL   H23725163   4.585   0.767   7.451 -0.9610 -0.2322 -1.2731
  104MOL   H23825164   4.818   0.747   7.246  2.4060 -0.5038  0.7513
  104MOL   H23925165   5.011   0.534   7.567  0.7948  0.2402  1.8227
  104MOL   H24025166   4.856   0.553   7.651 -1.0339  1.0826 -1.6605
  104MOL   H24125167   4.979   0.679   7.674  2.5581 -0.4043  0.2579
  104MOL   H24225168   4.661   0.659   7.245 -0.1319 -0.8926  1.4175
  105MOL     C125169   6.961   4.689   1.756  0.0745  0.0197  0.7308
  105MOL     C225170   7.010   4.836   1.751 -0.0637  0.1300  0.3458
  105MOL     C325171   6.907   4.913   1.667 -0.0129  0.3757  0.2922
  105MOL     O425172   6.826   4.997   1.714 -0.4035  0.1325  0.1627
  105MOL     O525173   6.920   4.886   1.534 -0.0270 -1.0504 -0.2915
  105MOL     C625174   6.819   4.921   1.445  0.9422 -0.6258  0.7352
  105MOL     H725175   6.892   4.680   1.840 -0.9823 -0.5409 -0.1901
  105MOL     H825176   7.037   4.617   1.786  0.1504  0.8151  2.5403
  105MOL     H925177   7.100   4.847   1.690 -1.2053  0.2121 -1.3718
  105MOL    H1025178   6.807   5.030   1.446 -0.8358 -0.7901  0.2849
  105MOL    H1125179   6.721   4.882   1.473  2.4710 -3.4014  2.3452
  105MOL    H1225180   6.842   4.902   1.340  0.6443  1.2548  0.3093
  105MOL    H1325181   6.918   4.655   1.662  1.2506 -0.4024  0.3365
  105MOL    C1425182   7.036   4.895   1.891  0.5957  0.0581  0.6082
  105MOL    C1525183   7.128   4.817   1.983 -0.0601 -0.7958  0.3624
  105MOL    C1625184   7.260   4.776   1.917  0.0142 -0.0612  0.4760
  105MOL    O1725185   7.323   4.852   1.843 -0.8640  0.3436  0.6163
  105MOL    O1825186   7.285   4.652   1.951 -0.1492  0.5748 -0.0537
  105MOL    C1925187   7.412   4.600   1.908 -0.3216  0.8655 -0.0882
  105MOL    H2025188   7.084   4.991   1.873 -0.4458  1.0455  2.8771
  105MOL    H2125189   6.943   4.902   1.949  0.8018  0.8805  0.8495
  105MOL    H2225190   7.075   4.727   2.011  2.2797 -1.5228  2.7048
  105MOL    H2325191   7.480   4.633   1.987  2.4060 -0.8822 -1.6363
  105MOL    H2425192   7.442   4.627   1.807  2.1429 -1.3893 -0.0225
  105MOL    H2525193   7.407   4.491   1.904 -1.9918  0.7930  2.6162
  105MOL    C2625194   7.146   4.908   2.114  0.5987 -0.1773  0.3938
  105MOL    C2725195   7.099   4.850   2.249 -0.2233  0.1338 -0.3284
  105MOL    C2825196   7.210   4.791   2.340  0.1147 -0.6735  0.2412
  105MOL    O2925197   7.200   4.670   2.372  0.6824  0.0029 -0.0682
  105MOL    O3025198   7.304   4.873   2.383  0.0316  0.0007 -0.2786
  105MOL    C3125199   7.409   4.812   2.464  0.3710 -0.0301  0.3649
  105MOL    H3225200   7.253   4.932   2.114  0.3931  0.8288 -1.1479
  105MOL    H3325201   7.103   5.006   2.098 -0.4224 -0.1020  3.2881
  105MOL    H3425202   7.031   4.766   2.236 -0.6039  0.3363  0.3150
  105MOL    H3525203   7.494   4.880   2.464  0.3017  0.0616 -0.1445
  105MOL    H3625204   7.437   4.710   2.440 -0.9809 -0.8165  2.0166
  105MOL    H3725205   7.377   4.816   2.568  0.9987  0.1365  0.5536
  105MOL    C3825206   7.026   4.953   2.328  0.8835 -0.4348 -0.0963
  105MOL    C3925207   6.894   5.009   2.275 -0.3833 -0.3274 -0.1441
  105MOL    C4025208   6.783   4.901   2.279  0.0982 -0.1900 -1.1029
  105MOL    O4125209   6.713   4.873   2.184  0.0818 -0.1897 -0.2434
  105MOL    O4225210   6.782   4.849   2.400 -0.2398 -0.7739  0.2057
  105MOL    C4325211   6.700   4.736   2.413  0.0403 -0.2618  0.1745
  105MOL    H4425212   7.015   4.909   2.427  0.1775  1.7706  0.8486
  105MOL    H4525213   7.090   5.040   2.343  0.7768 -0.2855 -0.4834
  105MOL    H4625214   6.903   5.032   2.169 -0.8218  1.7156  0.2345
  105MOL    H4725215   6.625   4.717   2.336 -1.8305  2.4705  1.2475
  105MOL    H4825216   6.669   4.720   2.516 -0.8569  0.7647  0.0684
  105MOL    H4925217   6.773   4.656   2.404 -0.4975 -0.8351  0.8874
  105MOL    C5025218   6.865   5.148   2.348  0.2607 -0.7075 -0.5045
  105MOL    C5125219   6.746   5.230   2.304  0.1509 -1.0618  0.0680
  105MOL    C5225220   6.759   5.258   2.151 -0.5374  0.4648  0.3065
  105MOL    O5325221   6.811   5.358   2.101 -1.0733  0.0747  0.7566
  105MOL    O5425222   6.705   5.154   2.080  0.0052 -0.0868  0.1659
  105MOL    C5525223   6.711   5.147   1.937 -0.2257  0.4874 -0.0010
  105MOL    H5625224   6.867   5.133   2.456  0.5086 -0.9772 -0.5462
  105MOL    H5725225   6.951   5.213   2.333 -0.0276  0.1035  1.2555
  105MOL    H5825226   6.763   5.327   2.351  1.3630 -1.1616 -0.1390
  105MOL    H5925227   6.680   5.240   1.889  1.8699  1.6497  0.8288
  105MOL    H6025228   6.650   5.071   1.888 -2.0340  1.2187  1.1018
  105MOL    H6125229   6.816   5.124   1.917 -0.0285 -1.3241  2.8421
  105MOL    C6225230   6.614   5.175   2.366 -0.3404 -0.7491  0.1092
  105MOL    C6325231   6.502   5.279   2.363  0.5979  0.2558  0.6816
  105MOL    C6425232   6.414   5.252   2.244  0.1261  0.0622  0.0692
  105MOL    O6525233   6.418   5.328   2.141  0.3775 -0.2228 -0.0436
  105MOL    O6625234   6.300   5.167   2.260 -0.4844  0.0786 -0.3719
  105MOL    C6725235   6.205   5.170   2.154  0.5284 -0.1013 -0.3492
  105MOL    H6825236   6.582   5.079   2.324  0.5371 -1.6006  1.3247
  105MOL    H6925237   6.632   5.137   2.467  0.2679 -1.0433 -0.1099
  105MOL    H7025238   6.545   5.379   2.353  0.7965  0.0373 -0.6376
  105MOL    H7125239   6.120   5.106   2.178  0.8724 -0.6553 -0.5820
  105MOL    H7225240   6.253   5.142   2.060  1.2516 -2.0807  0.5885
  105MOL    H7325241   6.173   5.273   2.143 -3.3081 -0.9797  1.8023
  105MOL    C7425242   6.411   5.282   2.492 -0.0518 -0.1150  0.2710
  105MOL    C7525243   6.312   5.402   2.515 -0.5994  0.2782  0.4013
  105MOL    C7625244   6.391   5.539   2.509  0.1148 -0.5775 -0.1303
  105MOL    O7725245   6.360   5.629   2.425  0.0832 -0.1743 -0.1980
  105MOL    O7825246   6.484   5.539   2.599  0.2396 -0.3876  0.1898
  105MOL    C7925247   6.575   5.651   2.612 -0.1309  0.2119 -0.5117
  105MOL    H8025248   6.361   5.186   2.502  2.2479 -1.5971 -1.8523
  105MOL    H8125249   6.473   5.288   2.581 -1.0029  0.4271  0.8965
  105MOL    H8225250   6.269   5.380   2.613  0.9403 -0.8827  0.8372
  105MOL    H8325251   6.535   5.729   2.677  1.0222  0.4827 -0.1280
  105MOL    H8425252   6.594   5.697   2.515 -2.6131  1.1631 -0.5963
  105MOL    H8525253   6.668   5.608   2.648 -0.3273  0.5150  0.3713
  105MOL    C8625254   6.188   5.408   2.420  0.3223  0.4636 -0.0724
  105MOL    C8725255   6.067   5.509   2.456  0.5519 -0.3967  0.7975
  105MOL    C8825256   5.992   5.552   2.329 -0.5951  0.5146  0.7815
  105MOL    O8925257   5.984   5.668   2.299 -0.4507 -0.7676 -0.6489
  105MOL    O9025258   5.934   5.449   2.260 -0.7125  0.6676  0.1855
  105MOL    C9125259   5.851   5.480   2.143 -1.4890  0.8708 -0.8373
  105MOL    H9225260   6.220   5.436   2.320  0.3315  0.3221 -0.1091
  105MOL    H9325261   6.147   5.308   2.411 -0.3707  0.8320 -1.1765
  105MOL    H9425262   6.112   5.597   2.503  0.6082  1.7508 -3.0791
  105MOL    H9525263   5.749   5.441   2.153  0.4915 -4.1014  2.0967
  105MOL    H9625264   5.897   5.437   2.054 -0.5539  0.1309 -0.0106
  105MOL    H9725265   5.852   5.587   2.124  1.5783  1.1304  0.4763
  105MOL    C9825266   5.971   5.433   2.550 -0.2267 -0.1561  0.0556
  105MOL    C9925267   5.885   5.529   2.635 -0.0822 -0.0016 -0.2190
  105MOL   C10025268   5.749   5.568   2.570 -0.5836 -0.6136  0.0480
  105MOL   O10125269   5.647   5.505   2.580  0.1127  0.1213 -0.5828
  105MOL   O10225270   5.762   5.694   2.507  0.1907  0.4746  0.3037
  105MOL   C10325271   5.649   5.741   2.430 -0.3458 -0.2257 -0.4583
  105MOL   H10425272   5.906   5.361   2.501 -1.4280  0.1296  1.2089
  105MOL   H10525273   6.025   5.364   2.616  1.0841  0.4288 -0.3847
  105MOL   H10625274   5.941   5.622   2.635 -0.7154  0.3791 -0.1677
  105MOL   H10725275   5.551   5.730   2.474 -0.2779  1.2222  0.1018
  105MOL   H10825276   5.652   5.720   2.323  1.7939 -1.9211 -0.1014
  105MOL   H10925277   5.661   5.850   2.431  0.1571 -0.2842  0.1141
  105MOL   C11025278   5.869   5.494   2.787 -0.1493 -0.3617  0.1524
  105MOL   C11125279   5.995   5.500   2.878 -0.2958 -0.0269 -0.1200
  105MOL   C11225280   6.055   5.637   2.869 -0.3264  0.8840 -1.8642
  105MOL   O11325281   5.993   5.726   2.927  0.0825 -0.1849  0.4853
  105MOL   O11425282   6.157   5.655   2.784  0.4292  0.8784 -0.2874
  105MOL   C11525283   6.204   5.782   2.758 -0.1987 -0.1060 -0.6267
  105MOL   H11625284   5.792   5.563   2.820 -0.6932 -0.6341 -0.5287
  105MOL   H11725285   5.828   5.393   2.788 -0.4028 -0.2690 -0.7085
  105MOL   H11825286   6.067   5.436   2.827  1.4048  0.0572  2.1134
  105MOL   H11925287   6.124   5.855   2.749 -0.2461 -0.0740  0.0136
  105MOL   H12025288   6.255   5.778   2.662  1.8182 -1.8192  0.4582
  105MOL   H12125289   6.286   5.803   2.826 -1.3232 -1.6811  1.2836
  105MOL   C12225290   5.971   5.442   3.015 -0.4561 -0.1659  0.3418
  105MOL   C12325291   6.074   5.480   3.125 -0.1604 -0.0102  0.1802
  105MOL   C12425292   6.021   5.453   3.273 -0.0319 -0.7535  0.5987
  105MOL   O12525293   5.947   5.359   3.306 -0.5032 -0.1216 -0.1577
  105MOL   O12625294   6.078   5.544   3.359  0.0736 -0.1492  0.4988
  105MOL   C12725295   6.066   5.530   3.498 -0.0502  0.3277  0.1158
  105MOL   H12825296   5.879   5.490   3.048 -0.7835 -1.2805  1.0855
  105MOL   H12925297   5.953   5.334   3.018 -2.9987  0.0854 -3.0118
  105MOL   H13025298   6.096   5.587   3.122  0.0620 -0.0732 -0.5068
  105MOL   H13125299   5.962   5.552   3.525  0.7478  2.2090  1.8033
  105MOL   H13225300   6.129   5.598   3.556 -0.0019  0.0477  0.3886
  105MOL   H13325301   6.086   5.428   3.530  1.4798 -0.6228 -3.6669
  105MOL   C13425302   6.213   5.414   3.102 -0.3084 -0.6544 -0.0656
  105MOL   C13525303   6.331   5.491   3.162 -0.1997  0.6430  0.1181
  105MOL   C13625304   6.436   5.396   3.226  0.0528  0.3416  0.7957
  105MOL   O13725305   6.470   5.292   3.177 -0.0990  0.2714 -0.0762
  105MOL   O13825306   6.495   5.463   3.333  0.3422 -0.1277 -0.3323
  105MOL   C13925307   6.604   5.402   3.402 -0.4003 -0.2909 -0.0478
  105MOL   H14025308   6.213   5.311   3.139  0.1639 -1.6159 -2.6936
  105MOL   H14125309   6.231   5.400   2.996  1.9876  0.6259  0.1230
  105MOL   H14225310   6.284   5.548   3.242 -2.1017 -0.2795 -0.3072
  105MOL   H14325311   6.683   5.405   3.328 -1.4478  0.3979 -1.1669
  105MOL   H14425312   6.591   5.295   3.417  0.4856 -0.1708  1.6046
  105MOL   H14525313   6.638   5.456   3.490  3.9233 -2.4901 -0.2598
  105MOL   C14625314   6.394   5.604   3.066  0.0805 -0.0613 -0.5353
  105MOL   C14725315   6.464   5.717   3.141  0.2334 -0.2012  0.2068
  105MOL   C14825316   6.612   5.723   3.136 -0.2074 -0.6770 -0.3230
  105MOL   O14925317   6.686   5.678   3.051 -0.5939 -0.2243  0.2883
  105MOL   O15025318   6.660   5.780   3.249 -0.6690 -0.2293 -0.4015
  105MOL   C15125319   6.797   5.792   3.258  0.2022 -0.5498  0.4444
  105MOL   H15225320   6.459   5.549   2.998 -1.1273 -1.1812 -0.8001
  105MOL   H15325321   6.315   5.644   3.003 -0.0844 -1.1524 -1.0313
  105MOL   H15425322   6.452   5.690   3.246  1.8788  0.3930  0.5616
  105MOL   H15525323   6.821   5.830   3.357 -2.8001  1.1262  0.6048
  105MOL   H15625324   6.843   5.863   3.189 -1.4479  1.5016  1.3718
  105MOL   H15725325   6.838   5.695   3.233  2.8213  1.6105 -4.3897
  105MOL   C15825326   6.396   5.854   3.104  0.0827  0.2813 -0.6241
  105MOL   C15925327   6.250   5.869   3.158  0.1302 -0.2380  0.3055
  105MOL   C16025328   6.238   5.881   3.306 -0.7174  0.2595 -0.2315
  105MOL   O16125329   6.152   5.812   3.373 -0.5060  0.1103 -0.5834
  105MOL   O16225330   6.327   5.966   3.354 -0.0988  0.1976  0.4504
  105MOL   C16325331   6.311   6.008   3.486  0.2956  0.2420  0.3796
  105MOL   H16425332   6.442   5.945   3.144 -0.2827 -0.9511  2.7920
  105MOL   H16525333   6.382   5.861   2.996  0.9825  0.9798 -0.7058
  105MOL   H16625334   6.206   5.771   3.140  2.1895 -1.2193  0.3788
  105MOL   H16725335   6.271   5.939   3.560 -2.2880  1.1273 -0.1575
  105MOL   H16825336   6.257   6.103   3.481  2.3374  1.5209  1.5631
  105MOL   H16925337   6.411   6.043   3.514 -0.3374  1.7424  0.7870
  105MOL   C17025338   6.158   5.971   3.089  0.1598 -0.7918 -0.1931
  105MOL   C17125339   6.190   6.120   3.092  0.9517 -0.1638 -0.2136
  105MOL   C17225340   6.273   6.161   2.968 -0.0714  0.0612 -0.0164
  105MOL   O17325341   6.381   6.212   2.982  0.1326  0.0120  0.4426
  105MOL   O17425342   6.214   6.135   2.850 -0.4914 -0.2416 -0.3382
  105MOL   C17525343   6.272   6.175   2.727 -1.0348 -0.2735 -1.0152
  105MOL   H17625344   6.134   5.933   2.990 -0.2526 -0.1389 -0.3422
  105MOL   H17725345   6.062   5.970   3.140  0.8065  0.3173  1.0788
  105MOL   H17825346   6.249   6.142   3.181 -0.0728 -0.7035  0.5977
  105MOL   H17925347   6.337   6.095   2.692  0.5740  0.6966 -0.3034
  105MOL   H18025348   6.326   6.268   2.743  0.5060 -1.2285 -0.6155
  105MOL   H18125349   6.205   6.207   2.647  1.0383 -0.2647 -2.8074
  105MOL   C18225350   6.061   6.202   3.112 -0.2689 -1.2258  0.2215
  105MOL   C18325351   5.992   6.190   3.254  0.3130  0.2722  0.6137
  105MOL   C18425352   6.070   6.262   3.364 -0.4175 -0.2683  0.4519
  105MOL   O18525353   6.167   6.334   3.339  0.4794  0.5641 -0.5622
  105MOL   O18625354   6.025   6.240   3.491  0.3455  0.7737  0.1332
  105MOL   C18725355   6.098   6.290   3.604 -0.4537 -0.4432  0.7686
  105MOL   H18825356   6.074   6.307   3.087  0.3098 -1.3208  0.1131
  105MOL   H18925357   5.987   6.171   3.039 -0.6309 -1.3142  0.6242
  105MOL   H19025358   5.982   6.084   3.277 -0.8194  0.0668 -0.7852
  105MOL   H19125359   6.202   6.258   3.601 -0.0942  0.7065  0.9619
  105MOL   H19225360   6.036   6.244   3.681  0.5184 -1.3872  1.0059
  105MOL   H19325361   6.089   6.397   3.624  1.4809  0.3100 -2.1025
  105MOL   C19425362   5.845   6.239   3.241  0.7318  0.3934  0.2262
  105MOL   C19525363   5.751   6.160   3.156  0.4359 -0.1050  0.1732
  105MOL   C19625364   5.738   6.018   3.209 -0.2597 -0.8627  0.0351
  105MOL   O19725365   5.695   5.989   3.323 -0.0184 -0.0261 -0.7262
  105MOL   O19825366   5.785   5.933   3.120 -0.2262 -0.0428 -0.3226
  105MOL   C19925367   5.786   5.794   3.161 -0.2636 -0.0834 -0.1533
  105MOL   H20025368   5.805   6.251   3.342  0.7150 -2.1579  0.5634
  105MOL   H20125369   5.842   6.341   3.204 -2.2673 -0.4890 -2.1162
  105MOL   H20225370   5.791   6.153   3.055  0.5578  0.8163  0.1533
  105MOL   H20325371   5.849   5.786   3.250 -0.7177  0.3899  0.2126
  105MOL   H20425372   5.825   5.737   3.077  0.4376  0.4771 -0.2157
  105MOL   H20525373   5.683   5.767   3.184 -0.7483  2.5195  1.0208
  105MOL   C20625374   5.609   6.237   3.145  0.6506  0.2916  0.1543
  105MOL   C20725375   5.608   6.359   3.050  0.1487 -0.0229  1.0631
  105MOL   C20825376   5.651   6.310   2.907 -0.3755  0.4144 -0.5324
  105MOL   O20925377   5.572   6.248   2.839  0.6211  0.5580  0.1246
  105MOL   O21025378   5.785   6.333   2.882 -0.2098  0.2927 -0.0264
  105MOL   C21125379   5.835   6.286   2.759 -0.6044  0.3527  0.9148
  105MOL   H21225380   5.530   6.165   3.124  0.1507  0.4959  1.3004
  105MOL   H21325381   5.576   6.263   3.246 -0.4202 -2.8414  0.6751
  105MOL   H21425382   5.681   6.423   3.099  1.0217 -1.3215  1.4730
  105MOL   H21525383   5.873   6.361   2.689 -2.1106 -1.6851 -2.2376
  105MOL   H21625384   5.761   6.236   2.696 -1.6423  0.6627  1.8757
  105MOL   H21725385   5.904   6.205   2.782  2.2735  2.2339 -0.8311
  105MOL   C21825386   5.463   6.428   3.055  0.5290  0.3262  0.6809
  105MOL   C21925387   5.469   6.580   3.017 -0.2924 -0.2967  0.9746
  105MOL   C22025388   5.330   6.630   2.975  0.1590  0.2547 -0.8377
  105MOL   O22125389   5.303   6.640   2.850 -0.0873  1.0989 -0.1270
  105MOL   O22225390   5.248   6.651   3.082 -0.1415 -0.5668 -0.4254
  105MOL   C22325391   5.111   6.700   3.070 -0.7190  0.0225  0.1984
  105MOL   H22425392   5.401   6.382   2.978 -0.2110  3.1752 -0.4848
  105MOL   H22525393   5.421   6.417   3.155 -0.4416 -2.8101 -0.0332
  105MOL   H22625394   5.541   6.595   2.937 -0.3703 -1.1332  0.7450
  105MOL   H22725395   5.048   6.633   3.011 -0.5357 -1.3764  1.5640
  105MOL   H22825396   5.102   6.792   3.013 -1.2675 -0.0120  0.2291
  105MOL   H22925397   5.071   6.719   3.169 -1.4949  1.5893 -0.4094
  105MOL   C23025398   5.535   6.672   3.125 -0.7432 -0.8350  0.4121
  105MOL   C23125399   5.577   6.822   3.082  0.5164 -0.7355 -0.4867
  105MOL   C23225400   5.666   6.884   3.186 -0.2159 -0.2411  0.3309
  105MOL   O23325401   5.791   6.896   3.172  0.0534 -0.3960  0.3556
  105MOL   O23425402   5.598   6.903   3.295 -0.1548 -0.2343  0.0417
  105MOL   C23525403   5.658   6.942   3.420 -0.1599  0.0127  0.5267
  105MOL   H23625404   5.465   6.678   3.208  0.6684  0.4880  1.5387
  105MOL   H23725405   5.624   6.628   3.169  0.2580  2.0956  1.4727
  105MOL   H23825406   5.488   6.884   3.071 -0.3049 -1.7756  0.1550
  105MOL   H23925407   5.596   7.005   3.484  1.0236  0.1041  1.5955
  105MOL   H24025408   5.747   6.999   3.395 -1.2637  1.9660  1.0045
  105MOL   H24125409   5.710   6.857   3.464  0.7838  0.3719  0.1130
  105MOL   H24225410   5.634   6.829   2.990  1.5017 -0.9388  0.0923
  106MOL     C125411   1.663   7.879   4.236  0.6596  0.0216  0.1546
  106MOL     C225412   1.587   7.760   4.176 -0.5992 -0.3278 -0.4929
  106MOL     C325413   1.515   7.675   4.287 -0.9354 -1.1438  0.0689
  106MOL     O425414   1.424   7.734   4.351 -0.2003  0.6000 -0.0304
  106MOL     O525415   1.549   7.547   4.298  0.3926  0.0364 -0.2042
  106MOL     C625416   1.480   7.469   4.395 -0.2309 -0.2888 -0.0995
  106MOL     H725417   1.590   0.023   4.263  0.9765  0.7672 -1.0369
  106MOL     H825418   1.735   7.916   4.162 -0.5115 -0.9885 -1.5409
  106MOL     H925419   1.656   7.694   4.123 -1.5807 -0.7900 -1.2106
  106MOL    H1025420   1.375   7.497   4.405 -0.6522 -2.0198  0.3682
  106MOL    H1125421   1.529   7.480   4.492 -0.6983 -0.0461  0.1132
  106MOL    H1225422   1.488   7.366   4.361  2.6723 -0.0696 -0.2316
  106MOL    H1325423   1.716   7.858   4.328 -1.4587  0.7600  1.5821
  106MOL    C1425424   1.482   7.798   4.074 -0.1251 -0.2395  0.2079
  106MOL    C1525425   1.540   7.849   3.938 -0.7161  0.1182 -0.3032
  106MOL    C1625426   1.585   7.733   3.841  0.2454 -0.6869 -0.0865
  106MOL    O1725427   1.507   7.652   3.788 -0.1519  0.4999 -0.6982
  106MOL    O1825428   1.719   7.727   3.839  0.1048  0.5141  0.1303
  106MOL    C1925429   1.774   7.627   3.758 -0.4844  0.5924  0.4062
  106MOL    H2025430   1.423   7.709   4.053  1.1031 -0.8031 -0.9103
  106MOL    H2125431   1.415   7.874   4.113 -2.0395 -0.6106 -2.2779
  106MOL    H2225432   1.619   7.921   3.959 -0.3552 -0.8368  1.6891
  106MOL    H2325433   1.882   7.630   3.769 -0.3591  0.5018 -0.6922
  106MOL    H2425434   1.749   7.622   3.652  0.0896  0.4758  0.2724
  106MOL    H2525435   1.737   7.532   3.798 -0.0877 -0.3192 -1.3244
  106MOL    C2625436   1.436   0.004   3.863  0.3319 -0.7522  0.0388
  106MOL    C2725437   1.495   0.083   3.739  0.7646  0.6831  0.7859
  106MOL    C2825438   1.423   0.053   3.606  0.0298  0.6676  0.1700
  106MOL    O2925439   1.303   0.063   3.583  0.1707 -0.3823 -0.1500
  106MOL    O3025440   1.507   0.018   3.520 -0.5462 -0.1436 -0.1661
  106MOL    C3125441   1.459   7.895   3.399  0.5605 -0.2469  0.2069
  106MOL    H3225442   1.363   7.866   3.824 -1.6949  1.7205 -0.7842
  106MOL    H3325443   1.384   0.061   3.940  0.1845  0.0754 -0.6727
  106MOL    H3425444   1.593   0.036   3.731  0.6300  0.2444  1.6450
  106MOL    H3525445   1.457   7.786   3.395 -1.3556 -0.1679 -1.7639
  106MOL    H3625446   1.535   7.911   3.322 -0.0346  1.3624 -0.0584
  106MOL    H3725447   1.362   7.927   3.359  0.7975  1.3293  0.8591
  106MOL    C3825448   1.509   0.231   3.766 -0.2495 -0.1173 -0.3438
  106MOL    C3925449   1.589   0.269   3.899  0.6332  0.0245 -0.0105
  106MOL    C4025450   1.740   0.255   3.866  0.0544 -0.0519 -0.3779
  106MOL    O4125451   1.803   0.165   3.911  0.3900 -0.0005 -0.2006
  106MOL    O4225452   1.788   0.356   3.790 -0.2203 -0.3283  0.0276
  106MOL    C4325453   1.920   0.352   3.744  0.1738  0.1334  0.4598
  106MOL    H4425454   1.551   0.280   3.677 -2.0869  0.0342 -1.1445
  106MOL    H4525455   1.411   0.276   3.777 -0.7531 -1.3049  0.0790
  106MOL    H4625456   1.558   0.199   3.976  1.2042 -0.1211  0.0865
  106MOL    H4725457   1.992   0.373   3.823 -2.3924  0.8161  2.7046
  106MOL    H4825458   1.926   0.406   3.650 -1.5464 -0.8094 -0.2232
  106MOL    H4925459   1.959   0.254   3.717 -0.7287 -0.0747 -0.1027
  106MOL    C5025460   1.558   0.413   3.955 -0.4454  0.0830 -0.4174
  106MOL    C5125461   1.524   0.420   4.112 -0.3898  0.2685  0.0923
  106MOL    C5225462   1.380   0.361   4.137 -0.2967  0.2442 -0.2316
  106MOL    O5325463   1.288   0.439   4.153  0.5951 -0.2833  0.0731
  106MOL    O5425464   1.379   0.233   4.138  0.6848 -0.3057  0.0179
  106MOL    C5525465   1.253   0.175   4.164 -0.2751  0.8320 -0.3928
  106MOL    H5625466   1.636   0.487   3.934 -2.7924  2.2348 -1.8329
  106MOL    H5725467   1.468   0.446   3.903  0.9762  2.3813 -1.4654
  106MOL    H5825468   1.510   0.525   4.139 -1.4376  0.5078 -1.3277
  106MOL    H5925469   1.190   0.175   4.075 -0.5269  0.4575 -0.2165
  106MOL    H6025470   1.212   0.233   4.246  1.1945 -0.9837  1.6566
  106MOL    H6125471   1.273   0.074   4.201  0.5678  1.1287 -0.0457
  106MOL    C6225472   1.639   0.360   4.200  0.2138 -0.1688 -0.2400
  106MOL    C6325473   1.633   0.415   4.350  1.0391  0.5519  0.1640
  106MOL    C6425474   1.520   0.336   4.423  0.3635 -0.1021 -0.4376
  106MOL    O6525475   1.408   0.393   4.440 -0.6268 -0.1265 -0.2635
  106MOL    O6625476   1.556   0.211   4.453 -0.0308  0.1849 -0.0322
  106MOL    C6725477   1.464   0.124   4.518  0.2885  0.2369 -0.0702
  106MOL    H6825478   1.664   0.254   4.195 -1.4921 -0.5272 -1.6244
  106MOL    H6925479   1.725   0.403   4.147  1.8135  1.6672  3.6897
  106MOL    H7025480   1.603   0.519   4.342  0.6149  0.4366  0.2471
  106MOL    H7125481   1.423   0.177   4.604  2.1691  0.9368  0.4178
  106MOL    H7225482   1.511   0.037   4.564 -0.8698 -0.7515 -0.7389
  106MOL    H7325483   1.396   0.087   4.441  1.4008 -0.6632 -0.6355
  106MOL    C7425484   1.773   0.412   4.434  0.1329 -0.0012 -0.6282
  106MOL    C7525485   1.779   0.480   4.579 -0.3494 -0.1643  0.3922
  106MOL    C7625486   1.731   0.373   4.672 -0.2440  0.6217  0.2386
  106MOL    O7725487   1.621   0.375   4.728 -0.6034  0.7623 -0.0280
  106MOL    O7825488   1.824   0.275   4.695 -0.3715 -0.3271  0.0544
  106MOL    C7925489   1.799   0.167   4.772 -0.1257  0.5437  0.1229
  106MOL    H8025490   1.819   0.313   4.425  0.2125  0.1438 -1.8657
  106MOL    H8125491   1.839   0.475   4.375 -0.1637  1.3573  0.4874
  106MOL    H8225492   1.702   0.556   4.591  1.0521  0.9823  2.5280
  106MOL    H8325493   1.846   0.184   4.869  0.6951 -0.8370 -0.0196
  106MOL    H8425494   1.844   0.075   4.734  0.0193  0.7637 -0.2384
  106MOL    H8525495   1.693   0.145   4.784 -0.0710  0.8054  1.1632
  106MOL    C8625496   1.919   0.547   4.604  0.4006  0.5043  0.0415
  106MOL    C8725497   1.942   0.615   4.738 -0.0635 -0.3290 -0.4814
  106MOL    C8825498   1.848   0.732   4.750  0.2155  0.3356 -0.2001
  106MOL    O8925499   1.761   0.731   4.838  0.2069  0.4252 -0.4526
  106MOL    O9025500   1.868   0.846   4.670  0.5927  0.4063 -0.4902
  106MOL    C9125501   1.791   0.961   4.697  0.2853  0.7351 -0.7260
  106MOL    H9225502   1.990   0.468   4.579 -1.8662 -1.6897  0.2775
  106MOL    H9325503   1.933   0.624   4.528  2.0258  1.6769  1.4773
  106MOL    H9425504   2.035   0.669   4.723 -0.5127  0.4813 -0.3540
  106MOL    H9525505   1.826   1.044   4.636  2.5080 -0.7415 -1.5361
  106MOL    H9625506   1.798   1.003   4.797  1.6904  1.3976 -1.0884
  106MOL    H9725507   1.685   0.946   4.675  0.4054  1.3581 -1.7883
  106MOL    C9825508   1.962   0.527   4.860 -0.6136  0.2125 -0.4498
  106MOL    C9925509   2.013   0.599   4.987  0.4370  0.4884  0.2631
  106MOL   C10025510   2.007   0.504   5.106 -0.9927 -0.6907  0.1791
  106MOL   O10125511   1.978   0.386   5.099  0.2177 -0.1578 -0.2806
  106MOL   O10225512   2.050   0.572   5.212 -0.3976  0.5169 -0.0901
  106MOL   C10325513   2.051   0.508   5.336  0.0101  0.5084  0.0733
  106MOL   H10425514   1.863   0.490   4.885 -0.9630  1.0737 -0.5507
  106MOL   H10525515   2.038   0.453   4.835  1.4185  1.7030  1.1435
  106MOL   H10625516   1.926   0.660   5.009  0.8078  2.3433 -3.0439
  106MOL   H10725517   1.955   0.464   5.362 -0.3930  1.6675  0.5650
  106MOL   H10825518   2.092   0.577   5.410 -0.3619  0.7073  0.0920
  106MOL   H10925519   2.121   0.424   5.331 -1.9191 -1.0735 -0.6655
  106MOL   C11025520   2.152   0.662   4.976  0.5124 -0.0331  0.2507
  106MOL   C11125521   2.157   0.816   4.946  0.4519  0.1966  0.2917
  106MOL   C11225522   2.055   0.884   5.044 -0.1380  0.3379 -0.3486
  106MOL   O11325523   1.957   0.941   4.993  0.6773 -0.5078 -0.1697
  106MOL   O11425524   2.073   0.874   5.176  0.0204  0.1612  0.1387
  106MOL   C11525525   1.962   0.914   5.256 -0.0879 -0.1329  0.7644
  106MOL   H11625526   2.221   0.649   5.059  2.5294  1.0371 -1.2012
  106MOL   H11725527   2.197   0.611   4.892 -2.2020 -0.3654 -1.0749
  106MOL   H11825528   2.130   0.838   4.842 -0.5752  3.3569  1.1714
  106MOL   H11925529   1.936   1.012   5.216 -2.0147 -0.7322  0.5086
  106MOL   H12025530   1.990   0.908   5.361  1.3786  0.4032  0.4135
  106MOL   H12125531   1.884   0.839   5.239 -0.3606 -0.0185  1.5279
  106MOL   C12225532   2.297   0.879   4.957 -0.3967 -0.1591 -0.3688
  106MOL   C12325533   2.417   0.817   4.877 -0.1891  0.6608 -0.1449
  106MOL   C12425534   2.387   0.806   4.725  1.1012  0.3610 -0.5603
  106MOL   O12525535   2.281   0.757   4.677 -0.1863  0.6167  0.6604
  106MOL   O12625536   2.489   0.842   4.650  0.1434 -0.4144  0.0218
  106MOL   C12725537   2.474   0.839   4.508  0.4751  0.1123 -0.1907
  106MOL   H12825538   2.289   0.982   4.922 -1.4222  0.0944  0.5611
  106MOL   H12925539   2.332   0.886   5.060 -1.6108 -1.4654  0.1593
  106MOL   H13025540   2.436   0.715   4.912 -1.6292 -0.1054 -1.5545
  106MOL   H13125541   2.408   0.760   4.470  2.3689 -2.1502  1.1254
  106MOL   H13225542   2.572   0.817   4.466  0.7833  0.7370  0.1957
  106MOL   H13325543   2.442   0.939   4.477  2.1857  0.3931 -1.0619
  106MOL   C13425544   2.542   0.899   4.915  0.6921 -0.1644  0.3623
  106MOL   C13525545   2.678   0.826   4.889 -0.0468 -0.0259 -0.4610
  106MOL   C13625546   2.780   0.909   4.812  0.3389 -0.3314 -0.0209
  106MOL   O13725547   2.813   0.872   4.702 -0.4284  0.6761 -0.0131
  106MOL   O13825548   2.814   1.023   4.872  0.6877 -0.0944 -0.2353
  106MOL   C13925549   2.894   1.112   4.790  0.1887  0.5200 -0.0369
  106MOL   H14025550   2.544   0.996   4.866 -2.1376 -0.6864 -0.9073
  106MOL   H14125551   2.544   0.927   5.021  5.3499 -0.4366  0.4166
  106MOL   H14225552   2.647   0.747   4.820  1.0487 -1.9916  1.2377
  106MOL   H14325553   2.904   1.205   4.847  0.2082 -1.5490  3.4150
  106MOL   H14425554   2.837   1.130   4.699 -0.9030  0.5484  0.6489
  106MOL   H14525555   2.995   1.073   4.777  0.3322  0.7450  0.3916
  106MOL   C14625556   2.756   0.778   5.009 -0.5703  0.0144  0.6619
  106MOL   C14725557   2.678   0.669   5.092 -0.2716  0.0510 -0.0276
  106MOL   C14825558   2.644   0.551   5.000  0.5063 -0.3210  0.7366
  106MOL   O14925559   2.526   0.519   4.981 -0.4027  0.1707 -0.0847
  106MOL   O15025560   2.747   0.492   4.941  0.4529 -0.0585  0.0030
  106MOL   C15125561   2.724   0.376   4.865 -0.8618  0.0334  0.3088
  106MOL   H15225562   2.853   0.740   4.977  0.0325  2.2913 -0.2689
  106MOL   H15325563   2.773   0.864   5.074 -3.0530 -0.2849  1.7700
  106MOL   H15425564   2.579   0.710   5.115 -1.2313 -2.4174  0.4280
  106MOL   H15525565   2.669   0.302   4.924  0.2985 -2.6990 -1.8937
  106MOL   H15625566   2.817   0.320   4.855  0.7570  2.9011 -0.9951
  106MOL   H15725567   2.666   0.390   4.774 -0.2662 -1.5909 -0.3469
  106MOL   C15825568   2.753   0.634   5.224  0.8826 -0.4265  0.6072
  106MOL   C15925569   2.671   0.588   5.343 -0.0375  0.5121  0.0867
  106MOL   C16025570   2.757   0.534   5.457  0.6331  0.4091 -0.4744
  106MOL   O16125571   2.739   0.418   5.508  0.0760 -0.4822  0.0719
  106MOL   O16225572   2.853   0.617   5.495 -0.3970  0.0525  0.1189
  106MOL   C16325573   2.944   0.572   5.599 -0.6632 -0.2132  0.6778
  106MOL   H16425574   2.841   0.571   5.221  1.1415 -0.1009  1.1936
  106MOL   H16525575   2.794   0.730   5.254  1.9556 -0.4040 -0.8705
  106MOL   H16625576   2.601   0.512   5.310 -1.0212  0.6870  1.7092
  106MOL   H16725577   2.989   0.475   5.578  1.6485  0.8601  0.4037
  106MOL   H16825578   2.897   0.576   5.697 -1.1810 -1.6470  0.5035
  106MOL   H16925579   3.017   0.652   5.587 -0.4984 -0.4705 -0.1350
  106MOL   C17025580   2.588   0.709   5.392  0.4587 -0.1639 -0.3627
  106MOL   C17125581   2.433   0.688   5.427 -0.2445 -0.2035 -0.6340
  106MOL   C17225582   2.411   0.602   5.540  0.7473 -0.2946  0.9589
  106MOL   O17325583   2.495   0.592   5.631 -0.1833 -0.6032  0.1335
  106MOL   O17425584   2.285   0.551   5.538 -0.4713  0.1299 -0.4334
  106MOL   C17525585   2.244   0.454   5.635 -0.2237  0.4084  0.5839
  106MOL   H17625586   2.634   0.745   5.484  1.6690  2.5758 -1.9520
  106MOL   H17725587   2.591   0.790   5.318  0.0016 -0.3811 -0.6191
  106MOL   H17825588   2.404   0.630   5.339  0.5777  1.3650 -1.9572
  106MOL   H17925589   2.268   0.360   5.586  0.7913  1.6301 -1.3425
  106MOL   H18025590   2.138   0.465   5.656 -0.2645  0.1530  0.5056
  106MOL   H18125591   2.304   0.466   5.726 -0.9923 -0.5035  1.2173
  106MOL   C18225592   2.348   0.817   5.435  0.6716 -0.5258 -0.3589
  106MOL   C18325593   2.380   0.899   5.568  0.1437  0.6264 -0.3018
  106MOL   C18425594   2.475   1.024   5.545 -0.1104 -0.0512  0.5042
  106MOL   O18525595   2.468   1.089   5.438 -0.5280 -0.0938  0.0209
  106MOL   O18625596   2.567   1.042   5.639 -0.1114  0.4251  0.0176
  106MOL   C18725597   2.643   1.166   5.642  0.0555  0.2990 -0.0662
  106MOL   H18825598   2.369   0.872   5.343  2.0893 -1.2354 -0.4665
  106MOL   H18925599   2.241   0.802   5.421  0.6557 -0.3478 -0.4345
  106MOL   H19025600   2.441   0.848   5.642 -1.3861  1.2615  1.4475
  106MOL   H19125601   2.716   1.159   5.722  1.8055  1.1819 -1.5534
  106MOL   H19225602   2.573   1.247   5.659 -1.5052 -0.7406 -1.3475
  106MOL   H19325603   2.688   1.188   5.545  0.0787  0.8137  0.0632
  106MOL   C19425604   2.250   0.958   5.628  0.3892 -0.3027 -0.4974
  106MOL   C19525605   2.171   0.846   5.708 -0.5804 -0.4161 -0.3326
  106MOL   C19625606   2.253   0.782   5.825 -0.9612  0.0014  0.2347
  106MOL   O19725607   2.359   0.822   5.871 -0.0914 -0.1523 -0.4019
  106MOL   O19825608   2.204   0.672   5.878 -0.0192  0.0997  0.2451
  106MOL   C19925609   2.283   0.609   5.982  0.0326 -0.5684  0.0403
  106MOL   H20025610   2.271   1.041   5.696  2.9100  1.2602 -3.0817
  106MOL   H20125611   2.187   0.995   5.548  1.2121 -0.2740 -1.1297
  106MOL   H20225612   2.142   0.770   5.636 -1.0083  0.2310 -0.8472
  106MOL   H20325613   2.363   0.551   5.936  1.2506  1.3782 -0.3292
  106MOL   H20425614   2.224   0.531   6.031 -0.8050  1.2608  2.0047
  106MOL   H20525615   2.330   0.682   6.048  1.5387 -2.1239  0.7296
  106MOL   C20625616   2.049   0.902   5.776  0.0531 -0.2649 -0.3618
  106MOL   C20725617   1.924   0.927   5.687 -0.4176 -0.2504 -0.0070
  106MOL   C20825618   1.870   0.789   5.641  0.1964 -0.9840 -0.5291
  106MOL   O20925619   1.870   0.758   5.517 -0.4386 -0.5401  0.3268
  106MOL   O21025620   1.834   0.704   5.742  0.4469  0.0318  1.0095
  106MOL   C21125621   1.806   0.564   5.718 -0.0881 -0.0058 -0.2824
  106MOL   H21225622   2.015   0.850   5.866  2.0127 -2.5532 -0.8923
  106MOL   H21325623   2.070   1.003   5.811 -0.1498 -0.2431 -0.3017
  106MOL   H21425624   1.961   0.979   5.598  2.1224 -0.1018  1.0817
  106MOL   H21525625   1.716   0.546   5.777  0.3474  2.9921  1.4060
  106MOL   H21625626   1.880   0.490   5.747  1.5011  1.3206 -0.8504
  106MOL   H21725627   1.769   0.558   5.615 -0.5954  2.5871 -0.3009
  106MOL   C21825628   1.814   1.005   5.760  0.2237 -0.2426  0.0937
  106MOL   C21925629   1.706   1.059   5.664 -0.4051 -0.2104  0.3877
  106MOL   C22025630   1.595   1.138   5.737 -0.3341 -0.1816  0.7309
  106MOL   O22125631   1.562   1.254   5.707 -0.2807 -0.5969 -0.0122
  106MOL   O22225632   1.532   1.068   5.827  0.2412 -0.1533 -0.6853
  106MOL   C22325633   1.421   1.125   5.896 -0.0535  0.0612 -0.1168
  106MOL   H22425634   1.781   0.935   5.837  0.9216 -0.7804 -0.0925
  106MOL   H22525635   1.853   1.089   5.817 -1.9862 -0.5689  2.1786
  106MOL   H22625636   1.659   0.971   5.621 -2.8399  1.1478  0.1941
  106MOL   H22725637   1.346   1.154   5.823  0.0164  2.0093  0.5367
  106MOL   H22825638   1.455   1.216   5.946 -0.9064  0.1195  0.3688
  106MOL   H22925639   1.380   1.056   5.970  1.2050 -0.6194 -0.0393
  106MOL   C23025640   1.757   1.134   5.536  1.0097 -0.2950 -0.8675
  106MOL   C23125641   1.833   1.271   5.554  0.5602  0.6550  0.2308
  106MOL   C23225642   1.964   1.272   5.629 -0.0876 -0.4320 -0.0711
  106MOL   O23325643   2.076   1.239   5.574 -0.6904  0.5993  0.5607
  106MOL   O23425644   1.941   1.306   5.758  0.2987 -0.1844  0.2633
  106MOL   C23525645   2.057   1.334   5.838  0.8478  0.1130  0.1729
  106MOL   H23625646   1.811   1.065   5.470  0.7590 -1.7968  0.4591
  106MOL   H23725647   1.680   1.148   5.461  0.4035  0.5122 -0.1135
  106MOL   H23825648   1.763   1.340   5.601  0.1082  0.7388 -0.5552
  106MOL   H23925649   2.116   1.248   5.870 -0.2242  0.0281  2.0126
  106MOL   H24025650   2.032   1.380   5.934 -0.6119  0.1237 -0.2071
  106MOL   H24125651   2.127   1.401   5.787  1.9106 -2.3712 -1.7286
  106MOL   H24225652   1.865   1.315   5.459 -3.0853  0.6983 -1.0545
  107MOL     C125653   6.933   3.463   2.282  0.0907 -0.4295 -1.0828
  107MOL     C225654   6.831   3.353   2.303 -0.4311  0.1141 -0.3841
  107MOL     C325655   6.895   3.243   2.390  0.1294 -0.2619 -0.3638
  107MOL     O425656   6.968   3.265   2.483  0.1996 -0.2583 -0.2908
  107MOL     O525657   6.840   3.126   2.361  0.0113  0.1531  0.1903
  107MOL     C625658   6.899   3.009   2.399  0.4238  0.1953 -0.1300
  107MOL     H725659   6.902   3.531   2.203  1.6187  1.6572  0.0698
  107MOL     H825660   7.031   3.420   2.266 -0.7687 -2.4407 -1.1267
  107MOL     H925661   6.821   3.308   2.204  0.8004 -0.8561 -0.0900
  107MOL    H1025662   7.006   3.010   2.380 -0.1163 -0.1704 -3.4879
  107MOL    H1125663   6.843   2.928   2.354  0.1642 -0.1332  0.7744
  107MOL    H1225664   6.877   2.982   2.502  2.1019 -1.4119 -0.1703
  107MOL    H1325665   6.940   3.531   2.367 -1.2599  1.0552 -2.1341
  107MOL    C1425666   6.696   3.401   2.355 -0.8115 -0.3556  0.0175
  107MOL    C1525667   6.619   3.478   2.252  0.8283 -0.2521  0.7608
  107MOL    C1625668   6.579   3.388   2.126 -0.3071  0.4368 -0.2869
  107MOL    O1725669   6.628   3.414   2.016 -0.7756  0.4246  0.2263
  107MOL    O1825670   6.481   3.295   2.140  0.0823  0.0762 -0.4971
  107MOL    C1925671   6.427   3.236   2.028  0.6575  0.2665  0.8910
  107MOL    H2025672   6.649   3.309   2.390  1.1588 -1.2202  0.4527
  107MOL    H2125673   6.722   3.459   2.444 -1.7362  3.1892 -1.9065
  107MOL    H2225674   6.680   3.558   2.210  0.7853  0.2078  1.5845
  107MOL    H2325675   6.494   3.204   1.948  0.0144  0.6578  0.1832
  107MOL    H2425676   6.352   3.301   1.981  0.5114 -0.9176 -0.5515
  107MOL    H2525677   6.376   3.155   2.079  0.6297  0.3114  0.9339
  107MOL    C2625678   6.501   3.559   2.308 -0.2760 -0.3244 -0.4319
  107MOL    C2725679   6.384   3.479   2.368 -0.9643  0.0062 -0.6777
  107MOL    C2825680   6.409   3.440   2.515  0.7331  0.2503 -0.5616
  107MOL    O2925681   6.461   3.509   2.597  0.7419 -0.1803 -0.0188
  107MOL    O3025682   6.361   3.317   2.527  0.1207 -0.1012  0.5264
  107MOL    C3125683   6.375   3.242   2.642  0.1213 -0.1842 -0.4268
  107MOL    H3225684   6.550   3.623   2.381  1.7727 -1.1815 -1.0391
  107MOL    H3325685   6.455   3.624   2.234 -1.5126  0.1095  0.6852
  107MOL    H3425686   6.374   3.389   2.308 -1.0604  0.4208 -1.2787
  107MOL    H3525687   6.474   3.254   2.685 -1.0639  1.2757  2.0621
  107MOL    H3625688   6.371   3.135   2.625  1.6163 -0.4190  0.6630
  107MOL    H3725689   6.305   3.278   2.718 -0.1452 -0.6355 -0.4565
  107MOL    C3825690   6.248   3.547   2.359  0.5366  0.2584 -0.1002
  107MOL    C3925691   6.169   3.523   2.223  0.4859  0.7402  0.0499
  107MOL    C4025692   6.126   3.376   2.197 -0.5634 -0.3242  0.0366
  107MOL    O4125693   6.114   3.337   2.083 -0.1635  0.3647  0.2299
  107MOL    O4225694   6.106   3.300   2.307  0.1016  0.0316 -0.1782
  107MOL    C4325695   6.090   3.159   2.289 -0.7718 -0.7048 -1.0493
  107MOL    H4425696   6.174   3.513   2.432 -1.1303  1.3205 -1.2693
  107MOL    H4525697   6.248   3.653   2.384 -2.2577  0.5827 -1.2559
  107MOL    H4625698   6.245   3.546   2.149  0.6425 -0.6723 -0.2503
  107MOL    H4725699   5.995   3.144   2.236 -1.3583 -0.8378  0.0244
  107MOL    H4825700   6.077   3.114   2.387 -0.3387  1.5616  0.0629
  107MOL    H4925701   6.172   3.114   2.233 -1.2206 -2.6707 -0.1973
  107MOL    C5025702   6.052   3.622   2.213 -0.0687  0.0205 -0.5802
  107MOL    C5125703   6.011   3.654   2.065  0.6077 -0.2057 -0.1523
  107MOL    C5225704   5.864   3.615   2.031  0.1661  0.5346  0.2935
  107MOL    O5325705   5.766   3.691   2.037 -0.3384 -0.6996 -0.3813
  107MOL    O5425706   5.846   3.490   1.988  0.1024  0.4119  0.1924
  107MOL    C5525707   5.725   3.444   1.931  0.3065 -0.0240 -0.0933
  107MOL    H5625708   5.966   3.599   2.277  0.0209 -2.1410 -1.1849
  107MOL    H5725709   6.087   3.715   2.258 -2.0650  0.0730  0.9030
  107MOL    H5825710   6.071   3.595   1.996  2.3613  1.5341 -0.1479
  107MOL    H5925711   5.735   3.358   1.866 -1.7362  0.8812 -1.6680
  107MOL    H6025712   5.692   3.521   1.861 -2.2539 -1.0691 -0.0834
  107MOL    H6125713   5.645   3.417   2.000  1.6663  0.0310  1.5374
  107MOL    C6225714   6.040   3.800   2.025  0.7290 -0.3010 -0.0685
  107MOL    C6325715   6.190   3.834   2.001  0.1341 -0.0035 -0.1064
  107MOL    C6425716   6.243   3.755   1.881 -0.3031 -0.4088  0.2447
  107MOL    O6525717   6.308   3.652   1.909 -0.1720  0.1782 -0.4472
  107MOL    O6625718   6.208   3.803   1.765 -0.2445 -0.0986 -0.1630
  107MOL    C6725719   6.263   3.745   1.646 -0.4722  0.2279  0.3987
  107MOL    H6825720   5.988   3.840   1.938 -1.4283  1.3342  1.9050
  107MOL    H6925721   5.999   3.859   2.107  1.0558 -2.6337  1.8226
  107MOL    H7025722   6.245   3.805   2.091 -1.3648 -0.2029  0.7462
  107MOL    H7125723   6.309   3.647   1.648  0.2968  0.6120  1.8827
  107MOL    H7225724   6.337   3.819   1.615  0.2209 -0.0786  1.2936
  107MOL    H7325725   6.185   3.735   1.570 -1.1514 -0.0966  1.1396
  107MOL    C7425726   6.215   3.983   1.989  0.0550 -0.3988  0.5196
  107MOL    C7525727   6.173   4.061   2.114  0.3147 -1.3829  0.1302
  107MOL    C7625728   6.248   4.015   2.240  0.2517 -0.0751  0.4825
  107MOL    O7725729   6.203   4.001   2.354  0.7843  0.2995  0.3480
  107MOL    O7825730   6.372   3.983   2.208 -0.2827  0.1569  0.5815
  107MOL    C7925731   6.447   3.914   2.315 -0.2277  0.4266 -0.9372
  107MOL    H8025732   6.322   3.995   1.971 -0.1713 -1.8931 -1.9499
  107MOL    H8125733   6.181   4.030   1.896  0.4591  0.1139  0.6254
  107MOL    H8225734   6.067   4.052   2.139  0.3585 -1.6537  0.2122
  107MOL    H8325735   6.541   3.878   2.273 -0.5397 -0.0454 -1.2480
  107MOL    H8425736   6.397   3.824   2.351 -0.4178 -0.0558 -2.3510
  107MOL    H8525737   6.479   3.979   2.395 -1.8534 -0.2113  0.2675
  107MOL    C8625738   6.217   4.210   2.077 -0.0406 -0.9243  0.0189
  107MOL    C8725739   6.133   4.276   1.966  0.4887 -0.2750 -0.4896
  107MOL    C8825740   5.985   4.280   2.007  0.1511 -0.0759 -0.4302
  107MOL    O8925741   5.937   4.388   2.055  0.3842 -0.4431  0.3314
  107MOL    O9025742   5.926   4.159   1.991  0.4817 -0.1109 -0.1494
  107MOL    C9125743   5.786   4.141   2.029  0.1861  0.2191  0.3590
  107MOL    H9225744   6.213   4.267   2.169  0.2367 -1.6980  0.5199
  107MOL    H9325745   6.323   4.219   2.052 -0.4070  0.5378 -1.0268
  107MOL    H9425746   6.138   4.227   1.869  0.5912  0.1972 -0.7247
  107MOL    H9525747   5.751   4.045   1.991 -2.2544  1.0691  0.3840
  107MOL    H9625748   5.741   4.227   1.979  1.6911  0.2849 -0.9160
  107MOL    H9725749   5.769   4.136   2.137 -0.2170  2.6087  0.4398
  107MOL    C9825750   6.198   4.419   1.942  0.3375 -0.6736 -0.7207
  107MOL    C9925751   6.159   4.510   1.823  0.2894  0.2618 -0.4146
  107MOL   C10025752   6.182   4.433   1.688  0.7193  0.1390  0.1650
  107MOL   O10125753   6.098   4.431   1.603 -0.1411 -0.1813 -0.0113
  107MOL   O10225754   6.296   4.359   1.686  0.1392 -0.7135 -0.1431
  107MOL   C10325755   6.304   4.257   1.588  0.4400  0.0077 -0.0740
  107MOL   H10425756   6.184   4.467   2.038 -1.3057 -0.8630 -0.8547
  107MOL   H10525757   6.307   4.412   1.939  0.4394  1.3600 -4.0947
  107MOL   H10625758   6.237   4.586   1.821 -1.3886  2.0353 -0.1067
  107MOL   H10725759   6.234   4.177   1.612  0.0499 -0.2506 -2.0315
  107MOL   H10825760   6.404   4.217   1.601 -0.4575 -2.3726 -0.3312
  107MOL   H10925761   6.282   4.295   1.489  0.7525  2.0590  0.6154
  107MOL   C11025762   6.019   4.585   1.835  0.1283  0.6137 -0.3131
  107MOL   C11125763   6.021   4.724   1.762 -0.0062  0.9137 -0.0677
  107MOL   C11225764   6.009   4.733   1.610 -0.5463  0.1677  0.0053
  107MOL   O11325765   6.092   4.797   1.544  0.4759 -0.1265 -0.3137
  107MOL   O11425766   5.904   4.661   1.569 -0.2191  0.2683  0.5342
  107MOL   C11525767   5.867   4.671   1.430 -0.1336  0.0678  0.5362
  107MOL   H11625768   5.933   4.523   1.808 -2.2355  1.9081  3.8862
  107MOL   H11725769   5.998   4.607   1.939 -0.7716  3.2967 -1.0190
  107MOL   H11825770   6.119   4.771   1.771  0.0239  0.6785  0.8116
  107MOL   H11925771   5.769   4.630   1.405 -0.4577  1.1299  0.0100
  107MOL   H12025772   5.927   4.606   1.367 -0.7318 -1.0462  1.0887
  107MOL   H12125773   5.868   4.776   1.401 -1.7452 -0.6506 -2.2743
  107MOL   C12225774   5.942   4.838   1.823 -0.2545  0.2583  0.1980
  107MOL   C12325775   5.786   4.826   1.832 -0.1859 -0.3607 -0.3422
  107MOL   C12425776   5.746   4.738   1.955  0.1537  0.1063 -0.0871
  107MOL   O12525777   5.691   4.631   1.941 -0.1631 -0.7819  0.2017
  107MOL   O12625778   5.788   4.780   2.075  0.2373 -0.1984 -0.2382
  107MOL   C12725779   5.807   4.689   2.185  0.4241 -0.3366 -0.1206
  107MOL   H12825780   5.993   4.839   1.920 -1.2884  0.6743  0.7412
  107MOL   H12925781   5.956   4.932   1.770  0.6819  1.1677  2.0355
  107MOL   H13025782   5.749   4.785   1.738 -0.4038  2.0290 -1.3173
  107MOL   H13125783   5.712   4.637   2.201 -0.2426  0.0941 -2.5090
  107MOL   H13225784   5.826   4.759   2.267  1.7653  0.3900 -1.0320
  107MOL   H13325785   5.887   4.619   2.159  1.1071  0.9214 -1.4573
  107MOL   C13425786   5.709   4.961   1.843 -0.0232  0.3488  0.3932
  107MOL   C13525787   5.712   5.047   1.714 -0.0518 -0.3305  0.2567
  107MOL   C13625788   5.674   4.980   1.584  0.7448 -0.2799 -0.5447
  107MOL   O13725789   5.755   4.968   1.495 -0.9078 -0.6062  0.1250
  107MOL   O13825790   5.543   4.940   1.575 -0.1908 -0.6715  0.4402
  107MOL   C13925791   5.487   4.901   1.452  0.3938  0.5486 -0.0985
  107MOL   H14025792   5.605   4.932   1.856 -0.3863  1.1960 -0.5564
  107MOL   H14125793   5.750   5.011   1.932 -1.8357  0.7920  1.0002
  107MOL   H14225794   5.814   5.082   1.699 -0.2580 -0.6073 -1.9356
  107MOL   H14325795   5.378   4.910   1.458  0.4430  1.8439 -0.9427
  107MOL   H14425796   5.510   4.795   1.442  0.7927  0.4882  1.3313
  107MOL   H14525797   5.516   4.953   1.361  0.8799  0.0178 -0.2421
  107MOL   C14625798   5.628   5.176   1.729  0.4456  0.4738 -0.4680
  107MOL   C14725799   5.684   5.270   1.844 -0.4974  0.0443 -0.6232
  107MOL   C14825800   5.832   5.298   1.827 -0.4888  0.4788 -0.5661
  107MOL   O14925801   5.915   5.231   1.889  0.5905  0.3289 -0.0842
  107MOL   O15025802   5.860   5.391   1.737 -0.5294 -0.0245 -0.1015
  107MOL   C15125803   5.988   5.410   1.706  0.0486  0.0451  0.1166
  107MOL   H15225804   5.632   5.237   1.638 -0.8232  2.6358  0.8650
  107MOL   H15325805   5.522   5.154   1.741  0.9800 -1.3010  1.1640
  107MOL   H15425806   5.677   5.205   1.931  0.9281  2.7735  1.5932
  107MOL   H15525807   6.045   5.430   1.796  1.1241 -0.1798 -0.5083
  107MOL   H15625808   5.999   5.492   1.635 -2.7667  0.4728  0.0950
  107MOL   H15725809   6.036   5.317   1.676  2.4888  1.5191 -0.6548
  107MOL   C15825810   5.590   5.398   1.854  0.3150  0.0904 -0.7649
  107MOL   C15925811   5.457   5.396   1.923 -0.2704  0.1500 -0.2969
  107MOL   C16025812   5.479   5.353   2.066 -0.1973  0.3651  0.0091
  107MOL   O16125813   5.499   5.230   2.095  0.2242 -0.0079 -0.0618
  107MOL   O16225814   5.471   5.454   2.158  0.6627 -0.5469  0.2428
  107MOL   C16325815   5.451   5.421   2.290 -0.3394 -0.1202 -0.1244
  107MOL   H16425816   5.652   5.478   1.895 -1.4517  0.8000  0.6318
  107MOL   H16525817   5.579   5.426   1.750 -0.2811 -0.3554 -0.8311
  107MOL   H16625818   5.395   5.315   1.886  0.0677 -0.7660  1.1074
  107MOL   H16725819   5.533   5.356   2.320 -2.2641 -2.3232  0.5112
  107MOL   H16825820   5.364   5.356   2.300  0.0189 -0.3173  1.9833
  107MOL   H16925821   5.457   5.506   2.357 -1.5271 -0.2402  0.1394
  107MOL   C17025822   5.370   5.523   1.909 -0.1207 -0.1939 -0.4465
  107MOL   C17125823   5.322   5.562   1.763  0.4813 -0.0033  1.0866
  107MOL   C17225824   5.218   5.463   1.715  0.4964  0.0844 -0.6993
  107MOL   O17325825   5.187   5.368   1.785  0.0126 -0.0044 -0.6369
  107MOL   O17425826   5.165   5.498   1.596  0.0159  0.8198 -0.2608
  107MOL   C17525827   5.064   5.421   1.539 -0.4110 -0.4680 -0.1203
  107MOL   H17625828   5.284   5.507   1.974  0.1518 -0.3592 -0.1203
  107MOL   H17725829   5.431   5.604   1.950 -0.4704 -0.6486  1.0326
  107MOL   H17825830   5.404   5.528   1.701  0.0464 -0.4892  0.7764
  107MOL   H17925831   4.969   5.457   1.580  1.7059  2.4128  2.5042
  107MOL   H18025832   5.085   5.315   1.550  5.0460  0.5048  0.0662
  107MOL   H18125833   5.043   5.439   1.433  0.8384 -0.0603 -0.3099
  107MOL   C18225834   5.289   5.716   1.751  0.1362 -0.2959 -0.0783
  107MOL   C18325835   5.144   5.757   1.788 -0.4659  0.0732  0.0344
  107MOL   C18425836   5.092   5.727   1.932  0.1404 -0.5376 -0.0710
  107MOL   O18525837   5.165   5.740   2.027 -0.6761 -0.1151  0.4253
  107MOL   O18625838   4.965   5.691   1.931 -0.2033  0.1775 -0.1777
  107MOL   C18725839   4.890   5.683   2.055 -0.5210 -0.1285 -0.0301
  107MOL   H18825840   5.343   5.779   1.823  0.5033 -1.5572  0.7697
  107MOL   H18925841   5.297   5.754   1.649 -0.1075  0.0868  0.0457
  107MOL   H19025842   5.085   5.693   1.722 -2.0293 -0.1709  1.6215
  107MOL   H19125843   4.905   5.580   2.089 -0.6032  0.6902  2.5923
  107MOL   H19225844   4.783   5.699   2.041 -0.8367  0.2686  2.5277
  107MOL   H19325845   4.934   5.761   2.117 -2.3614 -0.5105  1.8241
  107MOL   C19425846   5.116   5.902   1.748  0.6302  0.7442  0.4698
  107MOL   C19525847   5.063   5.927   1.609  0.0633  0.1735  0.0110
  107MOL   C19625848   4.909   5.891   1.607 -0.6397 -0.3522 -0.2813
  107MOL   O19725849   4.865   5.786   1.561  0.1261 -0.4706  0.0493
  107MOL   O19825850   4.839   5.975   1.681 -0.1431  0.4096  0.1178
  107MOL   C19925851   4.703   5.964   1.680 -0.0634  0.1984  0.2898
  107MOL   H20025852   5.046   5.945   1.820  1.2666  1.5399  0.6305
  107MOL   H20125853   5.210   5.954   1.766  2.1638 -1.3747 -1.2388
  107MOL   H20225854   5.099   5.859   1.532  0.4397  0.7148 -0.2929
  107MOL   H20325855   4.673   6.060   1.722 -2.8714  0.9218 -3.1074
  107MOL   H20425856   4.667   5.883   1.744  1.2617 -2.6258 -2.4363
  107MOL   H20525857   4.661   5.950   1.580  1.0354  0.9752 -0.2796
  107MOL   C20625858   5.092   6.072   1.574 -0.4982 -0.6792  0.1133
  107MOL   C20725859   5.236   6.110   1.529  0.0723  0.5974 -0.5778
  107MOL   C20825860   5.291   6.013   1.429 -0.3012  0.4194  0.5632
  107MOL   O20925861   5.241   5.997   1.319 -0.3503 -0.3434  0.3147
  107MOL   O21025862   5.391   5.938   1.476 -0.3167  0.1613  0.0543
  107MOL   C21125863   5.458   5.844   1.388 -0.2401 -0.0020 -0.3959
  107MOL   H21225864   5.027   6.102   1.491 -0.8396 -0.7706  0.3495
  107MOL   H21325865   5.059   6.130   1.660  0.6457  0.1237  0.0213
  107MOL   H21425866   5.289   6.091   1.622  0.7120 -0.7719 -1.2026
  107MOL   H21525867   5.541   5.889   1.334 -0.3402  0.3211 -0.2841
  107MOL   H21625868   5.406   5.793   1.307 -2.2589 -0.2191  1.0043
  107MOL   H21725869   5.507   5.772   1.454 -0.2123  2.6081  2.5742
  107MOL   C21825870   5.256   6.259   1.480  0.0028  0.5585 -0.1348
  107MOL   C21925871   5.399   6.296   1.431  0.2530  0.2670  0.4872
  107MOL   C22025872   5.383   6.419   1.336 -0.7440 -1.1087 -1.0268
  107MOL   O22125873   5.421   6.411   1.216 -0.2553 -0.5470  0.1410
  107MOL   O22225874   5.336   6.527   1.391 -0.0562  0.1652 -0.3382
  107MOL   C22325875   5.319   6.645   1.317  0.0839 -0.4246 -0.4881
  107MOL   H22425876   5.182   6.274   1.402 -1.4002  1.2404  1.3070
  107MOL   H22525877   5.224   6.328   1.558  0.4642  1.2401 -0.5560
  107MOL   H22625878   5.423   6.215   1.362 -0.9465 -0.6121  1.0880
  107MOL   H22725879   5.241   6.623   1.243  1.3496 -0.4433 -1.8395
  107MOL   H22825880   5.406   6.673   1.258  0.3506  1.6374  0.8372
  107MOL   H22925881   5.282   6.718   1.389 -0.1663 -1.7151  0.7011
  107MOL   C23025882   5.505   6.333   1.539  0.9549 -0.1761 -0.1785
  107MOL   C23125883   5.654   6.352   1.496 -0.1766  0.4981 -0.1981
  107MOL   C23225884   5.708   6.222   1.433 -0.4799  0.7913 -0.4917
  107MOL   O23325885   5.638   6.123   1.409  0.3001  0.2817 -0.2396
  107MOL   O23425886   5.838   6.235   1.406  0.4418 -0.0857  0.4305
  107MOL   C23525887   5.903   6.120   1.357 -0.3419 -0.3333  0.2136
  107MOL   H23625888   5.481   6.428   1.587  2.2317 -0.2032  0.5511
  107MOL   H23725889   5.498   6.262   1.622 -1.8600  1.2103  0.8436
  107MOL   H23825890   5.715   6.393   1.577 -1.8732  0.8374  0.9334
  107MOL   H23925891   5.849   6.095   1.265  0.6502 -3.2727  0.3656
  107MOL   H24025892   5.886   6.033   1.421  2.0796 -0.9123  0.1276
  107MOL   H24125893   6.008   6.135   1.330 -0.1570 -0.0929  1.0561
  107MOL   H24225894   5.672   6.429   1.421  0.8107 -0.3861 -0.8850
  108MOL     C125895   0.191   7.331   5.425 -0.3096 -0.2310 -0.1089
  108MOL     C225896   0.182   7.423   5.554 -0.4399  0.5261  0.7055
  108MOL     C325897   0.035   7.420   5.589  0.5663  0.1580 -0.6180
  108MOL     O425898   7.890   7.515   5.559 -1.0563  0.2156 -0.3621
  108MOL     O525899   7.931   7.305   5.643 -0.2537 -0.1051  0.1585
  108MOL     C625900   7.793   7.297   5.686  0.1986 -0.4383  0.1876
  108MOL     H725901   0.170   7.228   5.452 -1.1775 -0.3164 -1.0889
  108MOL     H825902   0.284   7.358   5.374 -0.2661  0.5077  0.3529
  108MOL     H925903   0.221   7.519   5.521 -0.3945 -0.0103 -0.8384
  108MOL    H1025904   7.783   7.352   5.780 -0.5666  0.9694 -0.7042
  108MOL    H1125905   7.762   7.195   5.710  0.6506 -0.0270  2.6564
  108MOL    H1225906   7.717   7.333   5.617  0.1817  0.8359  0.8572
  108MOL    H1325907   0.107   7.363   5.363  1.3729  1.6886 -1.4923
  108MOL    C1425908   0.278   7.366   5.658 -0.3416  0.4545 -0.0992
  108MOL    C1525909   0.423   7.364   5.617 -0.2719  0.0640  0.2539
  108MOL    C1625910   0.474   7.500   5.601  0.3442  0.3191  0.2694
  108MOL    O1725911   0.434   7.593   5.668  0.3617 -0.3448 -0.3834
  108MOL    O1825912   0.573   7.495   5.511  0.0978 -0.2751  0.0379
  108MOL    C1925913   0.665   7.605   5.500 -0.0062 -0.2977 -0.2240
  108MOL    H2025914   0.258   7.434   5.741 -1.2511 -0.5726  0.5343
  108MOL    H2125915   0.249   7.265   5.688  2.0516  0.2729  1.7614
  108MOL    H2225916   0.447   7.317   5.522 -0.1563  0.8717 -0.1201
  108MOL    H2325917   0.614   7.700   5.483 -1.2228 -1.0183 -0.6670
  108MOL    H2425918   0.748   7.571   5.437 -1.0352 -0.8767 -1.3026
  108MOL    H2525919   0.713   7.610   5.598 -0.5108 -0.5489  0.0368
  108MOL    C2625920   0.508   7.283   5.711 -0.1018  0.5288  0.7894
  108MOL    C2725921   0.486   7.130   5.715  0.1109  0.9452  0.2793
  108MOL    C2825922   0.492   7.066   5.574 -0.2251  0.2046  0.0283
  108MOL    O2925923   0.599   7.020   5.531  0.6203  0.0557 -0.6575
  108MOL    O3025924   0.371   7.066   5.522  0.1424 -0.4221 -0.6561
  108MOL    C3125925   0.352   6.987   5.406 -0.4164 -0.6857 -0.1806
  108MOL    H3225926   0.607   7.308   5.675 -0.5302  3.0869  1.3199
  108MOL    H3325927   0.499   7.326   5.811  0.3054  0.1709  0.9816
  108MOL    H3425928   0.389   7.115   5.763  0.7705 -2.2572  0.7433
  108MOL    H3525929   0.377   6.881   5.416  0.3326 -0.5396 -0.4333
  108MOL    H3625930   0.401   7.035   5.321 -0.8617 -0.1276 -0.1197
  108MOL    H3725931   0.245   6.985   5.388 -0.2701  0.1701 -1.1617
  108MOL    C3825932   0.587   7.053   5.807  0.4386  0.5878  0.1127
  108MOL    C3925933   0.579   7.070   5.962 -0.6201 -0.3777  0.2011
  108MOL    C4025934   0.472   6.984   6.023  0.0501 -0.0600 -0.7197
  108MOL    O4125935   0.432   6.875   5.981  0.0049 -0.0548 -0.0382
  108MOL    O4225936   0.436   7.028   6.141 -0.7230  0.3863 -0.7891
  108MOL    C4325937   0.332   6.956   6.206 -0.4500 -0.0104 -0.5827
  108MOL    H4425938   0.591   6.945   5.791  0.7793  0.8143 -1.4186
  108MOL    H4525939   0.691   7.064   5.775 -0.0078  0.5279 -1.3845
  108MOL    H4625940   0.543   7.169   5.991 -1.0070  0.2371 -2.2534
  108MOL    H4725941   0.244   6.952   6.142 -1.9197  1.2223  1.3459
  108MOL    H4825942   0.310   6.996   6.304 -0.3105 -0.2237 -0.4633
  108MOL    H4925943   0.361   6.852   6.224  1.2242  0.3297 -1.1594
  108MOL    C5025944   0.715   7.041   6.029  0.1166 -0.2651 -0.2562
  108MOL    C5125945   0.820   7.145   6.005  0.4643  0.6146 -0.1707
  108MOL    C5225946   0.782   7.288   6.067 -0.4935  0.5416  0.4849
  108MOL    O5325947   0.727   7.366   5.996 -0.3061  0.4661  0.1459
  108MOL    O5425948   0.796   7.304   6.200 -0.0386  0.3460  0.0547
  108MOL    C5525949   0.783   7.436   6.260 -0.1555 -0.0414 -0.4892
  108MOL    H5625950   0.693   7.035   6.136 -1.9323 -0.3918 -0.6697
  108MOL    H5725951   0.743   6.940   5.999  1.8139 -0.2150  1.0751
  108MOL    H5825952   0.826   7.165   5.899 -1.0753  0.8747 -0.2184
  108MOL    H5925953   0.841   7.436   6.353 -0.3107 -0.3934 -0.3890
  108MOL    H6025954   0.680   7.457   6.289  0.7085  3.3230  0.2757
  108MOL    H6125955   0.795   7.515   6.187 -3.6660  1.5521  0.5442
  108MOL    C6225956   0.954   7.099   6.063 -0.1691  0.0808 -0.0476
  108MOL    C6325957   1.034   7.003   5.976  0.1890  0.2339 -0.0654
  108MOL    C6425958   1.043   7.042   5.826  0.2387 -0.6467  0.0519
  108MOL    O6525959   1.120   7.131   5.788 -0.5645  0.3310  0.0915
  108MOL    O6625960   0.953   6.981   5.757  0.0860  0.3144  0.1085
  108MOL    C6725961   0.941   7.007   5.622 -0.0670  0.1345  1.1981
  108MOL    H6825962   1.013   7.190   6.076 -1.0292  0.7058 -0.4737
  108MOL    H6925963   0.939   7.058   6.163  1.4708 -1.3042 -0.3640
  108MOL    H7025964   0.971   6.918   6.003  0.8974  0.3607  2.0805
  108MOL    H7125965   1.032   6.994   5.564 -0.7014 -1.1709  0.4792
  108MOL    H7225966   0.896   7.106   5.613  2.6432  1.2858 -0.5876
  108MOL    H7325967   0.869   6.936   5.580 -0.4245  1.4939 -0.5296
  108MOL    C7425968   1.167   6.962   6.034  0.1914  0.3505 -0.7919
  108MOL    C7525969   1.237   6.835   5.967 -0.0418  0.5397 -0.2223
  108MOL    C7625970   1.386   6.848   5.983  0.3744 -0.3052  0.4890
  108MOL    O7725971   1.459   6.859   5.880  0.0949  0.5491 -0.2037
  108MOL    O7825972   1.427   6.857   6.114 -0.4411 -0.1298 -0.8593
  108MOL    C7925973   1.564   6.875   6.143 -0.5909 -0.1673 -0.1641
  108MOL    H8025974   1.240   7.043   6.033 -0.1518  0.7581  2.6285
  108MOL    H8125975   1.158   6.931   6.138 -1.8441  1.0908 -0.7296
  108MOL    H8225976   1.230   6.844   5.859  1.0868  0.8364 -0.2874
  108MOL    H8325977   1.592   6.886   6.247 -0.3621  1.8854 -0.4266
  108MOL    H8425978   1.601   6.957   6.082 -0.0396 -1.7437 -1.9940
  108MOL    H8525979   1.606   6.777   6.120 -0.9987 -0.3787 -0.0164
  108MOL    C8625980   1.188   6.700   6.010 -0.7130  0.2341 -0.0179
  108MOL    C8725981   1.068   6.642   5.925 -0.0173  0.1311 -0.7372
  108MOL    C8825982   1.099   6.634   5.779 -0.5004 -0.4870 -0.1137
  108MOL    O8925983   1.210   6.642   5.722  0.0884 -0.0414  0.2152
  108MOL    O9025984   0.986   6.624   5.701 -0.1282  0.8239  0.3164
  108MOL    C9125985   0.995   6.660   5.565 -0.0366 -0.0820  0.4304
  108MOL    H9225986   1.271   6.631   5.997 -1.3167 -0.5124  0.0107
  108MOL    H9325987   1.159   6.717   6.113 -0.2392  0.4839  0.0739
  108MOL    H9425988   0.993   6.721   5.928  0.6350  0.7168  0.6162
  108MOL    H9525989   1.062   6.596   5.509 -0.0521  1.1289 -1.0185
  108MOL    H9625990   1.039   6.759   5.549  1.9467 -0.8005  1.2100
  108MOL    H9725991   0.899   6.654   5.513  1.3634  0.3181 -2.3104
  108MOL    C9825992   1.011   6.507   5.986 -0.0601  0.4366  0.3863
  108MOL    C9925993   0.965   6.516   6.132  0.3010 -0.2649 -0.0179
  108MOL   C10025994   0.862   6.628   6.145 -0.6040 -1.1174  0.1140
  108MOL   O10125995   0.875   6.721   6.225 -0.1060  0.0274 -0.1544
  108MOL   O10225996   0.759   6.609   6.062 -0.1687 -0.2571  0.4200
  108MOL   C10325997   0.630   6.675   6.079  0.0606  0.0258  0.3185
  108MOL   H10425998   0.926   6.475   5.926 -0.1393 -1.4467  1.4515
  108MOL   H10525999   1.092   6.435   5.972 -1.1216 -0.5648 -0.6760
  108MOL   H10626000   1.052   6.544   6.191 -0.0830  2.3428 -0.6477
  108MOL   H10726001   0.640   6.768   6.135 -0.8381 -0.6230  1.5804
  108MOL   H10826002   0.572   6.602   6.136 -1.5301  0.1415 -1.1427
  108MOL   H10926003   0.586   6.685   5.981 -0.3038 -1.6903  0.2912
  108MOL   C11026004   0.915   6.379   6.202 -0.4988  0.3833 -0.0744
  108MOL   C11126005   0.908   6.380   6.360 -0.0105  0.0660 -0.0136
  108MOL   C11226006   1.047   6.371   6.424 -0.7235  0.0043  0.5281
  108MOL   O11326007   1.093   6.264   6.456 -0.0908 -0.1992  1.0651
  108MOL   O11426008   1.111   6.491   6.430 -0.1441  0.1404  0.4839
  108MOL   C11526009   1.234   6.499   6.499  0.7842 -0.2773  0.5646
  108MOL   H11626010   0.818   6.350   6.163  0.1558 -0.2968 -1.2307
  108MOL   H11726011   0.970   6.294   6.163  1.8539  1.5306  0.6533
  108MOL   H11826012   0.865   6.280   6.366  0.8420 -0.1940  2.1905
  108MOL   H11926013   1.259   6.605   6.512  0.0562 -0.1361  0.8325
  108MOL   H12026014   1.298   6.439   6.434 -1.0642 -1.8522  0.1733
  108MOL   H12126015   1.231   6.451   6.597  0.5272 -0.8242  0.2859
  108MOL   C12226016   0.807   6.474   6.423  0.4107  0.0398 -0.3062
  108MOL   C12326017   0.720   6.416   6.541 -0.2303  0.1772 -0.4104
  108MOL   C12426018   0.776   6.446   6.676  0.4381  0.1513  0.4192
  108MOL   O12526019   0.883   6.510   6.686 -0.3404  0.0771 -0.4012
  108MOL   O12626020   0.712   6.388   6.780  0.2943  0.2035 -0.4221
  108MOL   C12726021   0.760   6.403   6.916  0.7044  0.7476  0.5805
  108MOL   H12826022   0.856   6.566   6.455 -0.0088 -0.2703  1.2695
  108MOL   H12926023   0.734   6.495   6.345  1.0102 -0.3774 -0.9993
  108MOL   H13026024   0.749   6.311   6.533 -1.3184 -0.0290 -1.8120
  108MOL   H13126025   0.859   6.450   6.920  1.7118 -1.2874  0.5164
  108MOL   H13226026   0.776   6.307   6.966  0.5056  0.3772 -0.0462
  108MOL   H13326027   0.682   6.454   6.971 -0.5960  0.4319 -0.9194
  108MOL   C13426028   0.568   6.409   6.532  0.7347 -0.0811  0.4299
  108MOL   C13526029   0.495   6.543   6.548  0.4021  0.0749  0.0295
  108MOL   C13626030   0.453   6.608   6.422  0.2146 -0.1310 -0.0902
  108MOL   O13726031   0.495   6.717   6.379  0.1767 -0.1578  0.0954
  108MOL   O13826032   0.357   6.525   6.366 -0.3140  0.1504  0.1118
  108MOL   C13926033   0.269   6.573   6.262 -0.0364  0.4947  0.1979
  108MOL   H14026034   0.535   6.370   6.436  0.3185 -0.4007  0.7004
  108MOL   H14126035   0.513   6.338   6.593  0.6314 -0.4035 -0.0378
  108MOL   H14226036   0.558   6.617   6.598 -1.1600  1.5024 -0.0604
  108MOL   H14326037   0.198   6.496   6.233  1.5745 -1.7869  2.0879
  108MOL   H14426038   0.337   6.589   6.178  0.1282  1.7049  0.5548
  108MOL   H14526039   0.211   6.659   6.292 -0.3605 -0.7940  3.5310
  108MOL   C14626040   0.375   6.535   6.651  0.6245 -0.0439  0.1526
  108MOL   C14726041   0.298   6.665   6.688 -0.2481 -0.2187  0.3421
  108MOL   C14826042   0.175   6.691   6.600 -0.6228 -0.3677 -0.4441
  108MOL   O14926043   0.163   6.790   6.523 -0.0902 -0.1405 -0.2908
  108MOL   O15026044   0.088   6.593   6.608 -0.4115 -0.4756 -0.6758
  108MOL   C15126045   7.900   6.610   6.546  0.7181  0.3168 -0.9460
  108MOL   H15226046   0.309   6.457   6.616 -0.4562  1.0101 -0.2029
  108MOL   H15326047   0.419   6.490   6.740 -0.8765 -0.4934  0.6740
  108MOL   H15426048   0.358   6.753   6.668  0.7546 -0.9470  0.1112
  108MOL   H15526049   7.833   6.524   6.555 -1.0179  1.6196 -1.2644
  108MOL   H15626050   7.898   6.629   6.439 -0.0821 -0.3760 -1.0582
  108MOL   H15726051   7.846   6.689   6.597 -1.0469  0.0414 -2.3621
  108MOL   C15826052   0.269   6.675   6.840  0.1922 -0.2206  0.2003
  108MOL   C15926053   0.384   6.673   6.945 -0.7308  0.5844  0.4715
  108MOL   C16026054   0.502   6.761   6.904  0.2079  0.0406  0.3722
  108MOL   O16126055   0.508   6.878   6.939  0.0868 -0.4343 -0.1874
  108MOL   O16226056   0.596   6.698   6.837  0.2577  0.0593  0.7627
  108MOL   C16326057   0.705   6.773   6.783  0.5503  0.1283  0.3953
  108MOL   H16426058   0.222   6.772   6.852  0.3033 -0.3748  2.1860
  108MOL   H16526059   0.191   6.600   6.857  0.3601 -0.4252  0.0578
  108MOL   H16626060   0.416   6.569   6.954  2.4041  1.4926  0.4160
  108MOL   H16726061   0.758   6.721   6.703 -0.7526 -0.4790 -0.0901
  108MOL   H16826062   0.767   6.806   6.866  2.4179  1.5374 -1.4917
  108MOL   H16926063   0.660   6.861   6.736  0.3820  0.1970  0.6880
  108MOL   C17026064   0.321   6.725   7.078  0.4492  0.2686  0.1052
  108MOL   C17126065   0.386   6.659   7.204  0.5472 -0.3629 -1.1103
  108MOL   C17226066   0.539   6.652   7.209 -0.2548  0.6054 -0.3851
  108MOL   O17326067   0.600   6.544   7.184 -0.0697 -0.1757  0.6907
  108MOL   O17426068   0.599   6.766   7.244 -0.7431  0.5437  0.2807
  108MOL   C17526069   0.731   6.801   7.203  0.3888  0.1964  0.2444
  108MOL   H17626070   0.310   6.833   7.082  1.5633  0.4261 -0.6121
  108MOL   H17726071   0.217   6.694   7.073  0.2994  1.0295 -2.0250
  108MOL   H17826072   0.354   6.555   7.208  0.9904 -0.4823 -0.5400
  108MOL   H17926073   0.754   6.784   7.097 -0.4473 -1.1935  0.2653
  108MOL   H18026074   0.802   6.741   7.259 -0.2181  0.0204  0.8312
  108MOL   H18126075   0.753   6.905   7.225  0.9835 -0.2756  1.9604
  108MOL   C18226076   0.328   6.706   7.344  0.4019 -0.0067  0.0408
  108MOL   C18326077   0.188   6.651   7.379 -0.3900 -0.0873  0.1782
  108MOL   C18426078   0.192   6.538   7.475 -0.5217 -0.3353  0.1105
  108MOL   O18526079   0.165   6.556   7.598 -0.1889 -0.3270  0.3232
  108MOL   O18626080   0.229   6.420   7.431 -0.1163 -0.2230  0.4407
  108MOL   C18726081   0.200   6.309   7.510  0.0947 -0.1778  0.6397
  108MOL   H18826082   0.397   6.683   7.425 -1.9218 -0.6027  1.9160
  108MOL   H18926083   0.333   6.814   7.357 -2.9811  0.3338 -0.8355
  108MOL   H19026084   0.137   6.608   7.293 -1.1890  1.6594 -0.2375
  108MOL   H19126085   0.097   6.288   7.483  0.2162 -0.3731  0.3283
  108MOL   H19226086   0.197   6.335   7.616  1.1814  1.6069  0.2637
  108MOL   H19326087   0.266   6.223   7.497 -0.9001 -1.1718  2.0048
  108MOL   C19426088   0.096   6.760   7.429  0.1992 -0.7020  0.5360
  108MOL   C19526089   0.061   6.862   7.314  0.5492  0.1179  0.4658
  108MOL   C19626090   7.877   6.819   7.216  0.1959 -0.2486  0.0788
  108MOL   O19726091   7.819   6.708   7.233  0.1467  0.0500  0.2125
  108MOL   O19826092   7.863   6.907   7.114  0.3864 -0.5939  0.5285
  108MOL   C19926093   7.771   6.878   7.018  0.2726  0.9610 -0.0717
  108MOL   H20026094   0.009   6.726   7.485 -0.8345  2.7594  1.1750
  108MOL   H20126095   0.151   6.809   7.510 -0.1941 -1.6848  1.4042
  108MOL   H20226096   0.147   6.882   7.251 -0.3335 -1.0898 -1.1638
  108MOL   H20326097   7.699   6.959   7.003 -0.3787  0.2567 -0.7747
  108MOL   H20426098   7.712   6.790   7.043  1.9981 -0.5567 -1.1354
  108MOL   H20526099   7.830   6.869   6.927  1.3770 -0.8026  0.7809
  108MOL   C20626100   0.021   7.004   7.370 -0.3903 -0.1148  0.1710
  108MOL   C20726101   0.132   7.087   7.441 -0.5742 -0.6589 -1.0362
  108MOL   C20826102   0.263   7.095   7.359  0.2406 -0.3070  0.3020
  108MOL   O20926103   0.369   7.067   7.413  0.0065 -0.3305  0.4052
  108MOL   O21026104   0.244   7.130   7.240 -0.3499  0.3803  0.0755
  108MOL   C21126105   0.354   7.147   7.155  0.0617 -0.3824 -0.1956
  108MOL   H21226106   7.917   7.060   7.284  0.5553  0.6620  0.2696
  108MOL   H21326107   7.859   7.003   7.424 -0.6920 -0.9480 -0.3520
  108MOL   H21426108   0.153   7.037   7.535 -3.0097 -1.3812 -0.8620
  108MOL   H21526109   0.404   7.050   7.159  0.4217 -0.1317  2.2665
  108MOL   H21626110   0.419   7.226   7.191 -0.9779  0.6137 -0.5029
  108MOL   H21726111   0.348   7.167   7.048  2.1194  0.6100 -0.1383
  108MOL   C21826112   0.074   7.228   7.475 -0.3235 -0.4337 -0.3493
  108MOL   C21926113   0.149   7.290   7.602  1.1977  0.1571  0.0488
  108MOL   C22026114   0.136   7.445   7.589 -0.4520  0.5077  0.1840
  108MOL   O22126115   0.227   7.526   7.580  0.1199 -0.0980  0.1349
  108MOL   O22226116   0.010   7.481   7.600  0.1708  0.4414 -0.2874
  108MOL   C22326117   7.905   7.626   7.589 -0.6717  0.0745  0.1420
  108MOL   H22426118   0.092   7.295   7.392 -0.6418  1.4786  1.0803
  108MOL   H22526119   7.901   7.239   7.503 -0.0572  0.2385  0.4197
  108MOL   H22626120   0.253   7.260   7.590  1.0561 -0.3298  0.0600
  108MOL   H22726121   7.932   7.679   7.680 -0.9386  2.0890 -0.9199
  108MOL   H22826122   7.796   7.635   7.584 -0.6537 -0.1126 -0.8069
  108MOL   H22926123   0.024   7.667   7.502  2.0428  1.1733  2.2405
  108MOL   C23026124   0.100   7.229   7.741  0.0615  0.5829  0.4208
  108MOL   C23126125   0.166   7.275   7.878 -1.1268 -0.0492  0.3810
  108MOL   C23226126   0.320   7.264   7.895  0.0820  0.2578  0.7296
  108MOL   O23326127   0.381   7.321   0.058  0.3573  0.3782 -0.0043
  108MOL   O23426128   0.387   7.197   7.800  0.1603  0.3558  0.6765
  108MOL   C23526129   0.531   7.183   7.809 -0.1485 -0.7019  0.2895
  108MOL   H23626130   7.924   7.233   7.748 -0.1314 -1.7428 -0.7949
  108MOL   H23726131   0.115   7.121   7.733 -1.4713  0.4982 -1.6725
  108MOL   H23826132   0.126   7.215   0.028 -1.2091  1.9171  1.7934
  108MOL   H23926133   0.582   7.123   7.733 -2.0252  0.1479 -1.6916
  108MOL   H24026134   0.553   7.141   7.906  0.3405  0.5804  0.7447
  108MOL   H24126135   0.569   7.283   7.786  1.8219 -1.2832  0.9341
  108MOL   H24226136   0.138   7.377   7.904 -1.2449 -0.1780  0.7689
  109MOL     C126137   7.549   0.849   4.128  0.3252  0.0161 -0.1201
  109MOL     C226138   7.681   0.904   4.061 -0.4165  0.0599  0.6701
  109MOL     C326139   7.689   0.879   3.906 -0.1050  0.8929 -0.1072
  109MOL     O426140   7.789   0.835   3.846  0.0438 -1.2755 -0.9151
  109MOL     O526141   7.572   0.911   3.845  0.0183 -0.2300 -0.1801
  109MOL     C626142   7.569   0.911   3.704  0.0197 -0.4641  0.5113
  109MOL     H726143   7.465   0.909   4.094  1.8810  1.8266 -0.9141
  109MOL     H826144   7.554   0.842   4.237  1.6033 -1.8398 -0.2634
  109MOL     H926145   7.760   0.843   4.106 -0.9324 -2.1193 -1.2715
  109MOL    H1026146   7.670   0.940   3.677  0.3345 -0.7313  1.3816
  109MOL    H1126147   7.496   0.972   3.651 -0.5338 -1.1267  0.4957
  109MOL    H1226148   7.563   0.807   3.673  1.1203 -0.6464  0.8929
  109MOL    H1326149   7.540   0.744   4.100 -3.1132 -0.2333  1.6697
  109MOL    C1426150   7.714   1.050   4.096 -1.1339 -0.3203  0.5207
  109MOL    C1526151   7.767   1.079   4.238  0.4251 -0.0010  0.7762
  109MOL    C1626152   7.900   1.015   4.259 -0.7334  0.3195  0.2310
  109MOL    O1726153   0.052   1.010   4.174  0.3029  0.1136 -0.3111
  109MOL    O1826154   7.916   0.959   4.382 -0.1928  0.1004 -0.5371
  109MOL    C1926155   0.120   0.925   4.427 -0.2925  0.5285 -0.4376
  109MOL    H2026156   7.798   1.074   4.030 -0.2263 -0.1941  1.7169
  109MOL    H2126157   7.634   1.121   4.072 -0.2261  0.1937 -1.1119
  109MOL    H2226158   7.689   1.024   4.290 -1.2334  1.3739 -0.2006
  109MOL    H2326159   0.193   1.004   4.407  0.1880  0.5758  1.4569
  109MOL    H2426160   0.147   0.833   4.376  0.4985  0.0394  0.8659
  109MOL    H2526161   0.125   0.920   4.535 -3.9587  1.3628 -0.1742
  109MOL    C2626162   7.757   1.218   4.302  0.4630  0.4133  0.3448
  109MOL    C2726163   7.827   1.326   4.212 -0.1064  0.0695  0.5556
  109MOL    C2826164   7.735   1.445   4.179  0.0595 -0.1163  0.3154
  109MOL    O2926165   7.689   1.466   4.071  0.4268 -0.7050  0.1186
  109MOL    O3026166   7.714   1.522   4.292  0.4699  0.3707  0.5581
  109MOL    C3126167   7.641   1.641   4.274 -0.4436  0.4782 -0.2316
  109MOL    H3226168   7.655   1.243   4.330 -0.5299 -2.8175 -0.1390
  109MOL    H3326169   7.810   1.213   4.397  1.4823  2.3578 -0.0924
  109MOL    H3426170   7.859   1.292   4.113 -0.3185  1.4225 -0.0004
  109MOL    H3526171   7.635   1.684   4.374  0.7373 -1.7752  0.8654
  109MOL    H3626172   7.539   1.617   4.245 -0.2811  0.9574 -1.1911
  109MOL    H3726173   7.677   1.717   4.205  2.4464  0.4232  1.1266
  109MOL    C3826174   0.027   1.371   4.273 -0.0700  0.4782 -0.0773
  109MOL    C3926175   0.132   1.437   4.173 -0.3525 -0.1685 -0.1122
  109MOL    C4026176   0.247   1.486   4.256 -0.6625 -0.7914  0.0862
  109MOL    O4126177   0.271   1.605   4.275  0.5714  0.1502 -0.9657
  109MOL    O4226178   0.323   1.371   4.307  0.4912  0.5097  0.3924
  109MOL    C4326179   0.410   1.386   4.419 -0.3444 -0.6874  0.1908
  109MOL    H4426180   0.015   1.435   4.360 -0.9244  0.3904 -0.1256
  109MOL    H4526181   0.078   1.282   4.310 -2.3571 -0.6649  0.4010
  109MOL    H4626182   0.084   1.528   4.138 -1.3190  0.2421  2.2109
  109MOL    H4726183   0.476   1.473   4.417 -0.4190 -0.6431 -0.5383
  109MOL    H4826184   0.464   1.298   4.453 -0.8600 -0.5698  1.3421
  109MOL    H4926185   0.343   1.412   4.501  0.3339 -1.3960  0.9789
  109MOL    C5026186   0.174   1.357   4.039  0.2260 -0.4325 -0.3463
  109MOL    C5126187   0.262   1.429   3.935 -0.2751  0.6494  0.1922
  109MOL    C5226188   0.307   1.312   3.845  0.1182 -0.4810 -0.8387
  109MOL    O5326189   0.399   1.236   3.871  0.2838  0.1025  0.3064
  109MOL    O5426190   0.229   1.294   3.743  0.6716  0.4658 -0.1790
  109MOL    C5526191   0.257   1.196   3.640  0.0286  0.0947  0.5181
  109MOL    H5626192   0.205   1.259   4.075 -1.2014 -1.3235 -1.4738
  109MOL    H5726193   0.086   1.325   3.983 -0.5801  1.6808 -0.3522
  109MOL    H5826194   0.359   1.458   3.976 -0.8534  2.6203  0.2075
  109MOL    H5926195   0.191   1.112   3.663 -0.0243  0.6600  2.5168
  109MOL    H6026196   0.360   1.161   3.639  0.2935  0.8566  0.8860
  109MOL    H6126197   0.237   1.233   3.539  0.2573 -0.5855  0.2156
  109MOL    C6226198   0.188   1.544   3.856  0.3765  0.4482 -0.4305
  109MOL    C6326199   0.278   1.648   3.808  0.1245 -0.0345  0.0064
  109MOL    C6426200   0.341   1.718   3.929  0.2948 -0.4263  0.6252
  109MOL    O6526201   0.455   1.698   3.961  0.3888  0.4676  0.2521
  109MOL    O6626202   0.247   1.786   3.992 -0.1487  0.1652  0.5783
  109MOL    C6726203   0.290   1.841   4.116  0.0171 -0.4790  0.5692
  109MOL    H6826204   0.122   1.515   3.774 -0.2736  1.4246 -0.2672
  109MOL    H6926205   0.122   1.582   3.934  0.7143 -1.7947  0.9806
  109MOL    H7026206   0.220   1.725   3.757  1.0528 -0.6618 -2.0120
  109MOL    H7126207   0.322   1.945   4.109  2.5995 -1.4058 -2.1344
  109MOL    H7226208   0.370   1.782   4.161  0.1423  0.0457  1.0429
  109MOL    H7326209   0.206   1.835   4.186 -1.6530 -0.6029 -1.4145
  109MOL    C7426210   0.378   1.615   3.704 -0.4728 -0.7998 -0.5472
  109MOL    C7526211   0.320   1.591   3.564  0.6328  0.4339 -0.3672
  109MOL    C7626212   0.274   1.722   3.499 -0.4516 -0.0003 -0.4273
  109MOL    O7726213   0.348   1.818   3.488  0.8228 -0.0622  0.5534
  109MOL    O7826214   0.146   1.729   3.468 -0.4110  0.1670 -0.6343
  109MOL    C7926215   0.072   1.841   3.478 -0.3291  0.4394 -0.7713
  109MOL    H8026216   0.442   1.702   3.690  1.0120 -2.0010 -1.3545
  109MOL    H8126217   0.437   1.532   3.741 -0.5272  0.0014  1.3955
  109MOL    H8226218   0.234   1.525   3.576  0.2776  1.2811  1.9733
  109MOL    H8326219   7.899   1.814   3.473 -0.1283 -0.3263 -1.0285
  109MOL    H8426220   0.089   1.907   3.393 -1.9089  2.4710  0.4624
  109MOL    H8526221   0.094   1.888   3.573  1.4047 -0.7171 -0.5685
  109MOL    C8626222   0.419   1.516   3.477 -0.0149 -0.4672 -0.1497
  109MOL    C8726223   0.389   1.467   3.331  0.1598  0.5379 -0.2741
  109MOL    C8826224   0.265   1.376   3.329 -0.7590 -0.1672  0.0602
  109MOL    O8926225   0.267   1.258   3.290 -0.1475 -0.3585 -0.0688
  109MOL    O9026226   0.154   1.432   3.369  0.5372  0.3230  0.4094
  109MOL    C9126227   0.024   1.368   3.363 -0.3002 -1.0149 -0.3502
  109MOL    H9226228   0.521   1.556   3.479  0.2572 -0.9599 -2.8018
  109MOL    H9326229   0.424   1.422   3.532 -0.1722 -0.4190 -0.0527
  109MOL    H9426230   0.469   1.403   3.295 -1.7546 -2.0852 -0.0437
  109MOL    H9526231   0.015   1.314   3.269  2.1026  0.7557 -1.6246
  109MOL    H9626232   7.876   1.441   3.374  0.0538 -0.5485 -0.8438
  109MOL    H9726233   0.019   1.292   3.441 -1.0071  1.3967  2.0382
  109MOL    C9826234   0.368   1.581   3.219 -0.4015  0.2365 -0.4976
  109MOL    C9926235   0.475   1.692   3.213 -0.3399  0.5382  0.5798
  109MOL   C10026236   0.617   1.641   3.163 -0.0896  0.2965  0.1841
  109MOL   O10126237   0.631   1.578   3.059  0.7339 -0.3077  0.5608
  109MOL   O10226238   0.716   1.675   3.246 -0.6095 -0.1516  0.1259
  109MOL   C10326239   0.842   1.604   3.248  0.2237 -0.0016  0.1618
  109MOL   H10426240   0.380   1.528   3.125  0.3276  1.4300 -1.0941
  109MOL   H10526241   0.265   1.616   3.233 -0.1883  1.4434 -1.8364
  109MOL   H10626242   0.482   1.718   3.319 -1.0845  1.3951  0.4221
  109MOL   H10726243   0.818   1.504   3.282  0.3372  1.1040  3.7565
  109MOL   H10826244   0.914   1.653   3.314  0.4546  1.6646 -1.2820
  109MOL   H10926245   0.877   1.602   3.145 -0.5600 -1.1332 -0.0797
  109MOL   C11026246   0.421   1.823   3.141  0.3881  0.1174 -0.8543
  109MOL   C11126247   0.522   1.941   3.141 -0.3980  0.4139 -0.4697
  109MOL   C11226248   0.478   2.045   3.033  0.2477  0.7987 -0.3772
  109MOL   O11326249   0.540   2.062   2.930  0.2622  0.3495 -0.4225
  109MOL   O11426250   0.362   2.099   3.075 -0.5324  0.2795 -0.0090
  109MOL   C11526251   0.306   2.201   3.000  0.1298 -0.3049  0.1958
  109MOL   H11626252   0.386   1.792   3.042  2.7477 -1.1995 -1.3179
  109MOL   H11726253   0.327   1.859   3.182  0.1602 -1.5769  0.1681
  109MOL   H11826254   0.615   1.901   3.101 -0.8798 -0.4304 -0.7620
  109MOL   H11926255   0.199   2.208   3.024  0.0998 -0.0237 -0.0171
  109MOL   H12026256   0.323   2.201   2.892  0.4307 -0.3356  0.2452
  109MOL   H12126257   0.343   2.293   3.043  0.0126 -0.4994  0.7152
  109MOL   C12226258   0.561   2.007   3.275  0.4706  0.4630  0.2606
  109MOL   C12326259   0.661   2.122   3.279 -0.1153 -0.2245  0.4927
  109MOL   C12426260   0.653   2.197   3.414  0.1177  0.0973 -0.4355
  109MOL   O12526261   0.712   2.165   3.519 -0.1533  0.8702  0.3701
  109MOL   O12626262   0.560   2.300   3.410  0.7612  0.8304 -0.0208
  109MOL   C12726263   0.522   2.364   3.535  0.5380  0.5295  0.5220
  109MOL   H12826264   0.470   2.046   3.321  0.1839 -0.6140  0.6335
  109MOL   H12926265   0.592   1.930   3.346 -1.4093  0.6170  1.3012
  109MOL   H13026266   0.630   2.201   3.210  1.1937  2.3801  2.8062
  109MOL   H13126267   0.505   2.283   3.605 -1.3181 -0.0806 -0.6292
  109MOL   H13226268   0.434   2.418   3.502  1.4439  1.7941  0.1362
  109MOL   H13326269   0.597   2.438   3.564 -0.2668  1.1522  1.0376
  109MOL   C13426270   0.801   2.070   3.245 -0.1958  0.2169 -0.2043
  109MOL   C13526271   0.906   2.181   3.214  0.0804 -0.1555  0.3013
  109MOL   C13626272   1.039   2.110   3.202 -1.0117  0.4367 -0.0979
  109MOL   O13726273   1.132   2.144   3.280 -0.3114  0.6736  0.2191
  109MOL   O13826274   1.050   2.016   3.107  0.1224 -0.0156 -0.0717
  109MOL   C13926275   1.173   1.954   3.068 -1.0442  0.0098  0.0896
  109MOL   H14026276   0.832   2.006   3.328  0.5572 -1.4946 -1.7493
  109MOL   H14126277   0.798   1.997   3.164  0.3996  0.1002 -0.1292
  109MOL   H14226278   0.912   2.233   3.310 -0.6848  0.0310  0.2566
  109MOL   H14326279   1.154   1.892   2.980  0.6737 -0.1648 -0.1808
  109MOL   H14426280   1.222   1.895   3.146 -0.8030 -1.5850 -1.2344
  109MOL   H14526281   1.248   2.031   3.047 -0.2084 -1.3324 -2.0693
  109MOL   C14626282   0.873   2.256   3.085 -0.0771  0.7288  0.1627
  109MOL   C14726283   0.940   2.393   3.059 -0.0279 -0.5474  0.1249
  109MOL   C14826284   1.092   2.393   3.044 -0.1921  0.5461 -0.0130
  109MOL   O14926285   1.171   2.429   3.133  0.2008 -0.0876  0.1398
  109MOL   O15026286   1.125   2.331   2.931 -0.1449 -0.1688  0.0706
  109MOL   C15126287   1.265   2.308   2.903 -0.4529 -0.3535  0.9376
  109MOL   H15226288   0.888   2.189   3.001 -1.2045 -0.4713  0.9031
  109MOL   H15326289   0.764   2.260   3.074 -0.1150  0.9243  0.5749
  109MOL   H15426290   0.916   2.430   3.159 -0.4736 -1.0501  0.2055
  109MOL   H15526291   1.324   2.382   2.957  0.4916 -0.6867  0.3609
  109MOL   H15626292   1.283   2.317   2.796  3.1503 -0.0373  1.5201
  109MOL   H15726293   1.308   2.214   2.937 -2.5979 -1.2246  1.3094
  109MOL   C15826294   0.878   2.480   2.943  0.1923 -0.0784 -0.3891
  109MOL   C15926295   0.921   2.630   2.928 -0.1629  0.7056 -0.3823
  109MOL   C16026296   0.962   2.654   2.779  0.2660  0.0531 -0.1583
  109MOL   O16126297   0.907   2.740   2.713 -0.2769 -0.2976  0.2321
  109MOL   O16226298   1.053   2.565   2.734 -0.0523 -0.3530  0.2169
  109MOL   C16326299   1.099   2.574   2.607  0.2391  0.0643 -0.3076
  109MOL   H16426300   0.897   2.432   2.847 -1.2613 -1.3233 -0.0679
  109MOL   H16526301   0.769   2.476   2.950  0.1591 -3.1976 -1.6685
  109MOL   H16626302   1.015   2.635   2.984 -0.3456  1.6729 -0.1609
  109MOL   H16726303   1.117   2.678   2.579  2.6210 -0.3743 -0.4790
  109MOL   H16826304   1.027   2.525   2.542  0.1571 -0.3086  0.0611
  109MOL   H16926305   1.189   2.514   2.597 -0.1801 -0.4814 -0.8562
  109MOL   C17026306   0.815   2.734   2.982 -0.1900 -0.0091  0.3657
  109MOL   C17126307   0.805   2.738   3.138  0.4234 -0.1299  0.8367
  109MOL   C17226308   0.940   2.780   3.194 -0.4159 -0.0747 -0.1352
  109MOL   O17326309   0.992   2.882   3.151 -0.4308  0.0572 -0.4767
  109MOL   O17426310   0.988   2.699   3.282 -0.5774  0.3013 -0.1971
  109MOL   C17526311   1.127   2.709   3.311  0.6984 -0.7201 -0.1584
  109MOL   H17626312   0.841   2.833   2.942 -0.8582  0.0828  0.1514
  109MOL   H17726313   0.717   2.718   2.936  0.0134 -0.4331  0.0839
  109MOL   H17826314   0.784   2.639   3.178 -1.3884 -0.6513 -1.2713
  109MOL   H17926315   1.188   2.739   3.225 -0.3500  2.1887  0.0651
  109MOL   H18026316   1.153   2.604   3.326 -1.3885 -1.1846  0.2490
  109MOL   H18126317   1.135   2.762   3.406  0.8866  1.0333 -1.1223
  109MOL   C18226318   0.697   2.834   3.184  0.4193 -0.2962 -0.0910
  109MOL   C18326319   0.595   2.777   3.294 -0.0354  0.4383 -0.4276
  109MOL   C18426320   0.501   2.666   3.243 -0.4393  0.6170 -0.1844
  109MOL   O18526321   0.537   2.585   3.158  0.7861  0.7802  0.1302
  109MOL   O18626322   0.380   2.665   3.307  0.0032 -0.3824  0.5673
  109MOL   C18726323   0.287   2.568   3.257  0.0549 -0.0969 -0.5462
  109MOL   H18826324   0.748   2.919   3.231 -0.8111  0.5912 -0.3525
  109MOL   H18926325   0.637   2.872   3.102  1.2399  1.3112  0.0151
  109MOL   H19026326   0.519   2.853   3.310  0.4124  0.8545 -0.2675
  109MOL   H19126327   0.305   2.472   3.306  2.6462 -0.9310 -2.9690
  109MOL   H19226328   0.294   2.548   3.150 -0.2773 -0.6092 -0.4753
  109MOL   H19326329   0.185   2.596   3.280 -0.2647 -1.1288 -0.6685
  109MOL   C19426330   0.655   2.729   3.426  0.0004  0.7403  0.6465
  109MOL   C19526331   0.642   2.836   3.539 -0.6677 -0.0171 -0.0637
  109MOL   C19626332   0.509   2.834   3.613 -0.1816 -0.3383  0.2964
  109MOL   O19726333   0.500   2.797   3.727  0.3137 -0.1823  0.2058
  109MOL   O19826334   0.417   2.882   3.545 -0.3479  0.1532  0.1908
  109MOL   C19926335   0.288   2.849   3.584  1.2996 -0.2799  0.1517
  109MOL   H20026336   0.617   2.635   3.465  0.1208 -0.0526 -1.1093
  109MOL   H20126337   0.756   2.706   3.391 -1.4041 -0.8850 -2.5424
  109MOL   H20226338   0.658   2.931   3.488  0.4789  0.0143  0.3466
  109MOL   H20326339   0.219   2.890   3.510  1.1567 -1.5956 -0.4615
  109MOL   H20426340   0.258   2.894   3.679  3.0742 -0.0285  0.6225
  109MOL   H20526341   0.283   2.742   3.599 -1.6438  0.0799  2.0355
  109MOL   C20626342   0.760   2.841   3.634 -0.7252  0.5673 -0.8877
  109MOL   C20726343   0.803   2.699   3.694  0.3686  0.3343  0.3660
  109MOL   C20826344   0.909   2.616   3.613  0.5719  0.0437 -0.5817
  109MOL   O20926345   1.027   2.653   3.608 -0.3707 -0.5231  0.4971
  109MOL   O21026346   0.848   2.516   3.540 -0.0900  0.0193  0.1785
  109MOL   C21126347   0.944   2.418   3.502 -0.2345  0.0619 -0.5045
  109MOL   H21226348   0.845   2.880   3.577  0.6294 -0.3172  0.4890
  109MOL   H21326349   0.734   2.917   3.708 -0.2887 -0.5090  0.3844
  109MOL   H21426350   0.708   2.644   3.686  0.9574 -0.9523  1.8183
  109MOL   H21526351   1.040   2.416   3.555 -1.7895  1.9223  2.5447
  109MOL   H21626352   0.971   2.446   3.400  1.1208 -0.9934 -0.4580
  109MOL   H21726353   0.908   2.316   3.509 -1.4890  0.5420  0.1222
  109MOL   C21826354   0.833   2.701   3.839  0.2436  0.4149 -0.6606
  109MOL   C21926355   0.849   2.565   3.904  0.1109  0.4072  0.3430
  109MOL   C22026356   0.887   2.577   4.058  0.3446  0.0471 -0.2104
  109MOL   O22126357   0.840   2.660   4.134  0.6711 -0.5754 -0.5145
  109MOL   O22226358   0.972   2.485   4.101  0.2985  0.4466  0.5123
  109MOL   C22326359   1.017   2.486   4.235 -0.0259 -0.2478  0.0243
  109MOL   H22426360   0.923   2.763   3.841  1.1005 -0.7840 -1.4175
  109MOL   H22526361   0.753   2.751   3.894 -1.0972 -2.0936 -0.2759
  109MOL   H22626362   0.931   2.512   3.855  1.3567  2.0336  0.6542
  109MOL   H22726363   0.938   2.522   4.301  0.8970  1.4335  0.2510
  109MOL   H22826364   1.106   2.548   4.247 -0.9521  1.0044  0.6300
  109MOL   H22926365   1.051   2.390   4.273 -1.5591 -0.3903  1.1172
  109MOL   C23026366   0.718   2.475   3.890  0.2091 -0.0357 -0.0693
  109MOL   C23126367   0.582   2.546   3.923 -0.1596  0.1825 -0.8172
  109MOL   C23226368   0.474   2.445   3.946  0.1043 -0.6858 -0.1636
  109MOL   O23326369   0.410   2.404   3.848 -0.1356 -0.0751  0.8762
  109MOL   O23426370   0.457   2.407   4.073 -0.0031 -0.0638  0.6630
  109MOL   C23526371   0.340   2.328   4.091 -0.2162  0.1927 -0.2541
  109MOL   H23626372   0.712   2.427   3.792 -0.1089  0.6750 -0.4003
  109MOL   H23726373   0.729   2.387   3.954 -2.7610 -1.0592 -0.8948
  109MOL   H23826374   0.568   2.618   3.842  1.3146  2.9187  1.3113
  109MOL   H23926375   0.331   2.301   4.196 -2.9034  2.0786  0.0675
  109MOL   H24026376   0.354   2.238   4.031 -3.1871 -1.5831  1.6067
  109MOL   H24126377   0.248   2.381   4.066  0.4619  0.9355 -1.2317
  109MOL   H24226378   0.588   2.593   4.020 -2.6513 -0.2178 -0.4317
  110MOL     C126379   7.049   0.162   5.354 -0.0226 -0.0370 -0.8376
  110MOL     C226380   7.153   0.270   5.393  0.0627  0.0229  0.2221
  110MOL     C326381   7.292   0.199   5.409  0.5611  1.1165 -0.2932
  110MOL     O426382   7.345   0.190   5.524  0.1727  0.1919  0.1204
  110MOL     O526383   7.351   0.150   5.295  0.3418 -0.2994 -0.5744
  110MOL     C626384   7.476   0.093   5.312 -0.1529  0.3792 -0.0304
  110MOL     H726385   6.986   0.182   5.267 -1.7467  0.4390  0.4910
  110MOL     H826386   6.975   0.150   5.434  0.4484  3.1703  0.1432
  110MOL     H926387   7.138   0.323   5.487  1.3584  0.3566  0.2486
  110MOL    H1026388   7.538   0.162   5.370 -0.4699  0.1943  0.5304
  110MOL    H1126389   7.522   0.057   5.220 -2.0112  0.6868 -1.0961
  110MOL    H1226390   7.461   0.006   5.376  1.5758  0.0489 -0.0539
  110MOL    H1326391   7.083   0.059   5.339  0.2371 -0.1263  0.3123
  110MOL    C1426392   7.145   0.378   5.281 -0.4006  0.1156  0.0084
  110MOL    C1526393   7.174   0.529   5.329  0.4749 -0.1752 -0.0783
  110MOL    C1626394   7.316   0.560   5.371  0.4112  0.0558 -0.1472
  110MOL    O1726395   7.407   0.480   5.366  0.0090  0.6983 -0.2239
  110MOL    O1826396   7.324   0.682   5.424  0.0782  0.9868 -0.1543
  110MOL    C1926397   7.447   0.733   5.481  0.7195 -0.7055  0.1651
  110MOL    H2026398   7.223   0.350   5.210 -0.2810  1.1226 -0.2726
  110MOL    H2126399   7.050   0.378   5.228  0.1593 -0.5693 -0.9948
  110MOL    H2226400   7.116   0.536   5.421  0.6884  1.3729 -0.0558
  110MOL    H2326401   7.536   0.721   5.419  1.1965  1.3805  0.4081
  110MOL    H2426402   7.469   0.682   5.575 -0.2376 -1.0093  0.2274
  110MOL    H2526403   7.427   0.839   5.498 -1.0147 -1.2276  1.4963
  110MOL    C2626404   7.131   0.628   5.211 -0.7058  0.9684 -0.8164
  110MOL    C2726405   7.118   0.783   5.239 -0.9623  0.6462  0.9936
  110MOL    C2826406   7.147   0.870   5.112  0.4898  0.1231  1.0826
  110MOL    O2926407   7.164   0.821   4.997 -0.3371 -0.1284 -0.2240
  110MOL    O3026408   7.160   1.003   5.148 -0.1012  0.3347 -0.0086
  110MOL    C3126409   7.207   1.110   5.069  0.9333  0.6973 -0.8144
  110MOL    H3226410   7.217   0.620   5.145  2.6114 -0.4252  3.4101
  110MOL    H3326411   7.051   0.579   5.156 -0.6947 -1.1906  1.0107
  110MOL    H3426412   7.190   0.819   5.311 -0.0027  3.1100 -1.1134
  110MOL    H3526413   7.200   1.204   5.124  0.0407 -0.2960  0.7945
  110MOL    H3626414   7.141   1.123   4.983 -0.0658 -1.8812 -0.4558
  110MOL    H3726415   7.307   1.096   5.026  0.7960  0.2053 -0.9716
  110MOL    C3826416   6.967   0.806   5.274 -0.2925 -0.0749  1.0364
  110MOL    C3926417   6.931   0.770   5.420  0.7212 -0.7622  0.6808
  110MOL    C4026418   7.019   0.851   5.521  0.3728 -0.4501 -0.4119
  110MOL    O4126419   7.083   0.952   5.477  0.2001 -1.1963  0.2208
  110MOL    O4226420   7.016   0.808   5.644  0.8346  0.2283  0.2105
  110MOL    C4326421   7.128   0.845   5.725 -0.5287 -0.0560  0.6349
  110MOL    H4426422   6.941   0.911   5.260 -2.0589 -0.8151 -1.4618
  110MOL    H4526423   6.907   0.749   5.203  1.5702 -1.0820  0.2275
  110MOL    H4626424   6.959   0.666   5.439 -0.4809 -1.3429 -0.6504
  110MOL    H4726425   7.138   0.808   5.827  0.2500 -0.5014  0.4059
  110MOL    H4826426   7.137   0.953   5.729  1.6577 -0.1480 -0.4803
  110MOL    H4926427   7.220   0.819   5.671 -2.4480 -0.8404 -2.3773
  110MOL    C5026428   6.776   0.787   5.450 -0.5144 -0.4419  0.0853
  110MOL    C5126429   6.670   0.720   5.360 -0.1962 -0.0500  1.0299
  110MOL    C5226430   6.720   0.578   5.321  0.6515 -0.3163 -0.0166
  110MOL    O5326431   6.770   0.559   5.209 -0.4713 -0.1411 -0.4724
  110MOL    O5426432   6.698   0.493   5.421 -0.1332 -0.6624 -0.2290
  110MOL    C5526433   6.735   0.356   5.412  0.1230 -0.0028  0.2846
  110MOL    H5626434   6.759   0.766   5.556 -0.0392  1.8848  0.6593
  110MOL    H5726435   6.746   0.891   5.464 -0.6521 -0.6943  1.7968
  110MOL    H5826436   6.655   0.780   5.270 -0.3468  1.2505  1.9146
  110MOL    H5926437   6.810   0.338   5.335 -1.0947  0.8909 -1.1157
  110MOL    H6026438   6.656   0.282   5.406 -0.8913  0.7298  3.4208
  110MOL    H6126439   6.780   0.326   5.507  1.2761 -0.2412 -0.3230
  110MOL    C6226440   6.527   0.714   5.435  0.6985  0.4839  0.0510
  110MOL    C6326441   6.429   0.839   5.426 -0.2581  0.0870 -0.2050
  110MOL    C6426442   6.367   0.854   5.289  0.4985 -0.6807  0.1836
  110MOL    O6526443   6.273   0.930   5.276 -0.6424 -0.1397 -0.5208
  110MOL    O6626444   6.407   0.765   5.200  0.5160  0.0171 -0.8482
  110MOL    C6726445   6.378   0.783   5.062 -0.6936  0.1538  0.0105
  110MOL    H6826446   6.475   0.625   5.400  0.4618  0.5510  0.2300
  110MOL    H6926447   6.542   0.700   5.542 -1.9904  1.5048  0.6016
  110MOL    H7026448   6.482   0.934   5.429  0.1602 -0.1901  1.6627
  110MOL    H7126449   6.292   0.720   5.036 -0.3103  0.0745 -1.1279
  110MOL    H7226450   6.460   0.735   5.007 -0.0123  2.9950 -1.5985
  110MOL    H7326451   6.368   0.883   5.019 -1.8050 -0.3033 -0.8126
  110MOL    C7426452   6.333   0.843   5.542 -0.3786  0.8368  0.0392
  110MOL    C7526453   6.396   0.907   5.665 -0.6757 -0.5950 -0.4447
  110MOL    C7626454   6.426   1.059   5.652  0.4263  0.1447 -0.0455
  110MOL    O7726455   6.516   1.122   5.711  0.3956  0.0995  0.6897
  110MOL    O7826456   6.351   1.116   5.559 -0.5376  0.1213  0.0706
  110MOL    C7926457   6.363   1.252   5.545 -0.3867 -0.4522  0.1341
  110MOL    H8026458   6.238   0.895   5.529 -0.1255  1.2500 -0.1627
  110MOL    H8126459   6.298   0.746   5.579  0.6385  0.6475  0.5395
  110MOL    H8226460   6.495   0.862   5.675 -0.2149 -0.0319 -2.2579
  110MOL    H8326461   6.335   1.306   5.635  0.0482  0.0983 -0.0537
  110MOL    H8426462   6.292   1.277   5.466  0.8112 -0.7997 -1.0656
  110MOL    H8526463   6.465   1.274   5.514  0.3115 -1.8525  1.3953
  110MOL    C8626464   6.310   0.873   5.784 -0.6525  0.0710  0.2135
  110MOL    C8726465   6.377   0.915   5.915 -0.2279  0.5808  0.0762
  110MOL    C8826466   6.265   0.915   6.025  0.4503 -0.0191 -0.5898
  110MOL    O8926467   6.150   0.888   6.004  0.0197 -0.2287 -0.9056
  110MOL    O9026468   6.309   0.966   6.142  0.1222 -0.3650  0.8575
  110MOL    C9126469   6.216   1.021   6.238  0.2671  0.1680  0.7874
  110MOL    H9226470   6.210   0.912   5.767 -1.1085 -1.2996 -0.3670
  110MOL    H9326471   6.295   0.765   5.787 -0.5903  0.0490 -0.2181
  110MOL    H9426472   6.408   1.019   5.905  1.2237  0.0234 -1.2324
  110MOL    H9526473   6.262   1.097   6.301 -1.6847  2.2574 -0.2246
  110MOL    H9626474   6.173   0.949   6.307 -2.2830  0.6820 -0.1878
  110MOL    H9726475   6.130   1.069   6.191 -0.3516 -0.5975  1.1307
  110MOL    C9826476   6.502   0.827   5.953  1.3081 -0.8112 -0.0707
  110MOL    C9926477   6.484   0.682   6.000  0.3187 -0.4836 -0.5566
  110MOL   C10026478   6.479   0.585   5.875 -0.8286 -0.3301 -0.4919
  110MOL   O10126479   6.569   0.570   5.788  0.2427  0.2085 -0.1288
  110MOL   O10226480   6.371   0.509   5.876  1.0414  0.6007  0.0636
  110MOL   C10326481   6.356   0.409   5.777  0.1400 -0.2074 -0.3061
  110MOL   H10426482   6.573   0.826   5.870 -0.1697 -0.2179 -1.3636
  110MOL   H10526483   6.565   0.885   6.020  3.9603 -0.5093 -2.7544
  110MOL   H10626484   6.386   0.664   6.044  0.7804 -1.3848  0.1229
  110MOL   H10726485   6.273   0.343   5.799 -0.1168 -0.0714 -0.8653
  110MOL   H10826486   6.443   0.344   5.764 -1.0988 -1.6565 -1.4822
  110MOL   H10926487   6.341   0.461   5.682  0.6353  1.0050  0.2647
  110MOL   C11026488   6.587   0.632   6.096 -0.7117 -0.2712 -0.3400
  110MOL   C11126489   6.574   0.494   6.169  0.1942  0.2404  0.7026
  110MOL   C11226490   6.707   0.431   6.212  0.1472 -0.4729  0.0067
  110MOL   O11326491   6.745   0.320   6.186 -0.4856  0.0654 -0.3530
  110MOL   O11426492   6.792   0.516   6.273  0.7196  0.8272 -0.1033
  110MOL   C11526493   6.914   0.469   6.328  0.1418  0.2144  0.2759
  110MOL   H11626494   6.684   0.631   6.047 -0.1560 -0.6652  0.7647
  110MOL   H11726495   6.575   0.701   6.179 -1.6690 -0.2763 -0.4671
  110MOL   H11826496   6.533   0.427   6.094 -0.3203  0.4901  0.7591
  110MOL   H11926497   6.895   0.384   6.393  1.9910 -0.4110  0.0232
  110MOL   H12026498   6.970   0.545   6.381 -0.3515 -0.5659  1.9596
  110MOL   H12126499   6.981   0.458   6.243  0.1945  1.2842  0.1717
  110MOL   C12226500   6.474   0.479   6.288 -0.3463 -0.5462  0.0375
  110MOL   C12326501   6.412   0.343   6.314  0.3958 -0.4280 -0.3374
  110MOL   C12426502   6.361   0.331   6.461  0.3595 -0.1052  0.0772
  110MOL   O12526503   6.396   0.405   6.551  0.0383 -0.1234 -0.1547
  110MOL   O12626504   6.287   0.227   6.478  0.0510 -0.0034  0.6287
  110MOL   C12726505   6.217   0.200   6.597  0.1101  0.2509  0.0103
  110MOL   H12826506   6.522   0.527   6.373 -0.0042  1.2820 -1.1493
  110MOL   H12926507   6.387   0.542   6.266  1.2875  1.4696 -0.8736
  110MOL   H13026508   6.488   0.266   6.311 -0.0593 -0.8736 -0.6184
  110MOL   H13126509   6.132   0.265   6.618 -1.2703 -0.5553 -2.8943
  110MOL   H13226510   6.278   0.204   6.688  0.4920 -1.2287 -0.1674
  110MOL   H13326511   6.188   0.096   6.588 -1.2836  0.6300  0.0616
  110MOL   C13426512   6.306   0.306   6.210 -0.0743 -0.8894  0.0677
  110MOL   C13526513   6.159   0.372   6.220  0.1890  0.1785 -0.5879
  110MOL   C13626514   6.151   0.522   6.258 -0.2151 -0.6642 -0.2166
  110MOL   O13726515   6.116   0.609   6.175 -0.1065 -0.0897 -0.6374
  110MOL   O13826516   6.169   0.551   6.394 -0.1406  0.1842 -0.0638
  110MOL   C13926517   6.168   0.694   6.420  0.3198 -0.5717  0.0628
  110MOL   H14026518   6.343   0.309   6.108 -0.3136  1.0004  0.0158
  110MOL   H14126519   6.296   0.199   6.225 -0.6400 -0.8075  0.2915
  110MOL   H14226520   6.116   0.317   6.304  0.3535 -0.0620 -0.6630
  110MOL   H14326521   6.228   0.754   6.352  0.5903 -0.5534  0.3172
  110MOL   H14426522   6.189   0.702   6.527 -0.1430 -1.0608  0.1948
  110MOL   H14526523   6.067   0.726   6.396  0.8653  1.0624 -0.1391
  110MOL   C14626524   6.068   0.326   6.097  0.4665 -0.7928  0.0648
  110MOL   C14726525   6.050   0.173   6.073  0.0838  0.5345  0.1367
  110MOL   C14826526   6.039   0.084   6.201  0.4435 -0.6772  0.1912
  110MOL   O14926527   6.116   7.925   6.221  0.0547  0.5472  0.3810
  110MOL   O15026528   5.944   0.128   6.288  0.0616 -0.2055 -0.0100
  110MOL   C15126529   5.908   0.059   6.401 -0.6973  0.7548 -0.2242
  110MOL   H15226530   5.974   0.381   6.100 -0.0346 -1.6980  1.3676
  110MOL   H15326531   6.122   0.369   6.012 -1.3620  1.1169 -0.1700
  110MOL   H15426532   6.149   0.132   6.051 -0.4529 -0.9167  0.3706
  110MOL   H15526533   5.988   0.067   6.475 -0.5728 -1.2230 -0.1240
  110MOL   H15626534   5.901   7.886   6.377 -0.2648  1.2283 -2.5670
  110MOL   H15726535   5.824   0.109   6.450 -0.2675  0.5293  0.7547
  110MOL   C15826536   5.936   0.138   5.973  0.6962  0.5456 -0.0654
  110MOL   C15926537   5.967   0.158   5.829  0.7032 -0.2920  0.2615
  110MOL   C16026538   6.086   0.082   5.777  0.1184 -0.0977  0.1375
  110MOL   O16126539   6.187   0.140   5.732 -0.4697 -0.1841  0.2833
  110MOL   O16226540   6.071   7.881   5.789  0.1027 -0.6335 -0.4152
  110MOL   C16326541   6.169   7.790   5.746 -0.3691  0.2005  0.3571
  110MOL   H16426542   5.903   0.036   5.990  0.6612  0.9315  2.3874
  110MOL   H16526543   5.854   0.205   5.999 -0.0101 -1.2602  2.6478
  110MOL   H16626544   5.979   0.265   5.811  0.9387 -0.7414 -2.5016
  110MOL   H16726545   6.244   7.761   5.819  0.3144 -0.2300 -0.5004
  110MOL   H16826546   6.235   7.825   5.666 -1.0270  1.9493  0.5458
  110MOL   H16926547   6.122   7.697   5.714 -1.1193  0.8975 -0.6427
  110MOL   C17026548   5.845   0.109   5.744 -0.0600 -0.8566 -0.7540
  110MOL   C17126549   5.838   0.177   5.604 -0.2283  0.0934 -0.8978
  110MOL   C17226550   5.812   0.080   5.492 -0.2428 -0.1270 -0.4504
  110MOL   O17326551   5.876   0.093   5.386 -0.2715  0.0218  0.3672
  110MOL   O17426552   5.710   0.005   5.511  0.0437  0.0418  0.2235
  110MOL   C17526553   5.697   7.827   5.423 -0.4940  0.1240  0.4482
  110MOL   H17626554   5.845   0.000   5.750  1.3997 -0.7878  0.7717
  110MOL   H17726555   5.753   0.128   5.799  0.9380  0.4487  0.4984
  110MOL   H17826556   5.935   0.222   5.588  0.1793  0.1886  1.5379
  110MOL   H17926557   5.650   7.872   5.336  2.1042  2.0927 -0.0055
  110MOL   H18026558   5.640   7.746   5.469  0.0319 -1.1081 -1.0419
  110MOL   H18126559   5.792   7.780   5.396 -0.9703 -0.3164 -0.4695
  110MOL   C18226560   5.733   0.289   5.605  0.5389  0.0051 -0.1534
  110MOL   C18326561   5.710   0.365   5.470 -0.0277  0.3745  0.1324
  110MOL   C18426562   5.581   0.437   5.467  0.2893 -0.0336  0.2373
  110MOL   O18526563   5.528   0.473   5.574  0.1818 -0.4422 -0.1872
  110MOL   O18626564   5.528   0.435   5.347 -0.0597  0.1413  0.4004
  110MOL   C18726565   5.405   0.498   5.325 -0.5056 -0.2800  0.3833
  110MOL   H18826566   5.638   0.245   5.637  0.0128  1.6703  0.6445
  110MOL   H18926567   5.762   0.372   5.670 -0.5829  0.7346 -0.5558
  110MOL   H19026568   5.706   0.298   5.383 -0.8831 -0.3097  0.6897
  110MOL   H19126569   5.417   0.606   5.332  0.4789 -0.3328 -0.3404
  110MOL   H19226570   5.339   0.463   5.404  0.7501 -0.5382  1.3310
  110MOL   H19326571   5.350   0.480   5.233  1.6169 -2.6311 -0.4931
  110MOL   C19426572   5.829   0.470   5.443  1.1034 -0.6289  0.3870
  110MOL   C19526573   5.829   0.597   5.535  0.1990  1.2795  0.0233
  110MOL   C19626574   5.931   0.589   5.650 -0.0751 -0.5205 -1.2696
  110MOL   O19726575   6.046   0.557   5.634 -0.2024 -0.0694 -0.4203
  110MOL   O19826576   5.879   0.623   5.767  0.7724 -0.6919 -0.3082
  110MOL   C19926577   5.969   0.638   5.879  0.6149  0.2473  0.2596
  110MOL   H20026578   5.925   0.419   5.442  0.9550 -0.9048  0.1740
  110MOL   H20126579   5.802   0.507   5.344  0.8191  1.1863  1.1254
  110MOL   H20226580   5.740   0.609   5.597 -0.5294  0.7544 -0.9143
  110MOL   H20326581   6.069   0.676   5.859  0.5636 -0.7323 -2.0209
  110MOL   H20426582   5.987   0.535   5.911  2.5693  0.3146 -0.5393
  110MOL   H20526583   5.915   0.695   5.954 -0.7666  2.1441 -2.0991
  110MOL   C20626584   5.855   0.730   5.455  0.5630  0.4212 -0.2633
  110MOL   C20726585   5.809   0.859   5.520  0.3839  0.3119 -0.0689
  110MOL   C20826586   5.674   0.867   5.599 -0.0096 -0.0556  0.0550
  110MOL   O20926587   5.666   0.914   5.708 -0.3615 -0.3772 -0.0375
  110MOL   O21026588   5.568   0.836   5.523  0.0811  0.0184 -0.2139
  110MOL   C21126589   5.442   0.849   5.585  0.2648 -0.1453  0.3292
  110MOL   H21226590   5.958   0.734   5.421  0.9826  0.6282  1.0053
  110MOL   H21326591   5.800   0.729   5.360 -0.5444  0.3585  0.3672
  110MOL   H21426592   5.787   0.933   5.443 -0.2850  1.2971  1.0568
  110MOL   H21526593   5.433   0.938   5.647 -2.2330 -0.2064  0.1203
  110MOL   H21626594   5.414   0.764   5.647  1.0461 -1.1048 -0.6208
  110MOL   H21726595   5.365   0.865   5.510 -2.7727 -0.4498  3.2725
  110MOL   C21826596   5.924   0.929   5.598 -0.7521  0.0926  0.1202
  110MOL   C21926597   5.913   1.082   5.607 -0.3746  0.2241 -0.3962
  110MOL   C22026598   5.993   1.137   5.727 -0.1909  0.7357  0.0849
  110MOL   O22126599   6.086   1.218   5.710  0.3831  0.4008 -0.4126
  110MOL   O22226600   5.950   1.102   5.854  0.3168  0.3586 -0.3257
  110MOL   C22326601   6.016   1.170   5.963  0.4134 -0.2934  0.4290
  110MOL   H22426602   5.941   0.892   5.699 -1.5302  1.1104  0.6232
  110MOL   H22526603   6.023   0.910   5.555 -0.8427  0.0469 -0.0662
  110MOL   H22626604   5.807   1.107   5.618 -0.6511 -1.0180 -0.1394
  110MOL   H22726605   6.000   1.277   5.949 -0.3240 -0.3465  0.8601
  110MOL   H22826606   6.125   1.164   5.955  0.4596  0.9048  0.0413
  110MOL   H22926607   5.986   1.155   6.067 -3.9736 -1.0651 -0.8846
  110MOL   C23026608   5.965   1.141   5.478  0.0114  1.0837 -0.2938
  110MOL   C23126609   5.928   1.282   5.446  0.4837 -0.3429 -0.8389
  110MOL   C23226610   5.791   1.306   5.380 -0.6560  0.1047 -0.5857
  110MOL   O23326611   5.786   1.306   5.256 -0.0803  0.5419 -0.3875
  110MOL   O23426612   5.688   1.297   5.470  0.5381  0.0291 -0.0371
  110MOL   C23526613   5.557   1.320   5.420 -0.0456  0.0105  0.5352
  110MOL   H23626614   6.071   1.133   5.457  0.2916  2.0141  0.7795
  110MOL   H23726615   5.935   1.083   5.390 -0.4594  0.6052  0.1737
  110MOL   H23826616   5.996   1.329   5.376  2.6342 -0.0132  1.4004
  110MOL   H23926617   5.525   1.250   5.342  0.5030  0.5034 -0.1453
  110MOL   H24026618   5.532   1.415   5.374  0.3606 -1.2818 -2.5357
  110MOL   H24126619   5.499   1.317   5.512 -0.7199  0.8981  0.1370
  110MOL   H24226620   5.931   1.340   5.538  0.7901  0.6260 -1.4645
  111MOL     C126621   4.545   3.115   7.275  0.3787 -0.7097  0.1438
  111MOL     C226622   4.633   3.210   7.181  0.1839 -0.1204  0.6891
  111MOL     C326623   4.549   3.332   7.159  0.4277  0.6216 -0.1469
  111MOL     O426624   4.584   3.440   7.206 -0.1346  1.0004  0.5980
  111MOL     O526625   4.459   3.317   7.057 -0.0766 -0.0936  0.1261
  111MOL     C626626   4.357   3.419   7.037 -0.6283  0.5952 -0.3369
  111MOL     H726627   4.522   3.155   7.374 -0.9354 -1.5281  0.1814
  111MOL     H826628   4.590   3.017   7.288  0.5334 -0.4258  1.8551
  111MOL     H926629   4.633   3.162   7.083  1.0207 -0.0663  0.6598
  111MOL    H1026630   4.262   3.379   7.002 -1.1964  0.8831  0.8683
  111MOL    H1126631   4.386   3.476   6.948  1.5172 -1.9050 -1.2799
  111MOL    H1226632   4.338   3.492   7.115  2.7000  1.2036 -0.0444
  111MOL    H1326633   4.446   3.100   7.231  0.2383  0.4042  0.0653
  111MOL    C1426634   4.780   3.230   7.232  0.2931  0.5183 -0.0386
  111MOL    C1526635   4.889   3.164   7.138  1.0785  0.6942  0.6302
  111MOL    C1626636   5.026   3.226   7.170 -0.4410  0.4988 -0.7544
  111MOL    O1726637   5.097   3.177   7.257 -0.3903 -0.2998  0.3151
  111MOL    O1826638   5.051   3.338   7.098  0.2288  0.4748  0.1341
  111MOL    C1926639   5.173   3.409   7.123 -0.2694 -0.2989  0.4524
  111MOL    H2026640   4.800   3.337   7.235  0.2315  0.5507 -0.6134
  111MOL    H2126641   4.781   3.192   7.334 -1.0327  2.6845  0.8071
  111MOL    H2226642   4.851   3.202   7.044  0.1561 -1.0246  0.2852
  111MOL    H2326643   5.245   3.348   7.067  1.3373  4.0344 -2.4129
  111MOL    H2426644   5.217   3.403   7.223  0.2146 -1.9374  0.1624
  111MOL    H2526645   5.175   3.509   7.081  1.7556 -0.6457 -0.3747
  111MOL    C2626646   4.885   3.010   7.141  0.0602 -0.3874 -0.1998
  111MOL    C2726647   4.950   2.940   7.020  0.3151 -0.0932  0.2716
  111MOL    C2826648   4.946   2.788   7.038  0.2252  0.1240 -0.7464
  111MOL    O2926649   5.048   2.721   7.047  0.8692 -1.1018 -0.0122
  111MOL    O3026650   4.823   2.745   7.060 -0.0893 -0.3023 -0.4859
  111MOL    C3126651   4.794   2.608   7.080  0.0973  0.6297  0.1520
  111MOL    H3226652   4.932   2.972   7.231  1.0737 -1.2765 -1.0864
  111MOL    H3326653   4.784   2.972   7.155 -0.1440 -0.2799 -1.2970
  111MOL    H3426654   5.055   2.968   7.013  0.4985 -1.2249 -1.8608
  111MOL    H3526655   4.686   2.606   7.096  0.3158  1.6302  1.8469
  111MOL    H3626656   4.847   2.575   7.169  0.0052  0.2805  0.0762
  111MOL    H3726657   4.821   2.553   6.990  0.0198 -0.0585  0.5487
  111MOL    C3826658   4.885   2.968   6.887  0.7992 -0.2888  0.7949
  111MOL    C3926659   4.968   2.945   6.760  0.4070  0.2724  0.3930
  111MOL    C4026660   4.987   2.803   6.727  0.1446 -0.0255 -0.0908
  111MOL    O4126661   5.089   2.748   6.714  0.0270  0.3277  0.1030
  111MOL    O4226662   4.868   2.746   6.712  0.1052  0.8535  0.7621
  111MOL    C4326663   4.861   2.608   6.660 -0.7191  0.2737  0.2234
  111MOL    H4426664   4.782   2.939   6.865  1.0127  0.3067 -1.0640
  111MOL    H4526665   4.886   3.077   6.891 -0.2462 -0.2917  1.2413
  111MOL    H4626666   5.068   2.974   6.792  1.4922 -1.8793 -0.8626
  111MOL    H4726667   4.873   2.551   6.753  1.8427 -0.2379 -0.3676
  111MOL    H4826668   4.940   2.578   6.591 -0.4616 -0.1003  0.6757
  111MOL    H4926669   4.763   2.592   6.615  1.0696 -0.0078 -3.8291
  111MOL    C5026670   4.918   3.034   6.642  0.6212 -0.1148  0.4000
  111MOL    C5126671   5.014   3.060   6.523 -0.0809 -0.3866 -0.0095
  111MOL    C5226672   4.942   3.134   6.414  0.3609  0.4344 -0.3313
  111MOL    O5326673   4.915   3.084   6.304  1.2264  0.1483 -0.3945
  111MOL    O5426674   4.901   3.255   6.455 -0.6416  0.0196 -0.0808
  111MOL    C5526675   4.830   3.339   6.367  0.0591 -0.4426 -0.0618
  111MOL    H5626676   4.824   3.006   6.594  1.0320 -0.3711 -0.2796
  111MOL    H5726677   4.914   3.127   6.697  1.2482 -0.1751  0.5439
  111MOL    H5826678   5.045   2.966   6.478 -0.8133  0.1092 -1.6239
  111MOL    H5926679   4.887   3.366   6.278 -2.5838 -0.0170 -1.6730
  111MOL    H6026680   4.800   3.428   6.422  0.5004 -0.0308 -0.4776
  111MOL    H6126681   4.732   3.302   6.338 -1.0859  2.1691  0.3113
  111MOL    C6226682   5.142   3.144   6.569 -0.0317  0.6179  0.1288
  111MOL    C6326683   5.273   3.138   6.484  0.0512 -0.2608  0.2974
  111MOL    C6426684   5.270   3.168   6.326  0.8843 -0.4833  0.2726
  111MOL    O6526685   5.311   3.273   6.271  0.1595  0.3158 -0.1590
  111MOL    O6626686   5.208   3.067   6.269  0.3850 -0.0145  0.5060
  111MOL    C6726687   5.185   3.063   6.121 -0.1097  0.2107 -0.4310
  111MOL    H6826688   5.115   3.248   6.584  0.5577  0.3624  3.2246
  111MOL    H6926689   5.165   3.108   6.669 -0.8903  2.5719  1.0449
  111MOL    H7026690   5.313   3.037   6.475  1.4245  0.3825 -1.1549
  111MOL    H7126691   5.269   3.004   6.084 -2.5472 -3.6050 -0.1544
  111MOL    H7226692   5.171   3.165   6.085 -0.6143  0.4002  0.2704
  111MOL    H7326693   5.091   3.009   6.110  0.3666 -0.9431  0.9634
  111MOL    C7426694   5.396   3.221   6.547 -0.4639  0.6361 -0.7762
  111MOL    C7526695   5.433   3.196   6.693 -0.6027  0.5687  0.3920
  111MOL    C7626696   5.469   3.043   6.703  0.5230  0.1969  0.2826
  111MOL    O7726697   5.584   3.011   6.672  0.1636  0.3142  0.0317
  111MOL    O7826698   5.380   2.967   6.754 -0.2562 -0.3197 -0.6660
  111MOL    C7926699   5.410   2.839   6.793 -0.4368  0.0429  0.5024
  111MOL    H8026700   5.486   3.197   6.491  1.0676  2.0344  1.0102
  111MOL    H8126701   5.367   3.326   6.540 -1.2154  0.3917 -1.3367
  111MOL    H8226702   5.348   3.228   6.752 -0.5052  2.2407 -0.3318
  111MOL    H8326703   5.496   2.826   6.859 -0.3564 -2.9792 -0.1210
  111MOL    H8426704   5.439   2.783   6.704  1.0666 -0.7668  1.4662
  111MOL    H8526705   5.325   2.790   6.841 -0.1549 -0.1380  0.8209
  111MOL    C8626706   5.555   3.288   6.729  0.1081 -0.0886  0.2806
  111MOL    C8726707   5.552   3.335   6.878 -0.3208 -0.0491  0.0973
  111MOL    C8826708   5.556   3.226   6.985 -0.2380  0.5206  0.8018
  111MOL    O8926709   5.469   3.223   7.070 -0.3349  0.7816 -0.5862
  111MOL    O9026710   5.654   3.142   6.970 -0.2392  0.2741 -0.2784
  111MOL    C9126711   5.683   3.041   7.067 -0.0382 -0.2030  1.1650
  111MOL    H9226712   5.649   3.239   6.701 -1.6001 -1.6119 -3.2044
  111MOL    H9326713   5.561   3.366   6.653  1.1438 -1.8094 -1.4827
  111MOL    H9426714   5.460   3.393   6.886  0.6474  1.1660  3.8803
  111MOL    H9526715   5.661   3.079   7.167  1.5785  0.3549  1.3131
  111MOL    H9626716   5.788   3.015   7.060 -0.1351  0.1725 -2.8914
  111MOL    H9726717   5.620   2.954   7.047  0.9883 -0.8662  0.7681
  111MOL    C9826718   5.677   3.424   6.896 -0.3129 -0.4439  0.0037
  111MOL    C9926719   5.679   3.509   7.027 -0.2832 -0.4331  0.2138
  111MOL   C10026720   5.808   3.478   7.108 -0.6449 -0.3441  0.2810
  111MOL   O10126721   5.896   3.559   7.131 -0.4174  0.1210  0.2096
  111MOL   O10226722   5.811   3.349   7.151  0.2394  0.1065 -0.2235
  111MOL   C10326723   5.925   3.310   7.226  0.0336  0.4248 -0.3096
  111MOL   H10426724   5.773   3.375   6.880  0.2215  0.8736 -0.9194
  111MOL   H10526725   5.668   3.498   6.816  2.8812  0.8458  0.7491
  111MOL   H10626726   5.605   3.474   7.098 -0.8438  0.4022  0.0513
  111MOL   H10726727   5.953   3.380   7.305 -1.1057 -0.5348  0.9665
  111MOL   H10826728   6.006   3.305   7.153  0.1858 -2.6031  0.0084
  111MOL   H10926729   5.908   3.211   7.267  1.6078  0.3092  0.0839
  111MOL   C11026730   5.661   3.659   7.005  0.3185 -0.5568 -0.1259
  111MOL   C11126731   5.650   3.753   7.133  0.2644  0.4223  0.3224
  111MOL   C11226732   5.675   3.894   7.093  0.1013 -0.2743 -0.2356
  111MOL   O11326733   5.745   3.969   7.161 -0.6566 -0.4507 -0.0321
  111MOL   O11426734   5.617   3.921   6.978  0.1911  0.3193  0.4535
  111MOL   C11526735   5.657   4.036   6.906  0.1656 -0.1447 -0.2889
  111MOL   H11626736   5.741   3.700   6.944 -0.3281  0.0210 -0.5984
  111MOL   H11726737   5.570   3.676   6.947  0.5380  1.3813  0.0764
  111MOL   H11826738   5.746   3.730   7.178  1.8074 -0.2560 -3.1258
  111MOL   H11926739   5.596   4.035   6.816  2.3164 -0.8869 -1.7779
  111MOL   H12026740   5.763   4.021   6.885  0.1593 -0.6519  0.0272
  111MOL   H12126741   5.636   4.123   6.968 -0.9701 -2.0765  2.1246
  111MOL   C12226742   5.521   3.725   7.207  0.1718  0.1589  0.0579
  111MOL   C12326743   5.505   3.818   7.325 -0.1124  0.1526  0.5165
  111MOL   C12426744   5.357   3.811   7.376 -0.0134 -0.4301  0.2449
  111MOL   O12526745   5.289   3.906   7.355  0.3091  0.5715 -0.1547
  111MOL   O12626746   5.325   3.698   7.438  0.1326 -0.1621  0.5552
  111MOL   C12726747   5.194   3.666   7.479 -0.5036 -0.1046  0.1621
  111MOL   H12826748   5.432   3.735   7.146 -0.8473  1.1419  1.6888
  111MOL   H12926749   5.522   3.624   7.248  0.8261  0.4387  0.7582
  111MOL   H13026750   5.509   3.924   7.300 -1.9405  0.1965  0.3420
  111MOL   H13126751   5.193   3.561   7.510 -0.6041 -0.1426  0.0299
  111MOL   H13226752   5.113   3.659   7.407  0.0210 -2.4536 -0.2339
  111MOL   H13326753   5.170   3.730   7.564 -1.7739 -0.3344 -0.0168
  111MOL   C13426754   5.607   3.805   7.443 -0.1155 -0.7197 -0.0849
  111MOL   C13526755   5.585   3.920   7.554  0.1487 -0.1639  0.1764
  111MOL   C13626756   5.671   3.867   7.673 -0.2052  0.3574  0.0483
  111MOL   O13726757   5.625   3.836   7.783  0.0399  0.1309  0.1853
  111MOL   O13826758   5.804   3.863   7.640  0.5665  0.3601 -0.1687
  111MOL   C13926759   5.892   3.792   7.725  0.3236 -0.8764 -0.1869
  111MOL   H14026760   5.619   3.704   7.483 -0.0745 -0.4645  0.5408
  111MOL   H14126761   5.702   3.817   7.389  0.8651 -0.5209  1.6427
  111MOL   H14226762   5.481   3.936   7.585  0.0906  3.1578 -1.5169
  111MOL   H14326763   5.858   3.690   7.708 -2.1874 -0.1639  0.4569
  111MOL   H14426764   5.884   3.822   7.829  0.8671 -1.2750 -0.0265
  111MOL   H14526765   5.998   3.790   7.698  0.1820  1.7451 -1.0625
  111MOL   C14626766   5.639   4.062   7.517  0.2650 -0.0960 -0.5558
  111MOL   C14726767   5.532   4.176   7.498 -0.1280 -0.1808  0.4570
  111MOL   C14826768   5.454   4.204   7.628 -0.3438  0.8218 -0.5707
  111MOL   O14926769   5.341   4.159   7.646  0.2747  0.3329 -0.1653
  111MOL   O15026770   5.534   4.261   7.721 -0.6628  0.5485 -0.5380
  111MOL   C15126771   5.468   4.307   7.842 -0.6895 -0.2335 -0.5753
  111MOL   H15226772   5.711   4.099   7.591 -1.6261  4.2642 -0.7716
  111MOL   H15326773   5.701   4.046   7.429 -0.7666  0.4019 -1.3760
  111MOL   H15426774   5.461   4.140   7.424 -0.1025  1.0105 -0.1627
  111MOL   H15526775   5.554   4.323   7.907 -0.6887 -1.4660 -0.2617
  111MOL   H15626776   5.399   4.237   7.888 -0.1601  0.0232  0.6164
  111MOL   H15726777   5.433   4.409   7.829 -0.2846  0.1209  1.0081
  111MOL   C15826778   5.610   4.300   7.456 -0.3045 -0.1614 -0.4191
  111MOL   C15926779   5.649   4.314   7.309 -0.1641 -0.0502  0.2845
  111MOL   C16026780   5.529   4.321   7.213 -0.1779  0.3281  0.3357
  111MOL   O16126781   5.497   4.421   7.144  0.7255  0.0149 -0.1072
  111MOL   O16226782   5.465   4.201   7.195 -0.0932  0.1199  0.1900
  111MOL   C16326783   5.363   4.197   7.101  0.4153 -0.0520  0.5510
  111MOL   H16426784   5.569   4.398   7.481  0.8440  0.5415 -1.2545
  111MOL   H16526785   5.708   4.304   7.505 -0.8353 -0.5911  0.6891
  111MOL   H16626786   5.686   4.224   7.259 -0.9506  0.3431 -1.0426
  111MOL   H16726787   5.313   4.101   7.090 -0.1184  0.1928  0.8717
  111MOL   H16826788   5.399   4.224   7.001 -0.5985 -3.4593 -0.8211
  111MOL   H16926789   5.287   4.263   7.143  0.0967 -0.0864  0.0352
  111MOL   C17026790   5.747   4.438   7.288 -0.3457 -0.4334 -0.1278
  111MOL   C17126791   5.882   4.439   7.370  0.4474  0.2413  0.0196
  111MOL   C17226792   5.942   4.301   7.398  0.7637  0.0796  0.1108
  111MOL   O17326793   5.959   4.254   7.515  0.0599 -0.0283  0.5721
  111MOL   O17426794   5.970   4.231   7.288  0.2048 -0.5689  0.3210
  111MOL   C17526795   6.018   4.100   7.293 -0.3898  0.4522  0.0550
  111MOL   H17626796   5.769   4.461   7.184  1.2641  2.2747  0.7508
  111MOL   H17726797   5.693   4.524   7.329 -1.7640  0.2816 -3.3745
  111MOL   H17826798   5.860   4.486   7.466 -0.5516  0.2730 -0.2208
  111MOL   H17926799   5.976   4.037   7.372 -1.2927 -0.1068 -0.8636
  111MOL   H18026800   6.125   4.099   7.313 -0.2794  0.7771 -0.5150
  111MOL   H18126801   6.006   4.050   7.197 -0.6999  0.6087  0.0116
  111MOL   C18226802   5.979   4.541   7.307 -0.0264 -0.0432 -0.2301
  111MOL   C18326803   6.111   4.553   7.384  0.5540 -0.7203  0.2848
  111MOL   C18426804   6.218   4.624   7.302  0.0474  0.1443  0.5002
  111MOL   O18526805   6.323   4.566   7.262 -0.1820  0.1359  0.1422
  111MOL   O18626806   6.203   4.760   7.285  0.0209  0.6092  0.2272
  111MOL   C18726807   6.299   4.829   7.213 -0.0229 -0.1199  0.3325
  111MOL   H18826808   5.994   4.516   7.202  1.4245  0.5029 -0.1700
  111MOL   H18926809   5.948   4.646   7.308  0.0131 -0.0304 -0.4744
  111MOL   H19026810   6.159   4.458   7.404 -1.6310 -1.9762 -0.2102
  111MOL   H19126811   6.249   4.917   7.174 -1.3732 -1.1872 -0.4078
  111MOL   H19226812   6.323   4.762   7.130  2.9592  0.4968  0.6561
  111MOL   H19326813   6.391   4.847   7.269 -1.2925  0.6763  2.2093
  111MOL   C19426814   6.087   4.631   7.519  0.0612 -0.0916  0.0941
  111MOL   C19526815   6.191   4.617   7.631 -0.1642 -0.7673  0.3316
  111MOL   C19626816   6.173   4.728   7.738  0.4717 -0.1928  0.5493
  111MOL   O19726817   6.250   4.821   7.749  0.1146 -0.5431 -0.6129
  111MOL   O19826818   6.064   4.715   7.803 -0.1462  0.4165 -0.1904
  111MOL   C19926819   6.021   4.820   7.896  0.2913 -0.6809 -0.5902
  111MOL   H20026820   6.076   4.737   7.496  2.0588  0.0698 -0.2105
  111MOL   H20126821   5.988   4.613   7.559 -0.1272  0.9903  0.1245
  111MOL   H20226822   6.291   4.631   7.590 -0.7059 -0.0947 -0.7642
  111MOL   H20326823   6.031   4.917   7.846  2.6650 -1.7766 -2.3231
  111MOL   H20426824   6.089   4.814   0.047 -1.5409 -1.8843  0.8470
  111MOL   H20526825   5.924   4.795   0.006  0.9999 -0.3218  1.2767
  111MOL   C20626826   6.198   4.476   7.704  0.4791 -0.7888  0.0628
  111MOL   C20726827   6.310   4.380   7.671 -0.2521  0.2176  0.2720
  111MOL   C20826828   6.442   4.416   7.749 -0.0908  0.5796 -0.1132
  111MOL   O20926829   6.476   4.353   7.850 -0.3328 -0.0395 -0.1949
  111MOL   O21026830   6.498   4.526   7.695  0.0469 -0.3074  0.3903
  111MOL   C21126831   6.621   4.569   7.762 -0.4010 -0.4686  0.6377
  111MOL   H21226832   6.196   4.480   7.813 -1.9371  1.0817 -0.0024
  111MOL   H21326833   6.099   4.440   7.675  0.4662 -1.1216  0.5082
  111MOL   H21426834   6.335   4.383   7.564 -0.2092 -0.8073  0.2510
  111MOL   H21526835   6.686   4.484   7.776  2.4226  1.6339  0.6950
  111MOL   H21626836   6.602   4.611   7.861  1.0325 -0.8019  1.0512
  111MOL   H21726837   6.667   4.651   7.706  0.0138 -0.3084  1.2109
  111MOL   C21826838   6.256   4.239   7.708  0.2034  0.1663  0.0923
  111MOL   C21926839   6.321   4.128   7.616  0.2178 -0.1809 -0.3220
  111MOL   C22026840   6.455   4.084   7.676  0.9698  0.7237  0.2964
  111MOL   O22126841   6.464   4.022   7.781  0.1522 -0.0795  0.3170
  111MOL   O22226842   6.557   4.117   7.598  0.2011 -0.5661 -0.2642
  111MOL   C22326843   6.678   4.072   7.640 -1.2664  0.3826 -0.4737
  111MOL   H22426844   6.261   4.221   7.816 -0.0600  1.1745  0.2814
  111MOL   H22526845   6.149   4.228   7.692  0.5987 -0.7027 -2.0686
  111MOL   H22626846   6.331   4.167   7.515 -2.4544  0.0281 -0.5449
  111MOL   H22726847   6.757   4.115   7.578  0.9125 -1.1422  1.2034
  111MOL   H22826848   6.689   3.964   7.627  0.7652  0.7527 -2.1489
  111MOL   H22926849   6.707   4.089   7.743 -0.3332 -2.5902 -0.1966
  111MOL   C23026850   6.232   3.993   7.615  0.3498  0.3446  0.2040
  111MOL   C23126851   6.291   3.882   7.520 -0.9717  0.6106 -0.0242
  111MOL   C23226852   6.195   3.769   7.484  0.5186  0.3119 -0.3615
  111MOL   O23326853   6.213   3.654   7.519  0.4282  0.6193 -0.3122
  111MOL   O23426854   6.086   3.811   7.411  0.8272  0.0965  0.2576
  111MOL   C23526855   5.984   3.723   7.388 -0.4345  0.3372  0.0910
  111MOL   H23626856   6.227   3.944   7.712  0.6992 -0.5020 -0.1933
  111MOL   H23726857   6.134   4.021   7.577 -0.6005 -1.9503  0.8558
  111MOL   H23826858   6.376   3.835   7.570  1.1478  0.4610 -3.5797
  111MOL   H23926859   6.017   3.619   7.387  2.1961  1.1369  0.1325
  111MOL   H24026860   5.944   3.737   7.288 -0.4763 -0.7589 -0.0538
  111MOL   H24126861   5.898   3.728   7.454 -0.7524  2.0608 -0.4224
  111MOL   H24226862   6.338   3.920   7.429 -0.8544 -0.4602 -0.4180
  112MOL     C126863   3.323   6.498   0.120 -0.9286 -0.3777  0.3747
  112MOL     C226864   3.240   6.417   0.232 -0.3692 -0.9742  0.0112
  112MOL     C326865   3.174   6.288   0.176 -0.1410 -0.0153  0.0878
  112MOL     O426866   3.242   6.193   0.139 -0.6699  0.5783  0.1820
  112MOL     O526867   3.047   6.297   0.167  0.1359  0.1197  0.2909
  112MOL     C626868   2.967   6.208   0.090  0.0605 -0.2357 -0.3924
  112MOL     H726869   3.295   6.452   0.026 -1.4727 -2.0874  1.3436
  112MOL     H826870   3.431   6.481   0.122 -0.7752  0.6402  1.6231
  112MOL     H926871   3.161   6.484   0.264  0.3754  0.5793 -1.3326
  112MOL    H1026872   2.867   6.208   0.133 -1.5069  0.9848 -3.8469
  112MOL    H1126873   3.002   6.104   0.085 -1.9441 -1.0526  1.6378
  112MOL    H1226874   2.950   6.252   7.925  0.9800 -0.1898 -0.5316
  112MOL    H1326875   3.308   6.605   0.110 -1.5158 -0.1998  2.6723
  112MOL    C1426876   3.322   6.394   0.366 -0.0550 -0.1893  0.6283
  112MOL    C1526877   3.249   6.319   0.481  0.2732 -0.0920 -0.5595
  112MOL    C1626878   3.345   6.280   0.598 -0.6302 -0.1016  1.0909
  112MOL    O1726879   3.374   6.353   0.692  0.6822 -0.4906 -0.1529
  112MOL    O1826880   3.409   6.162   0.576  0.0408  0.3559  0.2175
  112MOL    C1926881   3.512   6.119   0.664 -0.0942 -0.2566  0.2072
  112MOL    H2026882   3.410   6.334   0.343  0.4814  1.3871 -1.6346
  112MOL    H2126883   3.359   6.493   0.394 -0.3117 -0.0654  0.5345
  112MOL    H2226884   3.199   6.227   0.451  0.2219  0.0420 -0.8826
  112MOL    H2326885   3.545   6.016   0.647  1.7285  0.0868  1.4292
  112MOL    H2426886   3.479   6.128   0.767 -0.1402  2.4909 -0.0270
  112MOL    H2526887   3.594   6.190   0.661 -0.5364  0.2700  0.6285
  112MOL    C2626888   3.142   6.412   0.532 -0.3391  0.4041 -0.2350
  112MOL    C2726889   3.019   6.341   0.603 -0.2978  0.0131 -0.2501
  112MOL    C2826890   2.953   6.448   0.693  0.5315 -0.2169 -0.1179
  112MOL    O2926891   2.912   6.413   0.804  0.4110 -0.4996  0.5762
  112MOL    O3026892   2.947   6.574   0.641  0.0437 -0.3015 -0.3681
  112MOL    C3126893   2.886   6.679   0.713 -0.1011 -0.3115  0.3976
  112MOL    H3226894   3.187   6.478   0.606  0.1799 -1.0307  0.7535
  112MOL    H3326895   3.092   6.465   0.452 -1.1738  1.2493  0.8234
  112MOL    H3426896   3.064   6.264   0.667 -1.8681 -1.0596 -0.4125
  112MOL    H3526897   2.942   6.770   0.695  0.8480 -0.8239  0.7064
  112MOL    H3626898   2.892   6.669   0.822  1.6325  1.1790  0.4616
  112MOL    H3726899   2.778   6.683   0.696 -0.0430  0.3286  0.1679
  112MOL    C3826900   2.915   6.273   0.504 -0.3925 -0.8854 -0.5086
  112MOL    C3926901   2.802   6.192   0.571 -0.7303  0.2940  0.3556
  112MOL    C4026902   2.687   6.165   0.469  0.9201  0.4142 -0.5004
  112MOL    O4126903   2.676   6.055   0.416 -0.7845  0.3694  0.2682
  112MOL    O4226904   2.604   6.269   0.448 -0.0300 -0.3422 -0.1561
  112MOL    C4326905   2.499   6.245   0.353  0.2343  0.1574  0.0208
  112MOL    H4426906   2.869   6.352   0.445 -0.4947  0.7588  1.6901
  112MOL    H4526907   2.971   6.212   0.433  1.5828 -1.1147  1.1858
  112MOL    H4626908   2.756   6.258   0.645  0.3347  1.8420 -0.3484
  112MOL    H4726909   2.432   6.331   0.350  1.5215  1.3049  2.2392
  112MOL    H4826910   2.451   6.154   0.389  1.4085 -1.1836 -1.7085
  112MOL    H4926911   2.549   6.219   0.260 -3.0972 -0.9778 -1.4958
  112MOL    C5026912   2.862   6.067   0.646  0.6945  0.0710  0.0027
  112MOL    C5126913   2.772   5.974   0.735  0.6339  0.4514 -0.5874
  112MOL    C5226914   2.807   5.826   0.704 -0.2693  0.0935 -0.5178
  112MOL    O5326915   2.869   5.751   0.776 -0.0010 -0.1982  0.5559
  112MOL    O5426916   2.772   5.779   0.587  0.3664  0.1044 -0.0861
  112MOL    C5526917   2.802   5.645   0.548  0.3252 -0.0742  0.1646
  112MOL    H5626918   2.897   6.003   0.565  0.7966  1.4793 -1.0804
  112MOL    H5726919   2.941   6.098   0.714 -0.2100 -0.0140  1.1073
  112MOL    H5826920   2.680   6.000   0.682  0.9945 -0.1197 -1.5011
  112MOL    H5926921   2.907   5.618   0.555  0.2018 -0.6862 -0.2707
  112MOL    H6026922   2.768   5.634   0.445 -1.7143  1.1831  0.6805
  112MOL    H6126923   2.738   5.576   0.604  0.9772 -0.1409  0.8380
  112MOL    C6226924   2.755   6.003   0.891 -0.1962  0.2115  0.0428
  112MOL    C6326925   2.671   6.132   0.930 -0.2370  0.1452  0.1433
  112MOL    C6426926   2.540   6.145   0.848  0.0116 -0.7914 -0.1107
  112MOL    O6526927   2.519   6.249   0.771 -0.5716  0.3741 -0.6530
  112MOL    O6626928   2.439   6.059   0.879  0.1241  0.0867  0.4205
  112MOL    C6726929   2.312   6.069   0.818 -0.3680  0.2467  0.0891
  112MOL    H6826930   2.714   5.916   0.942  3.4356 -1.0745  0.9110
  112MOL    H6926931   2.859   6.000   0.924 -0.6637  1.1635  1.6693
  112MOL    H7026932   2.722   6.225   0.903  0.6901 -0.2504  0.4986
  112MOL    H7126933   2.247   6.125   0.886 -0.7785 -1.6074  1.2454
  112MOL    H7226934   2.275   5.970   0.794  1.1140 -1.1645  3.3451
  112MOL    H7326935   2.320   6.132   0.729 -2.1142 -0.0660 -0.2957
  112MOL    C7426936   2.647   6.150   1.080 -0.4299  0.3325 -0.0654
  112MOL    C7526937   2.608   6.286   1.142  0.2913  0.2051 -0.8013
  112MOL    C7626938   2.480   6.286   1.234 -0.1799 -0.0419 -0.0423
  112MOL    O7726939   2.482   6.301   1.355 -0.4861  0.1835  0.2985
  112MOL    O7826940   2.370   6.277   1.160 -0.2007 -0.1253 -0.4052
  112MOL    C7926941   2.246   6.267   1.227 -0.1382  0.4862 -0.2119
  112MOL    H8026942   2.563   6.082   1.096 -2.3334  2.9138  1.2565
  112MOL    H8126943   2.726   6.103   1.138 -0.9549 -0.9815 -0.3956
  112MOL    H8226944   2.584   6.362   1.067  1.0306 -1.3644 -2.6609
  112MOL    H8326945   2.257   6.195   1.309 -0.4105  0.5024 -0.1610
  112MOL    H8426946   2.167   6.245   1.155 -0.9805 -0.8259  1.0753
  112MOL    H8526947   2.228   6.368   1.263 -2.1073  0.7852 -1.9157
  112MOL    C8626948   2.733   6.345   1.208 -0.5222  0.2392 -0.7765
  112MOL    C8726949   2.729   6.495   1.241  0.5157 -0.1873  0.3616
  112MOL    C8826950   2.833   6.533   1.351  0.3023  0.8898  0.1411
  112MOL    O8926951   2.941   6.475   1.350  0.2040 -0.2168  0.0418
  112MOL    O9026952   2.790   6.617   1.445  0.1909 -0.5748  0.1642
  112MOL    C9126953   2.872   6.639   1.562 -0.3573  0.6023 -0.2058
  112MOL    H9226954   2.741   6.294   1.304  1.2058  1.9368 -0.0011
  112MOL    H9326955   2.824   6.317   1.155 -0.3051  3.2235 -2.0317
  112MOL    H9426956   2.634   6.518   1.290 -0.1541 -1.7624 -0.1746
  112MOL    H9526957   2.871   6.745   1.590 -0.0822  0.1327  1.7020
  112MOL    H9626958   2.975   6.605   1.548 -0.4301  0.3688 -0.1728
  112MOL    H9726959   2.831   6.585   1.648 -0.2798 -1.5101 -1.4854
  112MOL    C9826960   2.748   6.579   1.114  0.4422 -0.2554  0.4562
  112MOL    C9926961   2.724   6.736   1.129 -0.5022 -0.8502  0.0601
  112MOL   C10026962   2.847   6.823   1.170  0.5308  0.1360 -0.0115
  112MOL   O10126963   2.870   6.866   1.284  0.2259 -0.3672 -0.9010
  112MOL   O10226964   2.916   6.842   1.061 -0.6085  0.6531 -0.1611
  112MOL   C10326965   3.033   6.916   1.072  0.0017  0.0640 -0.6269
  112MOL   H10426966   2.849   6.564   1.076  0.1656 -1.6359  0.2092
  112MOL   H10526967   2.676   6.545   1.039  2.0436 -0.3073 -1.0831
  112MOL   H10626968   2.650   6.740   1.209 -1.2809  1.2251 -0.7173
  112MOL   H10726969   3.110   6.868   1.132 -0.7302 -1.7607 -1.1104
  112MOL   H10826970   3.003   7.016   1.104  1.5874 -0.6668  3.4012
  112MOL   H10926971   3.084   6.912   0.975 -0.3660 -1.4535 -0.7694
  112MOL   C11026972   2.643   6.791   0.997  0.4218  0.0380  0.2320
  112MOL   C11126973   2.493   6.805   1.017 -0.5235  0.5474 -1.0025
  112MOL   C11226974   2.452   6.930   0.937  0.3766  0.5249  0.2794
  112MOL   O11326975   2.451   6.932   0.812 -0.4423 -0.4641  0.0637
  112MOL   O11426976   2.417   7.039   1.020 -0.9793 -0.5580 -0.0953
  112MOL   C11526977   2.343   7.144   0.964 -0.0736 -0.2029  0.7573
  112MOL   H11626978   2.687   6.887   0.970  1.8829 -0.4861  0.6880
  112MOL   H11726979   2.659   6.730   0.908 -0.7988 -2.6533  1.7956
  112MOL   H11826980   2.473   6.837   1.119  2.0147 -0.0661 -0.2769
  112MOL   H11926981   2.317   7.215   1.043  1.9080  0.2981  0.9782
  112MOL   H12026982   2.246   7.099   0.943  0.3740 -0.2015 -1.4789
  112MOL   H12126983   2.381   7.195   0.875 -2.2105  0.8949  0.4127
  112MOL   C12226984   2.414   6.676   0.986  0.4105 -0.4665 -0.3701
  112MOL   C12326985   2.269   6.666   1.061 -0.3639  0.2417  0.1829
  112MOL   C12426986   2.288   6.696   1.214 -0.4125 -0.2405  0.7330
  112MOL   O12526987   2.254   6.805   1.260  0.6204  0.0489 -0.1258
  112MOL   O12626988   2.342   6.591   1.293 -0.9000  0.2175  0.9365
  112MOL   C12726989   2.370   6.616   1.432  0.3408  0.1526 -0.1016
  112MOL   H12826990   2.408   6.665   0.877 -0.3523  0.2216 -0.3969
  112MOL   H12926991   2.481   6.592   1.008  0.4110 -0.7947 -1.5824
  112MOL   H13026992   2.232   6.564   1.064  2.2656 -0.7166  1.8852
  112MOL   H13126993   2.452   6.686   1.449  0.6895 -0.6830  1.8235
  112MOL   H13226994   2.390   6.520   1.480  0.2882  0.9795  1.5999
  112MOL   H13326995   2.279   6.648   1.482 -0.0590 -2.9689  1.3063
  112MOL   C13426996   2.176   6.750   0.974 -0.2954 -0.4365 -0.3634
  112MOL   C13526997   2.061   6.682   0.911 -0.3873 -0.6761  0.0593
  112MOL   C13626998   2.125   6.572   0.824  0.0690 -0.7344  1.0801
  112MOL   O13726999   2.117   6.458   0.866 -0.1236 -0.1437 -0.0068
  112MOL   O13827000   2.187   6.605   0.707  0.2133  0.3794  0.1505
  112MOL   C13927001   2.213   6.496   0.615  0.4041 -0.3392  0.5886
  112MOL   H14027002   2.140   6.835   1.033  0.2719  0.2107 -0.9339
  112MOL   H14127003   2.236   6.781   0.889 -0.2535  2.1010  0.5448
  112MOL   H14227004   2.018   6.752   0.840 -0.9231 -0.3235  0.7192
  112MOL   H14327005   2.123   6.436   0.601  0.5294 -0.2180 -0.7542
  112MOL   H14427006   2.287   6.429   0.658 -0.5395 -0.3918  2.1707
  112MOL   H14527007   2.254   6.540   0.524  0.1948  1.8485  1.5447
  112MOL   C14627008   1.946   6.652   1.011 -0.8698 -0.2077  0.2921
  112MOL   C14727009   1.910   6.754   1.122  0.7309  0.3580  0.1164
  112MOL   C14827010   1.865   6.876   1.050  0.6383 -0.1730  0.3908
  112MOL   O14927011   1.820   6.884   0.933 -0.0874 -0.2695 -0.8257
  112MOL   O15027012   1.878   6.984   1.131 -0.1793 -0.1344  0.2007
  112MOL   C15127013   1.832   7.118   1.096 -0.5420  0.2829  0.1103
  112MOL   H15227014   1.852   6.630   0.960 -0.3905 -1.5351 -0.0293
  112MOL   H15327015   1.977   6.559   1.060 -2.5401 -1.2464 -0.5555
  112MOL   H15427016   2.001   6.775   1.177 -0.4666  2.3136  1.4008
  112MOL   H15527017   1.906   7.176   1.040 -1.1023  0.0773 -0.8509
  112MOL   H15627018   1.815   7.182   1.183  0.5668 -2.9980  2.8504
  112MOL   H15727019   1.738   7.113   1.042 -0.8723  0.3722  0.6711
  112MOL   C15827020   1.796   6.710   1.220  0.0934  0.1313  0.1794
  112MOL   C15927021   1.828   6.637   1.346  0.7594  1.0121 -0.2095
  112MOL   C16027022   1.881   6.494   1.339  0.4504  0.1433 -0.1260
  112MOL   O16127023   2.003   6.485   1.332  0.6284  0.0213 -0.0542
  112MOL   O16227024   1.787   6.401   1.317  0.3873  0.3962  1.0373
  112MOL   C16327025   1.830   6.272   1.277 -0.1319 -0.2376 -0.2877
  112MOL   H16427026   1.720   6.783   1.248  1.3047  1.3149  0.4442
  112MOL   H16527027   1.742   6.630   1.170 -0.4195  0.6106 -0.0266
  112MOL   H16627028   1.730   6.627   1.393 -0.6478 -0.2359 -3.2975
  112MOL   H16727029   1.878   6.228   1.364  1.4059  3.8014  1.0254
  112MOL   H16827030   1.902   6.268   1.196 -0.3094  0.1682 -0.4675
  112MOL   H16927031   1.741   6.221   1.241  0.6143 -2.1082  0.4657
  112MOL   C17027032   1.912   6.723   1.447 -0.0018 -0.4879 -0.3126
  112MOL   C17127033   1.914   6.663   1.587  0.0415 -0.2586  0.3508
  112MOL   C17227034   2.028   6.719   1.668 -0.4263  0.1340 -0.7492
  112MOL   O17327035   2.143   6.663   1.674  1.1551 -0.6440  0.4982
  112MOL   O17427036   1.998   6.841   1.729  0.1613  0.0664 -0.4188
  112MOL   C17527037   2.098   6.898   1.806 -0.1712 -0.2625  0.4714
  112MOL   H17627038   2.010   6.747   1.405  0.3914  0.3115  1.0220
  112MOL   H17727039   1.865   6.821   1.452  3.0220  1.2069 -3.0624
  112MOL   H17827040   1.932   6.556   1.576  1.4629  0.0260 -0.2127
  112MOL   H17927041   2.104   7.000   1.767 -1.1310 -0.3326  0.1248
  112MOL   H18027042   2.197   6.860   1.781 -0.8950 -0.7809 -1.7720
  112MOL   H18127043   2.064   6.890   1.909 -0.4387  3.3785  0.7252
  112MOL   C18227044   1.779   6.660   1.664 -0.0880 -0.2902  0.2605
  112MOL   C18327045   1.713   6.522   1.660  0.1324 -0.0432  0.3478
  112MOL   C18427046   1.787   6.402   1.713 -0.1056 -0.1001 -0.1395
  112MOL   O18527047   1.792   6.295   1.654  0.2587  0.9774  0.0689
  112MOL   O18627048   1.833   6.421   1.841 -0.1680  0.0829  0.3731
  112MOL   C18727049   1.907   6.317   1.901 -0.0347  0.1873  0.0525
  112MOL   H18827050   1.777   6.691   1.768 -0.5067 -1.8250  0.7211
  112MOL   H18927051   1.716   6.736   1.618  1.3861  1.0549  0.3992
  112MOL   H19027052   1.694   6.504   1.554 -2.1857  0.4987  0.6406
  112MOL   H19127053   1.863   6.224   1.865 -0.1622  0.5805 -0.8184
  112MOL   H19227054   1.894   6.319   2.009 -0.9424  0.8843 -0.0641
  112MOL   H19327055   2.011   6.323   1.871  0.1284  1.1821  0.7969
  112MOL   C19427056   1.571   6.524   1.719  0.7965  0.0230 -0.9993
  112MOL   C19527057   1.466   6.608   1.636 -0.0651  0.4221  1.0695
  112MOL   C19627058   1.356   6.521   1.584 -0.0993  0.7929 -0.1731
  112MOL   O19727059   1.286   6.458   1.659 -0.2233  0.2319  0.7680
  112MOL   O19827060   1.351   6.509   1.447  0.0441  0.1111 -0.2436
  112MOL   C19927061   1.258   6.413   1.392  0.7963 -0.0980 -0.0242
  112MOL   H20027062   1.539   6.421   1.728  0.7322  0.2034  1.1529
  112MOL   H20127063   1.572   6.563   1.821 -1.8949 -1.8371 -0.2061
  112MOL   H20227064   1.518   6.630   1.543 -0.0048  1.1317  1.2631
  112MOL   H20327065   1.301   6.314   1.376 -1.1199 -0.8731 -0.4668
  112MOL   H20427066   1.214   6.445   1.298 -0.7688  0.2439  0.8184
  112MOL   H20527067   1.165   6.405   1.448  0.7549  0.3605 -0.0241
  112MOL   C20627068   1.424   6.733   1.721  0.4071 -0.1199 -0.5746
  112MOL   C20727069   1.369   6.857   1.640 -0.2142  0.9171 -1.1188
  112MOL   C20827070   1.488   6.931   1.572 -0.9495  0.3267  0.0041
  112MOL   O20927071   1.514   6.920   1.453 -0.5112  0.1503 -0.5036
  112MOL   O21027072   1.557   6.993   1.661 -0.5186  0.4415  0.0135
  112MOL   C21127073   1.676   7.059   1.630 -0.3992 -0.7714  0.3223
  112MOL   H21227074   1.352   6.710   1.800 -0.6093 -1.2481 -1.8122
  112MOL   H21327075   1.505   6.768   1.786 -1.9521  1.0866  1.8039
  112MOL   H21427076   1.343   6.939   1.707 -1.5755  1.1873 -1.9789
  112MOL   H21527077   1.662   7.126   1.544  1.0772  0.4872  1.0241
  112MOL   H21627078   1.752   6.983   1.613 -0.5324 -1.4346  2.5425
  112MOL   H21727079   1.696   7.112   1.723  1.2913 -0.9605  0.0800
  112MOL   C21827080   1.250   6.832   1.540 -0.0688  0.0069 -0.2179
  112MOL   C21927081   1.123   6.771   1.598 -0.0252 -0.1454 -0.2100
  112MOL   C22027082   1.046   6.856   1.700 -0.2818 -0.3380  0.0036
  112MOL   O22127083   0.941   6.907   1.671 -0.2805  0.5022 -0.0748
  112MOL   O22227084   1.101   6.856   1.815 -0.0696  0.6502 -0.2379
  112MOL   C22327085   1.047   6.910   1.934  0.0615  0.4868  1.2849
  112MOL   H22427086   1.232   6.921   1.480 -0.7383 -0.5281 -0.8168
  112MOL   H22527087   1.281   6.779   1.449 -0.6644 -0.4326 -0.1660
  112MOL   H22627088   1.158   6.684   1.655 -0.6496 -0.2898 -0.0482
  112MOL   H22727089   1.100   7.002   1.962 -0.8146  1.3766  0.0730
  112MOL   H22827090   1.042   6.840   2.017  2.8836 -2.1660 -0.7182
  112MOL   H22927091   0.943   6.942   1.925 -0.2401 -0.9517 -0.6620
  112MOL   C23027092   1.030   6.713   1.494 -0.1465 -0.2286  0.2445
  112MOL   C23127093   0.975   6.810   1.382 -0.1198 -0.0177  0.4906
  112MOL   C23227094   0.867   6.742   1.305 -0.2107 -0.1967 -0.1248
  112MOL   O23327095   0.813   6.639   1.342 -0.0793 -0.1182  0.0463
  112MOL   O23427096   0.837   6.801   1.190  0.5633  0.3780  0.4060
  112MOL   C23527097   0.725   6.749   1.121  0.2665 -0.3819  0.0930
  112MOL   H23627098   1.080   6.622   1.459  0.1235 -0.3760  0.9883
  112MOL   H23727099   0.944   6.675   1.549  0.1050 -2.7048 -1.0029
  112MOL   H23827100   1.052   6.824   1.306 -1.6794  1.4583 -0.8587
  112MOL   H23927101   0.630   6.785   1.158 -0.9523 -2.3926 -0.9721
  112MOL   H24027102   0.715   6.640   1.120 -0.9326 -0.2755  0.3358
  112MOL   H24127103   0.735   6.779   1.017  0.8079 -0.1153  0.2183
  112MOL   H24227104   0.940   6.907   1.416 -1.2445 -0.9847  2.1804
  113MOL     C127105   3.979   6.206   1.850  0.3885 -0.0573 -0.3472
  113MOL     C227106   4.045   6.342   1.867 -0.3900 -0.2484 -0.0006
  113MOL     C327107   4.186   6.320   1.939  0.1880 -0.7337  0.4814
  113MOL     O427108   4.295   6.343   1.884  0.2277 -0.2440  0.4108
  113MOL     O527109   4.166   6.283   2.068  0.5329 -0.2502  0.1315
  113MOL     C627110   4.284   6.245   2.136 -0.3010  0.1736  0.3368
  113MOL     H727111   3.980   6.165   1.749  0.1253 -0.6147 -0.1253
  113MOL     H827112   3.874   6.207   1.877  0.1371 -0.1722 -1.2927
  113MOL     H927113   3.981   6.390   1.942 -2.0559 -0.3750 -1.3106
  113MOL    H1027114   4.365   6.312   2.111 -0.9003  0.3449 -1.1911
  113MOL    H1127115   4.315   6.143   2.117 -1.0157 -0.2709  1.4394
  113MOL    H1227116   4.273   6.247   2.245  0.8063 -2.2374  0.5355
  113MOL    H1327117   4.025   6.129   1.912 -0.8140  0.7523  1.5755
  113MOL    C1427118   4.065   6.424   1.740 -0.0629 -0.1725 -0.1013
  113MOL    C1527119   4.024   6.569   1.750 -0.1709 -0.4033  0.1690
  113MOL    C1627120   3.874   6.584   1.760 -0.1640  0.2044  0.5703
  113MOL    O1727121   3.807   6.569   1.863 -0.5393  0.0968 -0.6600
  113MOL    O1827122   3.816   6.607   1.635  0.7734 -0.4384 -0.3394
  113MOL    C1927123   3.675   6.623   1.617  0.2635  0.4796  0.3898
  113MOL    H2027124   4.160   6.422   1.686  0.3446  0.5316  0.5825
  113MOL    H2127125   4.001   6.378   1.664 -0.6505 -0.8765  0.8155
  113MOL    H2227126   4.055   6.614   1.656  0.2382 -0.8183  0.1024
  113MOL    H2327127   3.615   6.534   1.638  1.8026 -0.2727  1.8031
  113MOL    H2427128   3.653   6.661   1.518  0.6316 -0.0005  0.1204
  113MOL    H2527129   3.635   6.696   1.687 -1.1230  2.1336 -2.0874
  113MOL    C2627130   4.093   6.649   1.862 -1.0120 -0.4790 -0.7260
  113MOL    C2727131   4.251   6.674   1.834 -1.0612  0.4824  0.1069
  113MOL    C2827132   4.284   6.785   1.735 -0.4706  0.7475 -0.6484
  113MOL    O2927133   4.225   6.891   1.728 -0.8594 -0.0019  0.1936
  113MOL    O3027134   4.388   6.752   1.657 -0.2089  0.0739  0.5839
  113MOL    C3127135   4.462   6.859   1.594 -0.0777 -1.1509  0.2803
  113MOL    H3227136   4.036   6.740   1.884  0.1865 -0.2482  1.6358
  113MOL    H3327137   4.085   6.599   1.959  1.6247  0.7474  0.1719
  113MOL    H3427138   4.279   6.582   1.782  1.6500  2.1019 -1.4310
  113MOL    H3527139   4.550   6.843   1.531 -0.7681  0.2443 -1.0800
  113MOL    H3627140   4.492   6.939   1.661 -0.7621 -0.3119 -0.3953
  113MOL    H3727141   4.388   6.911   1.534  0.8216 -0.6631 -0.4217
  113MOL    C3827142   4.335   6.689   1.965 -0.1438  0.1888  0.2409
  113MOL    C3927143   4.474   6.624   1.966 -0.2499 -0.1904 -0.1002
  113MOL    C4027144   4.586   6.714   1.911  0.1482 -0.3829  0.3982
  113MOL    O4127145   4.662   6.674   1.822  0.2172  0.1735 -0.0412
  113MOL    O4227146   4.590   6.841   1.968 -0.0307  0.4386 -0.0203
  113MOL    C4327147   4.684   6.933   1.914 -0.1906  0.3821 -0.1786
  113MOL    H4427148   4.351   6.792   1.996  0.2034  0.3451 -0.4415
  113MOL    H4527149   4.282   6.652   2.053 -2.9553 -1.1180 -1.9135
  113MOL    H4627150   4.471   6.538   1.899  3.1586 -0.7490  0.3671
  113MOL    H4727151   4.698   7.010   1.989 -2.1617 -1.8287  2.5895
  113MOL    H4827152   4.654   6.964   1.814 -0.1384 -3.9313 -1.6429
  113MOL    H4927153   4.780   6.880   1.917 -1.3192 -1.7242  0.1460
  113MOL    C5027154   4.510   6.565   2.105  0.1662  0.6277 -0.1260
  113MOL    C5127155   4.644   6.485   2.111  0.9945 -0.2136 -0.1838
  113MOL    C5227156   4.679   6.440   2.257  0.3068  0.1662  0.0386
  113MOL    O5327157   4.781   6.479   2.304 -0.1734 -0.9521 -0.3978
  113MOL    O5427158   4.585   6.371   2.314  0.7546  0.3390 -0.0234
  113MOL    C5527159   4.613   6.317   2.441  0.6216 -0.3278 -0.2656
  113MOL    H5627160   4.526   6.654   2.166  0.2618 -0.4438  1.4401
  113MOL    H5727161   4.430   6.516   2.161 -0.0752  2.4511  1.1860
  113MOL    H5827162   4.726   6.554   2.094 -0.6515  2.1063  0.9117
  113MOL    H5927163   4.656   6.388   2.512 -1.9281  2.4944 -1.4632
  113MOL    H6027164   4.683   6.234   2.431  2.3108  1.3052 -2.3155
  113MOL    H6127165   4.521   6.277   2.484  0.7976 -0.8915 -0.4037
  113MOL    C6227166   4.647   6.362   2.016  0.3713 -0.3391  0.4632
  113MOL    C6327167   4.785   6.307   1.960 -0.5477  0.1195 -0.0640
  113MOL    C6427168   4.857   6.405   1.872 -0.2120 -0.4342  0.4970
  113MOL    O6527169   4.893   6.368   1.760 -0.1974 -0.1442  0.0574
  113MOL    O6627170   4.897   6.512   1.933 -0.0590  0.2221 -0.0701
  113MOL    C6727171   4.987   6.585   1.860 -0.0071 -0.1170 -0.0461
  113MOL    H6827172   4.596   6.276   2.059  2.0320 -0.8190  1.4967
  113MOL    H6927173   4.589   6.371   1.924  0.3067  1.2352  0.6448
  113MOL    H7027174   4.756   6.222   1.899  0.8964 -1.5780  1.5896
  113MOL    H7127175   5.026   6.653   1.936  0.1705 -1.4293  1.0608
  113MOL    H7227176   4.930   6.648   1.792  0.5935 -0.7878 -1.1877
  113MOL    H7327177   5.069   6.545   1.800  0.2373  0.9374 -0.4266
  113MOL    C7427178   4.890   6.252   2.072  0.2111  0.7225 -0.2701
  113MOL    C7527179   5.011   6.170   2.024  0.3037  1.0603  0.1092
  113MOL    C7627180   5.141   6.251   1.989  0.5190  0.3646 -0.2326
  113MOL    O7727181   5.141   6.374   1.987 -0.1171  0.3815 -0.1707
  113MOL    O7827182   5.254   6.177   1.963 -0.0220  0.1102 -0.3199
  113MOL    C7927183   5.365   6.243   1.896 -0.2662 -0.2354  0.1236
  113MOL    H8027184   4.929   6.338   2.127 -0.0184  0.3411  0.4943
  113MOL    H8127185   4.836   6.192   2.145 -0.7306 -0.1596 -1.6815
  113MOL    H8227186   4.979   6.136   1.926 -0.0894  2.4974 -0.2769
  113MOL    H8327187   5.411   6.164   1.838 -1.2154 -1.1718  0.6287
  113MOL    H8427188   5.429   6.295   1.967 -1.2817 -1.7688  2.2104
  113MOL    H8527189   5.332   6.310   1.817  0.2872 -1.7323 -1.3892
  113MOL    C8627190   5.029   6.046   2.105  0.2432 -0.5769 -0.4061
  113MOL    C8727191   5.091   6.052   2.248 -0.1258 -0.4474  0.1576
  113MOL    C8827192   5.045   6.169   2.331  0.5429  0.2083  0.1107
  113MOL    O8927193   4.935   6.156   2.387 -0.4618  0.6156 -0.0419
  113MOL    O9027194   5.128   6.273   2.339 -0.0191  0.2193 -0.3508
  113MOL    C9127195   5.103   6.401   2.392 -0.0004 -0.0715  0.1616
  113MOL    H9227196   4.935   5.991   2.101  2.1340 -3.9113 -2.0031
  113MOL    H9327197   5.092   5.984   2.041 -1.6629 -3.2422  0.1883
  113MOL    H9427198   5.197   6.074   2.230 -0.8307  2.8954 -0.2105
  113MOL    H9527199   5.191   6.445   2.438  0.4475 -1.0492  0.2574
  113MOL    H9627200   5.022   6.408   2.464  0.3170 -1.8903  0.7197
  113MOL    H9727201   5.071   6.456   2.304 -0.2303 -0.5304 -0.0452
  113MOL    C9827202   5.068   5.921   2.323  0.0414 -0.3620  0.0144
  113MOL    C9927203   5.115   5.892   2.468  0.3151  0.0601  0.4846
  113MOL   C10027204   5.077   5.746   2.515  0.0774  0.0106  0.0052
  113MOL   O10127205   4.994   5.736   2.612 -0.4167  0.3928 -0.2789
  113MOL   O10227206   5.133   5.648   2.450 -0.9597 -0.0398 -0.3487
  113MOL   C10327207   5.141   5.516   2.501 -0.2108  1.1008 -0.1722
  113MOL   H10427208   4.962   5.897   2.311  0.1873 -0.6117 -0.7629
  113MOL   H10527209   5.122   5.850   2.261 -0.2980  0.1413 -0.8653
  113MOL   H10627210   5.067   5.961   2.538  0.1389  0.3753  0.0528
  113MOL   H10727211   5.051   5.456   2.516  1.1680 -1.2283 -0.9420
  113MOL   H10827212   5.191   5.507   2.598 -2.1052  1.3874  0.8504
  113MOL   H10927213   5.208   5.455   2.440 -0.0022 -0.7545  1.8291
  113MOL   C11027214   5.269   5.909   2.483  0.2172 -0.2772  0.9014
  113MOL   C11127215   5.328   5.954   2.617 -0.3331 -0.4662  0.1654
  113MOL   C11227216   5.271   6.089   2.654 -0.0448  0.2943 -0.4518
  113MOL   O11327217   5.166   6.102   2.710 -0.6505  0.3318  0.1771
  113MOL   O11427218   5.357   6.193   2.618 -0.0335  0.3208  0.2232
  113MOL   C11527219   5.311   6.320   2.660 -0.3074 -0.8237  0.0911
  113MOL   H11627220   5.317   5.824   2.434  0.0086 -0.2281  0.6102
  113MOL   H11727221   5.298   5.991   2.417 -0.4976  0.4722  1.5087
  113MOL   H11827222   5.436   5.965   2.610 -0.2475 -0.6377  1.1204
  113MOL   H11927223   5.215   6.356   2.623 -0.4430 -1.3725 -0.0838
  113MOL   H12027224   5.387   6.393   2.630  0.4839 -2.2078 -1.3449
  113MOL   H12127225   5.305   6.315   2.769 -2.5371 -1.6929 -0.0501
  113MOL   C12227226   5.318   5.847   2.733 -1.0982 -0.0532 -0.1331
  113MOL   C12327227   5.409   5.864   2.862 -0.0930 -0.5938 -0.1049
  113MOL   C12427228   5.557   5.829   2.837 -0.3043  0.6359 -0.1786
  113MOL   O12527229   5.606   5.719   2.871 -0.5491  0.7933  0.0337
  113MOL   O12627230   5.623   5.934   2.789 -0.5678  0.2403 -0.1030
  113MOL   C12727231   5.764   5.940   2.791 -1.0879  0.7684  0.3802
  113MOL   H12827232   5.214   5.838   2.766 -0.8807 -0.9485  0.3177
  113MOL   H12927233   5.345   5.747   2.700  0.5390  0.0196  0.9667
  113MOL   H13027234   5.382   5.772   2.914  0.8192 -0.9281 -0.2243
  113MOL   H13127235   5.786   6.046   2.805 -0.6818  0.8157 -0.6006
  113MOL   H13227236   5.803   5.899   2.698  1.6677  1.8242  1.0183
  113MOL   H13327237   5.802   5.890   2.881 -2.5133  0.1922  0.6786
  113MOL   C13427238   5.383   5.993   2.958 -0.0123  0.3250 -0.0771
  113MOL   C13527239   5.244   5.992   3.028 -0.1780  0.2274 -0.3015
  113MOL   C13627240   5.247   5.891   3.146  0.8814 -0.5656  1.0885
  113MOL   O13727241   5.256   5.928   3.261 -0.0601 -0.0449 -0.5033
  113MOL   O13827242   5.240   5.762   3.111 -0.0251  0.1619 -0.3079
  113MOL   C13927243   5.231   5.657   3.206 -0.0125 -0.2965  0.0444
  113MOL   H14027244   5.462   5.979   3.032 -1.6121 -1.1321  1.3820
  113MOL   H14127245   5.405   6.086   2.906  0.1613 -0.3420 -1.2051
  113MOL   H14227246   5.173   5.959   2.953 -3.1878  2.6598  1.3659
  113MOL   H14327247   5.314   5.652   3.276 -0.2790 -1.3217  0.2913
  113MOL   H14427248   5.223   5.560   3.158  0.6747 -0.0080 -0.6682
  113MOL   H14527249   5.137   5.675   3.258 -0.3197  1.2156 -0.9762
  113MOL   C14627250   5.221   6.138   3.071 -0.0592  0.3257  0.1665
  113MOL   C14727251   5.083   6.190   3.097  0.6392  0.0782  0.1695
  113MOL   C14827252   4.979   6.178   2.991 -0.9066  0.8088 -0.2885
  113MOL   O14927253   4.920   6.275   2.949 -0.1492 -0.4632  0.6552
  113MOL   O15027254   4.965   6.055   2.956  0.1140 -0.0712  0.2119
  113MOL   C15127255   4.906   6.030   2.828 -0.7462  0.1631  0.8431
  113MOL   H15227256   5.285   6.167   3.154 -0.0725  1.2793 -0.1502
  113MOL   H15327257   5.253   6.206   2.992 -0.3537  2.0240  1.4934
  113MOL   H15427258   5.104   6.297   3.099  0.9723  0.0676 -1.8611
  113MOL   H15527259   4.914   6.106   2.750  0.1394 -0.8391 -0.0553
  113MOL   H15627260   4.798   6.017   2.840 -1.2095  1.3217 -1.6924
  113MOL   H15727261   4.935   5.931   2.794  1.6951  0.9172  0.6707
  113MOL   C15827262   5.022   6.149   3.238  0.4914 -0.2096  0.1371
  113MOL   C15927263   4.904   6.243   3.281  0.0236  0.0818 -0.1189
  113MOL   C16027264   4.793   6.171   3.357  0.0482 -0.4304 -0.6623
  113MOL   O16127265   4.804   6.119   3.469 -0.3817 -0.8634 -0.9988
  113MOL   O16227266   4.678   6.180   3.278  0.0082 -0.5752  0.5288
  113MOL   C16327267   4.548   6.153   3.326 -0.2052 -0.1801 -0.1798
  113MOL   H16427268   4.974   6.051   3.231 -0.5727  0.4117 -1.8449
  113MOL   H16527269   5.097   6.143   3.316  0.6230 -0.6953 -0.0245
  113MOL   H16627270   4.849   6.279   3.194  0.2436  0.7101  0.0007
  113MOL   H16727271   4.522   6.049   3.343 -0.2866 -0.2730 -0.8646
  113MOL   H16827272   4.484   6.191   3.246 -0.5551 -2.9706 -1.2610
  113MOL   H16927273   4.524   6.206   3.418 -0.2388  1.6427 -1.2174
  113MOL   C17027274   4.957   6.374   3.349 -0.5292 -0.5300 -1.2331
  113MOL   C17127275   4.857   6.494   3.349  0.0663  0.6318  0.6574
  113MOL   C17227276   4.923   6.610   3.432 -0.1924 -0.7016 -0.1455
  113MOL   O17327277   5.043   6.629   3.441 -0.3411 -0.4791  0.5255
  113MOL   O17427278   4.832   6.693   3.477  0.4560  0.4415 -0.4281
  113MOL   C17527279   4.869   6.820   3.532  0.4071 -0.3570  0.0448
  113MOL   H17627280   4.990   6.367   3.452 -2.3995  1.2756 -0.4842
  113MOL   H17727281   5.047   6.402   3.294 -0.5686  1.4663 -0.3128
  113MOL   H17827282   4.760   6.460   3.386  0.5224  2.1564  3.3683
  113MOL   H17927283   4.889   6.890   3.451 -0.7478 -0.6020 -0.4486
  113MOL   H18027284   4.950   6.828   3.605  0.7764  1.0425 -0.5019
  113MOL   H18127285   4.786   6.853   3.594  0.4925  1.5173 -0.8027
  113MOL   C18227286   4.822   6.543   3.206  0.5784  0.2997  0.3587
  113MOL   C18327287   4.674   6.513   3.155  0.4544  0.2902  0.2734
  113MOL   C18427288   4.575   6.597   3.245 -0.2557 -0.0748  0.3157
  113MOL   O18527289   4.487   6.540   3.303 -0.0138  0.6509 -0.1397
  113MOL   O18627290   4.600   6.726   3.251 -0.1847 -0.1656  0.0612
  113MOL   C18727291   4.522   6.794   3.347  0.4918 -0.4928 -0.2260
  113MOL   H18827292   4.842   6.650   3.200  0.7846  0.2070 -0.8996
  113MOL   H18927293   4.897   6.505   3.136  0.5921 -1.9178  1.5376
  113MOL   H19027294   4.649   6.407   3.167  1.2113  0.2026  1.1522
  113MOL   H19127295   4.552   6.899   3.346  1.4918 -0.7477 -3.5499
  113MOL   H19227296   4.527   6.760   3.450  1.4822 -0.0055 -0.1033
  113MOL   H19327297   4.414   6.789   3.336  0.0422  1.5111  2.5416
  113MOL   C19427298   4.658   6.535   3.005 -0.6834 -0.1418  0.1387
  113MOL   C19527299   4.530   6.472   2.933 -0.6158 -0.5074  0.0437
  113MOL   C19627300   4.466   6.564   2.827 -0.7680 -0.1970 -0.2876
  113MOL   O19727301   4.460   6.540   2.708 -1.0468  0.4000 -0.0408
  113MOL   O19827302   4.444   6.692   2.883 -0.6104 -0.0311 -0.1583
  113MOL   C19927303   4.413   6.798   2.799  0.3127  0.3225 -0.3377
  113MOL   H20027304   4.656   6.643   2.987  0.7103  0.0002  0.7624
  113MOL   H20127305   4.750   6.502   2.955 -0.7970 -0.9744  0.4665
  113MOL   H20227306   4.451   6.474   3.008 -1.8601  2.5513 -1.2538
  113MOL   H20327307   4.398   6.892   2.853 -0.0001  0.8483 -1.3267
  113MOL   H20427308   4.322   6.787   2.741  0.4516 -1.8608 -0.1823
  113MOL   H20527309   4.487   6.823   2.723  0.8032 -0.8183 -0.2347
  113MOL   C20627310   4.558   6.329   2.876 -0.4499  0.2246  0.1639
  113MOL   C20727311   4.445   6.239   2.819 -0.4714 -0.2114  0.1282
  113MOL   C20827312   4.498   6.101   2.781 -0.0809 -0.7657 -0.5837
  113MOL   O20927313   4.569   6.094   2.676 -0.4808 -0.1469  0.0463
  113MOL   O21027314   4.470   6.001   2.865  0.3022 -0.1047  0.5865
  113MOL   C21127315   4.502   5.868   2.844 -0.0475  0.0466  1.0107
  113MOL   H21227316   4.640   6.334   2.805 -0.8895 -1.1180 -0.4423
  113MOL   H21327317   4.586   6.278   2.968  0.4868 -0.3604 -0.4502
  113MOL   H21427318   4.419   6.301   2.733  0.0073 -1.3662 -0.8650
  113MOL   H21527319   4.468   5.804   2.926  0.6409  0.6814  1.8037
  113MOL   H21627320   4.609   5.854   2.830  0.0379  0.7466  0.9562
  113MOL   H21727321   4.451   5.834   2.754  1.4598  0.6786 -0.1175
  113MOL   C21827322   4.323   6.230   2.916 -0.0575  0.0686  0.0661
  113MOL   C21927323   4.205   6.146   2.876  0.1573  0.3875 -0.3088
  113MOL   C22027324   4.098   6.137   2.985  0.2801 -0.0883  0.1048
  113MOL   O22127325   4.128   6.078   3.090 -0.4818  0.1706 -0.5634
  113MOL   O22227326   3.975   6.177   2.948 -0.0872 -0.5864 -0.3396
  113MOL   C22327327   3.875   6.146   3.051  0.5947 -0.1776  0.1467
  113MOL   H22427328   4.341   6.196   3.018  1.3029 -0.6447 -0.4021
  113MOL   H22527329   4.301   6.333   2.943 -1.2293 -0.8745  2.9825
  113MOL   H22627330   4.234   6.043   2.857  0.4074  0.7001 -1.6756
  113MOL   H22727331   3.857   6.039   3.047  1.0087 -0.1815 -2.5642
  113MOL   H22827332   3.781   6.199   3.034  0.3124 -0.7890 -0.2023
  113MOL   H22927333   3.904   6.166   3.154 -0.7308  1.7958  0.1637
  113MOL   C23027334   4.155   6.195   2.738  0.1790  0.1452 -0.1074
  113MOL   C23127335   4.125   6.343   2.727  1.1901 -0.2120 -0.5007
  113MOL   C23227336   4.120   6.391   2.583  0.0583  0.8278  0.2475
  113MOL   O23327337   4.017   6.374   2.517  0.8517  0.1863 -0.2702
  113MOL   O23427338   4.239   6.444   2.536  0.3539  0.1514 -0.2249
  113MOL   C23527339   4.232   6.525   2.418 -0.2122  0.2986  0.7020
  113MOL   H23627340   4.223   6.166   2.658  0.6759  3.3551 -0.9495
  113MOL   H23727341   4.062   6.147   2.707  1.0992 -1.9303  0.2658
  113MOL   H23827342   4.197   6.408   2.778 -0.4144  0.6128  0.7707
  113MOL   H23927343   4.244   6.466   2.327 -3.1085  3.8460 -2.0974
  113MOL   H24027344   4.311   6.601   2.419  0.1658 -0.0827 -0.2260
  113MOL   H24127345   4.146   6.591   2.408 -2.3801 -2.6523 -0.7138
  113MOL   H24227346   4.031   6.369   2.776  0.4704  1.4413 -2.6907
  114MOL     C127347   1.047   3.351   0.701 -0.0708  0.0677  0.5029
  114MOL     C227348   0.999   3.326   0.559  0.3924 -0.3877 -0.5512
  114MOL     C327349   0.853   3.366   0.530 -0.4047 -0.6603  0.5129
  114MOL     O427350   0.826   3.409   0.416  0.3651  0.3913 -0.0104
  114MOL     O527351   0.756   3.349   0.620 -0.2279 -0.7247  0.2799
  114MOL     C627352   0.623   3.402   0.585  0.7946 -0.2040 -0.1598
  114MOL     H727353   0.970   3.333   0.776 -0.0469 -1.3772  0.1964
  114MOL     H827354   1.056   3.460   0.701 -0.2432  0.0914 -0.4569
  114MOL     H927355   1.006   3.217   0.555 -0.6161 -0.4343 -1.1429
  114MOL    H1027356   0.574   3.333   0.517 -0.1304  1.3710 -1.1132
  114MOL    H1127357   0.642   3.491   0.526 -0.0023 -1.2463 -2.0326
  114MOL    H1227358   0.566   3.428   0.674  1.4024 -0.3635  0.2817
  114MOL    H1327359   1.149   3.317   0.718  0.2054  0.3511 -0.5538
  114MOL    C1427360   1.102   3.368   0.444 -0.7538 -0.5895  0.1776
  114MOL    C1527361   1.135   3.515   0.411 -0.0454  0.2005 -0.1938
  114MOL    C1627362   1.214   3.586   0.519  0.4143  0.2120 -0.0515
  114MOL    O1727363   1.331   3.557   0.550 -0.1619  0.9536 -0.4113
  114MOL    O1827364   1.143   3.692   0.574  0.1386  0.2229  0.0266
  114MOL    C1927365   1.205   3.773   0.665  0.7120 -0.7699  0.3085
  114MOL    H2027366   1.200   3.324   0.463  0.0206  2.1523  2.8520
  114MOL    H2127367   1.065   3.306   0.361  0.3394 -1.2223  0.1541
  114MOL    H2227368   1.051   3.583   0.399  0.6481  0.8015 -1.7536
  114MOL    H2327369   1.287   3.834   0.629  0.3976 -0.5368 -0.0064
  114MOL    H2427370   1.240   3.709   0.747 -0.8279 -0.8094  0.9679
  114MOL    H2527371   1.137   3.840   0.718 -0.4256  0.3452 -2.4883
  114MOL    C2627372   1.204   3.537   0.268 -0.1488  0.1520 -0.4665
  114MOL    C2727373   1.152   3.650   0.175 -0.2482 -0.0505 -0.0376
  114MOL    C2827374   1.180   3.791   0.230  0.0522  0.2688 -0.9325
  114MOL    O2927375   1.286   3.847   0.228  0.2444 -0.7066  0.2133
  114MOL    O3027376   1.071   3.820   0.297 -0.1590  0.2367 -0.0257
  114MOL    C3127377   1.056   3.933   0.380  0.2034 -0.3961 -0.4290
  114MOL    H3227378   1.308   3.555   0.293  0.2420 -3.3377  0.7425
  114MOL    H3327379   1.202   3.438   0.222 -1.0256 -0.6615  1.2717
  114MOL    H3427380   1.045   3.631   0.168 -0.0259 -1.3407 -0.1685
  114MOL    H3527381   1.138   3.968   0.443 -0.6111  1.2917 -0.2879
  114MOL    H3627382   0.964   3.920   0.437  0.6789 -1.7451  0.0725
  114MOL    H3727383   1.053   4.018   0.313 -2.1130  1.9484  2.5440
  114MOL    C3827384   1.223   3.630   0.035  0.0805 -0.2309 -0.1628
  114MOL    C3927385   1.166   3.721   7.860 -0.3209 -0.0357  1.4880
  114MOL    C4027386   1.263   3.765   7.747 -0.0511 -0.1718  0.2731
  114MOL    O4127387   1.302   3.884   7.747  0.0954  0.5777 -0.0043
  114MOL    O4227388   1.296   3.673   7.657 -0.2369  0.5931  0.5481
  114MOL    C4327389   1.375   3.718   7.541 -0.0838 -0.1707 -0.4687
  114MOL    H4427390   1.329   3.653   0.049  0.5696 -2.5372  0.0376
  114MOL    H4527391   1.211   3.526   0.007  0.7137 -0.3360 -0.0483
  114MOL    H4627392   1.144   3.816   7.908 -3.0303 -0.3025  0.8848
  114MOL    H4727393   1.325   3.788   7.474  0.8572  0.1468 -0.8411
  114MOL    H4827394   1.399   3.630   7.482  0.9863 -1.1014  1.3016
  114MOL    H4927395   1.468   3.761   7.577 -1.2089 -0.0550  2.4384
  114MOL    C5027396   1.028   3.674   7.793 -1.3666  0.0653  0.4261
  114MOL    C5127397   0.933   3.793   7.789 -0.4800 -0.2669  0.2126
  114MOL    C5227398   0.969   3.895   7.672  0.9565 -0.0760 -0.0076
  114MOL    O5327399   1.003   3.852   7.562 -0.0645  0.0278  0.2983
  114MOL    O5427400   0.960   4.016   7.716 -0.6800 -0.1964 -0.1956
  114MOL    C5527401   0.995   4.127   7.632 -0.1963 -0.2910  0.9193
  114MOL    H5627402   1.039   3.629   7.694  0.1865 -0.1523  0.6939
  114MOL    H5727403   0.991   3.599   7.863 -1.9235 -0.8796 -0.8518
  114MOL    H5827404   0.952   3.853   7.878 -1.6182 -0.6633  0.7354
  114MOL    H5927405   0.938   4.136   7.540  0.6264  2.2470  0.6268
  114MOL    H6027406   1.098   4.115   7.597 -0.8640 -2.0329 -0.5044
  114MOL    H6127407   0.976   4.221   7.684 -0.0012  0.8517 -1.0523
  114MOL    C6227408   0.785   3.753   7.770 -0.0439 -0.3396  0.2945
  114MOL    C6327409   0.720   3.671   7.885  0.5739  0.6541 -0.3678
  114MOL    C6427410   0.681   3.760   0.074  0.1475 -0.2306  0.3559
  114MOL    O6527411   0.685   3.879   0.077 -0.7949 -0.4188  0.2050
  114MOL    O6627412   0.658   3.681   0.179 -0.7782  0.1425 -0.2769
  114MOL    C6727413   0.634   3.742   0.306 -0.2536 -0.5328  0.4033
  114MOL    H6827414   0.720   3.837   7.746 -0.4930 -0.6596  0.3812
  114MOL    H6927415   0.779   3.697   7.676 -3.2186  1.0005 -0.3510
  114MOL    H7027416   0.786   3.595   7.928 -1.0830 -0.1854  0.7687
  114MOL    H7127417   0.690   3.832   0.330 -0.2924  0.0169 -1.5418
  114MOL    H7227418   0.651   3.671   0.387 -0.7006 -0.9601  0.1223
  114MOL    H7327419   0.530   3.772   0.316 -0.5916 -1.4556 -0.3060
  114MOL    C7427420   0.598   3.588   7.835  0.2625 -0.3534 -0.3273
  114MOL    C7527421   0.639   3.463   7.749 -0.2418  0.2563 -0.7260
  114MOL    C7627422   0.683   3.354   7.844  0.2713 -0.4633 -0.0175
  114MOL    O7727423   0.608   3.269   7.890 -0.7059 -0.4642 -0.0331
  114MOL    O7827424   0.809   3.375   7.875  0.6141 -0.0546  0.2981
  114MOL    C7927425   0.879   3.295   0.032  0.2951  0.1508  0.5749
  114MOL    H8027426   0.541   3.547   7.918  1.2453 -1.0569  0.0160
  114MOL    H8127427   0.521   3.647   7.786  0.4549 -1.1239 -1.5786
  114MOL    H8227428   0.727   3.487   7.690 -0.2919 -0.9942 -1.3383
  114MOL    H8327429   0.898   3.201   7.912  1.8919  0.8519 -0.1093
  114MOL    H8427430   0.830   3.282   0.129  0.3576 -1.0082  0.4586
  114MOL    H8527431   0.977   3.332   0.062 -0.1459  1.2248  0.6977
  114MOL    C8627432   0.526   3.419   7.653  0.7980 -0.2201  0.0523
  114MOL    C8727433   0.565   3.308   7.550  0.6188 -0.5076  0.1315
  114MOL    C8827434   0.444   3.241   7.486  0.3982 -0.2319 -0.3560
  114MOL    O8927435   0.363   3.297   7.418 -0.0115  0.4190  0.3494
  114MOL    O9027436   0.439   3.108   7.520  0.5973 -0.4537  0.4993
  114MOL    C9127437   0.323   3.034   7.508 -0.0686 -0.5111  1.1524
  114MOL    H9227438   0.433   3.408   7.710  1.3173 -0.3610  0.8835
  114MOL    H9327439   0.501   3.508   7.596 -1.3681  0.5802  2.1641
  114MOL    H9427440   0.634   3.240   7.602  2.9567  1.3955 -0.4044
  114MOL    H9527441   0.243   3.106   7.490 -1.1879 -1.5069  2.1306
  114MOL    H9627442   0.300   2.970   7.593  2.9126 -2.1776  0.7788
  114MOL    H9727443   0.337   2.965   7.424  1.0074 -2.2486  2.7209
  114MOL    C9827444   0.644   3.371   7.433 -0.6469 -0.6216  0.0893
  114MOL    C9927445   0.752   3.277   7.365  0.0202  0.2042  0.0882
  114MOL   C10027446   0.865   3.251   7.463 -0.4627 -0.4919 -0.5012
  114MOL   O10127447   0.880   3.144   7.517  0.3410  0.1175  0.4773
  114MOL   O10227448   0.944   3.357   7.484 -0.0448 -0.0988 -0.2832
  114MOL   C10327449   1.042   3.346   7.586 -0.1841 -0.2963 -0.0214
  114MOL   H10427450   0.576   3.391   7.350 -0.1244  0.3621 -0.1130
  114MOL   H10527451   0.687   3.469   7.454 -2.2114  0.3709 -1.2535
  114MOL   H10627452   0.789   3.344   7.287 -0.9486  2.2749  1.3423
  114MOL   H10727453   0.984   3.333   7.677 -1.5561  1.3580 -0.6312
  114MOL   H10827454   1.097   3.440   7.584  0.6824 -0.7887  0.5437
  114MOL   H10927455   1.108   3.261   7.572  0.4500 -0.0046  1.1233
  114MOL   C11027456   0.696   3.164   7.277  0.3709  0.0638 -0.1204
  114MOL   C11127457   0.804   3.097   7.198 -0.4596 -0.3489  0.7577
  114MOL   C11227458   0.760   2.962   7.126  0.0370 -1.0934 -0.2044
  114MOL   O11327459   0.642   2.929   7.113 -0.1222 -0.3689 -0.5998
  114MOL   O11427460   0.860   2.901   7.067 -0.5342  0.0284 -0.2489
  114MOL   C11527461   0.847   2.774   6.998 -0.3107  0.2871 -0.4234
  114MOL   H11627462   0.650   3.096   7.349 -0.9181  0.9992 -0.0444
  114MOL   H11727463   0.615   3.201   7.215 -0.2153 -0.5252  0.2747
  114MOL   H11827464   0.870   3.065   7.279  1.0560 -1.2747 -0.8214
  114MOL   H11927465   0.769   2.710   7.040  1.7709 -2.4911 -0.6712
  114MOL   H12027466   0.940   2.718   6.998  0.4715  1.5423 -1.9622
  114MOL   H12127467   0.806   2.782   6.897 -1.0986  1.9728  0.0140
  114MOL   C12227468   0.876   3.182   7.084 -0.5576  0.1431 -0.5930
  114MOL   C12327469   0.798   3.202   6.950  0.6002  1.1413 -0.2095
  114MOL   C12427470   0.679   3.293   6.973  0.1392 -0.1624  0.5500
  114MOL   O12527471   0.567   3.258   6.939  0.3545 -0.1317 -0.1806
  114MOL   O12627472   0.712   3.410   7.033 -0.5546 -0.1165  0.0835
  114MOL   C12727473   0.619   3.505   7.071  0.8909  0.3647  0.3414
  114MOL   H12827474   0.903   3.279   7.126 -1.2150 -0.2949  0.8954
  114MOL   H12927475   0.968   3.132   7.054 -1.3812 -2.2553  0.7267
  114MOL   H13027476   0.762   3.102   6.924 -0.9621  1.3940  0.8976
  114MOL   H13127477   0.547   3.453   7.135  1.4779  1.3546  1.8372
  114MOL   H13227478   0.585   3.564   6.986 -1.5396 -1.0565  0.2787
  114MOL   H13327479   0.668   3.578   7.135  0.8839  1.2198 -0.6147
  114MOL   C13427480   0.890   3.267   6.840  0.6067  0.2276 -0.9247
  114MOL   C13527481   0.977   3.154   6.767  0.3674  0.2252  0.5105
  114MOL   C13627482   0.882   3.075   6.685 -0.5635 -0.5011  0.2564
  114MOL   O13727483   0.868   2.952   6.698 -0.7602 -0.1580  0.2278
  114MOL   O13827484   0.804   3.145   6.605  0.0319 -0.1807  0.2396
  114MOL   C13927485   0.702   3.074   6.534  0.1274 -0.3661  0.1632
  114MOL   H14027486   0.825   3.320   6.770  0.8435  0.6423 -0.8313
  114MOL   H14127487   0.952   3.346   6.880 -0.6685 -0.3017  2.1950
  114MOL   H14227488   1.023   3.085   6.837  0.9578 -1.6987 -1.7159
  114MOL   H14327489   0.642   3.006   6.595 -1.8356  1.0369 -0.1422
  114MOL   H14427490   0.749   3.012   6.457 -0.2415 -0.0528 -0.3216
  114MOL   H14527491   0.637   3.138   6.474  0.9907  0.5175  0.1610
  114MOL   C14627492   1.100   3.207   6.685  0.2544  0.1682 -0.1885
  114MOL   C14727493   1.195   3.096   6.637 -0.3024  0.4031  0.1107
  114MOL   C14827494   1.144   2.989   6.537  0.1563 -0.2053 -0.1521
  114MOL   O14927495   1.140   2.869   6.571 -0.5863  0.0721  0.3136
  114MOL   O15027496   1.113   3.042   6.421  0.1236  0.6569  0.3494
  114MOL   C15127497   1.059   2.968   6.317 -0.3072  0.2219 -0.4306
  114MOL   H15227498   1.059   3.259   6.599  0.0287 -0.0277 -0.2002
  114MOL   H15327499   1.159   3.282   6.737  2.6708  0.8519 -3.7493
  114MOL   H15427500   1.213   3.043   6.730  0.5498  0.6605  0.0998
  114MOL   H15527501   1.139   2.927   6.256 -0.0284  2.3401 -1.5144
  114MOL   H15627502   1.011   3.050   6.264  0.5464  0.4471 -0.8568
  114MOL   H15727503   0.987   2.888   6.334 -0.2055 -0.2162 -2.0085
  114MOL   C15827504   1.317   3.166   6.584 -0.2126  0.0214  0.1713
  114MOL   C15927505   1.434   3.177   6.694  0.4587  0.6051  0.4482
  114MOL   C16027506   1.501   3.045   6.739 -0.3032  0.7342  0.2029
  114MOL   O16127507   1.522   3.015   6.859 -0.6076 -0.2216  0.3226
  114MOL   O16227508   1.533   2.977   6.633  0.0986 -0.3941 -0.1353
  114MOL   C16327509   1.610   2.863   6.658  0.0193  0.0671 -0.6107
  114MOL   H16427510   1.365   3.106   6.506 -0.7874 -0.1981 -0.0133
  114MOL   H16527511   1.286   3.260   6.537 -1.0415  0.0225  0.7170
  114MOL   H16627512   1.383   3.211   6.784 -0.9229  0.2266 -0.1739
  114MOL   H16727513   1.549   2.786   6.704  1.6012 -0.4582  0.6672
  114MOL   H16827514   1.692   2.896   6.722 -0.6886  1.1281 -0.2406
  114MOL   H16927515   1.641   2.822   6.562 -0.3444 -1.0986 -0.2274
  114MOL   C17027516   1.538   3.279   6.645  0.2477 -0.4647  0.9137
  114MOL   C17127517   1.623   3.335   6.771  0.0789  0.0124  0.7472
  114MOL   C17227518   1.764   3.363   6.722 -0.4009  0.4369  0.3675
  114MOL   O17327519   1.779   3.450   6.635  0.3011 -0.0939 -0.3458
  114MOL   O17427520   1.865   3.288   6.782 -0.0286 -0.0306  0.0867
  114MOL   C17527521   1.995   3.301   6.727 -0.6365  0.8979  1.2676
  114MOL   H17627522   1.603   3.247   6.564 -0.7196 -0.1402 -0.0088
  114MOL   H17727523   1.496   3.373   6.609  0.2985 -1.9903 -3.3078
  114MOL   H17827524   1.631   3.249   6.838  1.0317 -0.3305  0.2061
  114MOL   H17927525   1.987   3.283   6.619  2.1859  0.2323  1.1412
  114MOL   H18027526   2.074   3.236   6.764 -0.0063  1.7987  1.5048
  114MOL   H18127527   2.041   3.392   6.764  0.3528  0.9107  0.0466
  114MOL   C18227528   1.552   3.458   6.838  0.2614 -0.3376  0.3723
  114MOL   C18327529   1.614   3.507   6.968  0.6577  0.7777 -0.0967
  114MOL   C18427530   1.616   3.399   7.079  0.0456  0.0292 -0.0665
  114MOL   O18527531   1.538   3.417   7.169 -0.2294 -0.2390 -0.5496
  114MOL   O18627532   1.699   3.300   7.059  0.1048 -0.3962  0.1352
  114MOL   C18727533   1.690   3.183   7.145  0.0375 -0.4684 -0.3000
  114MOL   H18827534   1.564   3.542   6.769 -0.5913  1.0483  1.8839
  114MOL   H18927535   1.445   3.443   6.849  0.0166  1.7633  1.0386
  114MOL   H19027536   1.535   3.578   6.993 -1.8161 -0.6161 -3.4742
  114MOL   H19127537   1.710   3.194   7.252  1.6286 -0.9070 -0.5328
  114MOL   H19227538   1.761   3.105   7.117 -0.6264 -1.4312  0.6164
  114MOL   H19327539   1.593   3.134   7.143  0.0775 -0.7218  2.1820
  114MOL   C19427540   1.747   3.584   6.953  0.7647 -0.1959  0.7372
  114MOL   C19527541   1.745   3.713   6.864  0.2873  0.2648  0.0866
  114MOL   C19627542   1.631   3.810   6.893  0.1675  0.3949 -0.1173
  114MOL   O19727543   1.558   3.844   6.803  0.2633 -0.5109  0.4371
  114MOL   O19827544   1.627   3.841   7.025  0.4514  0.5023  1.1778
  114MOL   C19927545   1.508   3.913   7.061 -0.3507  0.1988  0.0933
  114MOL   H20027546   1.773   3.608   7.056  0.9110 -4.1134  1.6915
  114MOL   H20127547   1.821   3.514   6.916  0.4042 -0.2718  0.1381
  114MOL   H20227548   1.719   3.686   6.762 -2.1310  0.3288  0.6742
  114MOL   H20327549   1.510   3.923   7.170  2.0308 -2.7428  0.3782
  114MOL   H20427550   1.414   3.858   7.050 -0.3415  0.0122  0.9169
  114MOL   H20527551   1.507   4.008   7.008  1.7045 -0.7416 -1.6967
  114MOL   C20627552   1.892   3.779   6.868 -0.1290 -0.2173 -0.1643
  114MOL   C20727553   2.006   3.696   6.805 -0.2464 -0.2550 -0.1851
  114MOL   C20827554   2.029   3.733   6.658 -0.4501 -0.3289  0.0789
  114MOL   O20927555   2.140   3.762   6.618  0.1224 -0.6874 -0.6471
  114MOL   O21027556   1.927   3.695   6.584  0.2328 -0.1168 -0.5347
  114MOL   C21127557   1.937   3.687   6.443 -0.8018  0.6966 -0.1130
  114MOL   H21227558   1.892   3.880   6.826 -0.4585 -0.6591 -1.2448
  114MOL   H21327559   1.928   3.809   6.966  0.2026 -1.3297  0.0682
  114MOL   H21427560   1.969   3.593   6.807 -0.5028 -0.1698 -0.4802
  114MOL   H21527561   1.968   3.781   6.396 -2.3815  2.1159  1.5971
  114MOL   H21627562   1.841   3.668   6.394 -0.8770  0.1673  0.2458
  114MOL   H21727563   2.001   3.600   6.429  0.8498  1.8938 -0.1258
  114MOL   C21827564   2.139   3.709   6.881  0.7196  0.8255  0.1254
  114MOL   C21927565   2.149   3.650   7.029 -0.5806  0.1687 -0.0577
  114MOL   C22027566   2.148   3.491   7.031 -0.1060 -0.0340 -0.3668
  114MOL   O22127567   2.215   3.424   6.953  0.0403 -0.7846  0.3674
  114MOL   O22227568   2.055   3.433   7.110  0.3264 -0.0081 -0.2228
  114MOL   C22327569   2.034   3.294   7.090  0.7547  0.1721 -0.7843
  114MOL   H22427570   2.219   3.658   6.827  0.1429 -1.3724  1.2930
  114MOL   H22527571   2.174   3.812   6.882 -0.4691  1.2658  4.0692
  114MOL   H22627572   2.068   3.690   7.090 -0.3644  0.6978 -0.1124
  114MOL   H22727573   1.989   3.259   7.183  0.0227  0.2301 -1.1137
  114MOL   H22827574   2.130   3.249   7.066 -0.4707 -1.8172 -2.0622
  114MOL   H22927575   1.966   3.289   7.004 -0.5140 -0.4674  0.2369
  114MOL   C23027576   2.277   3.700   7.093  0.0765  0.4817  0.3213
  114MOL   C23127577   2.291   3.689   7.245  0.4732 -0.0090 -0.0000
  114MOL   C23227578   2.198   3.790   7.322 -0.6324  1.5616  0.0658
  114MOL   O23327579   2.168   3.901   7.281 -0.0468 -0.0733  0.0346
  114MOL   O23427580   2.155   3.727   7.433  0.2646  0.5003  0.5823
  114MOL   C23527581   2.056   3.776   7.526  0.1436 -0.1524 -0.3731
  114MOL   H23627582   2.360   3.654   7.039 -0.6989  1.0261 -1.3901
  114MOL   H23727583   2.287   3.806   7.066 -0.7330  0.4670 -0.0515
  114MOL   H23827584   2.395   3.716   7.263  0.6201 -0.8051  0.3768
  114MOL   H23927585   1.978   3.828   7.470  0.8285 -0.1559 -1.3336
  114MOL   H24027586   2.105   3.842   7.598 -0.2951 -0.7850  0.5195
  114MOL   H24127587   2.004   3.693   7.573 -1.0532  1.4606  1.2100
  114MOL   H24227588   2.278   3.585   7.277  0.3049  0.1228  0.3733
  115MOL     C127589   4.963   1.486   3.494 -0.0958 -0.0298  0.3754
  115MOL     C227590   4.911   1.342   3.466  0.3736  0.3685 -0.3599
  115MOL     C327591   4.849   1.285   3.593  0.4970  0.0848  0.8194
  115MOL     O427592   4.745   1.223   3.597 -0.1520 -0.4487 -0.7474
  115MOL     O527593   4.923   1.311   3.707  0.8561 -0.9966 -0.1669
  115MOL     C627594   4.862   1.279   3.830 -0.4792  0.2795 -0.5529
  115MOL     H727595   4.974   1.542   3.401 -3.6010 -0.1061 -0.1297
  115MOL     H827596   5.059   1.470   3.544 -0.2127  0.0800  0.6339
  115MOL     H927597   4.993   1.276   3.438  0.9687  0.3947  1.2800
  115MOL    H1027598   4.849   1.172   3.841 -0.1037  0.2350 -0.5413
  115MOL    H1127599   4.765   1.328   3.841 -1.4972 -1.8505  0.1662
  115MOL    H1227600   4.935   1.316   3.901 -0.4043 -1.1227  0.1089
  115MOL    H1327601   4.900   1.551   3.553  0.8901  0.2659  1.1024
  115MOL    C1427602   4.797   1.335   3.357  0.1752  0.2333 -0.0799
  115MOL    C1527603   4.822   1.398   3.218  0.0966  0.0672 -0.2397
  115MOL    C1627604   4.944   1.333   3.148 -0.9551 -0.1816 -0.4010
  115MOL    O1727605   5.007   1.400   3.068 -0.0671  0.0669  0.2052
  115MOL    O1827606   4.952   1.198   3.167  0.2249  0.3132  0.2934
  115MOL    C1927607   5.071   1.136   3.128  0.7768  0.5406  0.4979
  115MOL    H2027608   4.765   1.231   3.343 -1.9812  0.8332  0.1723
  115MOL    H2127609   4.709   1.386   3.396  3.1456  3.1313  3.1958
  115MOL    H2227610   4.842   1.501   3.245  2.7580 -0.5920  0.4827
  115MOL    H2327611   5.065   1.137   3.019 -1.0639  2.8359  0.5937
  115MOL    H2427612   5.061   1.031   3.155  1.0439  0.0108 -1.3574
  115MOL    H2527613   5.164   1.182   3.160  2.3549 -0.8600 -1.8572
  115MOL    C2627614   4.693   1.388   3.130 -0.0406  0.1029  0.6448
  115MOL    C2727615   4.693   1.492   3.014 -0.3007  0.4274  0.7555
  115MOL    C2827616   4.580   1.447   2.921 -0.7108  0.0410 -0.5163
  115MOL    O2927617   4.460   1.440   2.950  0.0905 -0.0492 -0.0191
  115MOL    O3027618   4.631   1.406   2.799 -0.2831 -0.0947  0.0456
  115MOL    C3127619   4.542   1.370   2.696 -0.4559 -0.6056  0.5329
  115MOL    H3227620   4.680   1.285   3.097 -3.6043  0.7637 -0.2232
  115MOL    H3327621   4.605   1.399   3.193  0.0647  0.4264  0.7416
  115MOL    H3427622   4.786   1.480   2.958 -1.5936 -2.5350 -0.8762
  115MOL    H3527623   4.438   1.396   2.715 -0.2967  0.9527 -0.6339
  115MOL    H3627624   4.545   1.264   2.670  2.5225 -0.1871 -1.0247
  115MOL    H3727625   4.574   1.423   2.606  0.2659  0.8423  1.6164
  115MOL    C3827626   4.693   1.642   3.051  0.1302  0.5552  0.2067
  115MOL    C3927627   4.661   1.736   2.929 -0.3849 -0.0074  0.7218
  115MOL    C4027628   4.553   1.840   2.958  0.5235 -0.1142 -0.3630
  115MOL    O4127629   4.464   1.855   2.874  0.1289 -0.2474 -0.3610
  115MOL    O4227630   4.568   1.913   3.063  0.5275 -0.1862 -0.3720
  115MOL    C4327631   4.484   2.018   3.106  0.1053  0.3608 -0.0316
  115MOL    H4427632   4.613   1.646   3.125 -0.7484 -2.7921 -0.4829
  115MOL    H4527633   4.790   1.667   3.094 -1.1715  1.8308  2.5022
  115MOL    H4627634   4.624   1.682   2.842 -1.5644  0.7810  0.7233
  115MOL    H4727635   4.525   2.056   3.200  2.0891 -1.1985 -0.2323
  115MOL    H4827636   4.383   1.979   3.117 -0.3432  0.7621 -2.5034
  115MOL    H4927637   4.480   2.098   3.032 -0.0786  0.9501  0.6049
  115MOL    C5027638   4.780   1.818   2.871  0.6902  0.2722 -0.2423
  115MOL    C5127639   4.789   1.814   2.713 -0.1458 -0.0330 -1.7638
  115MOL    C5227640   4.809   1.672   2.662 -0.6678 -0.5698  0.4169
  115MOL    O5327641   4.742   1.628   2.570 -0.2265 -0.4379  0.0679
  115MOL    O5427642   4.921   1.617   2.717  0.0537 -0.3536  0.3468
  115MOL    C5527643   4.958   1.489   2.679  0.3044  0.1850 -0.0571
  115MOL    H5627644   4.780   1.919   2.912 -0.6325  0.5008 -0.8129
  115MOL    H5727645   4.865   1.780   2.929 -0.6516  0.1248  1.6804
  115MOL    H5827646   4.882   1.867   2.691  0.2008  0.5070  0.8402
  115MOL    H5927647   4.967   1.487   2.570 -1.1609 -0.4451 -0.1834
  115MOL    H6027648   4.867   1.432   2.695  0.8135 -0.8313 -0.7562
  115MOL    H6127649   5.049   1.461   2.730  0.2448  1.9075  1.0515
  115MOL    C6227650   4.684   1.892   2.631  0.2650  0.0551 -0.4963
  115MOL    C6327651   4.677   2.046   2.665  0.1704 -0.1633  0.4910
  115MOL    C6427652   4.810   2.117   2.632 -0.5220 -0.1330  0.0987
  115MOL    O6527653   4.884   2.071   2.545 -0.1981 -0.0495  0.1181
  115MOL    O6627654   4.827   2.224   2.709  0.0626  0.8173  0.3034
  115MOL    C6727655   4.943   2.310   2.688 -0.3218 -0.5316 -0.0231
  115MOL    H6827656   4.705   1.882   2.524  0.5780  0.8695 -0.5087
  115MOL    H6927657   4.589   1.846   2.655  0.9524 -0.6781  0.9234
  115MOL    H7027658   4.662   2.054   2.773 -1.4513 -1.7438  0.4033
  115MOL    H7127659   4.953   2.373   2.776 -0.4060  1.1565 -1.1970
  115MOL    H7227660   4.932   2.364   2.594 -3.4918 -0.6273  0.2623
  115MOL    H7327661   5.033   2.249   2.678 -0.5879 -0.9852  0.3359
  115MOL    C7427662   4.553   2.105   2.602 -0.4443  0.6424 -0.5713
  115MOL    C7527663   4.493   2.236   2.662  0.0533  0.4755  0.7510
  115MOL    C7627664   4.410   2.313   2.563  0.6257  0.4093  0.1305
  115MOL    O7727665   4.340   2.263   2.482 -0.2169  0.5643 -0.2283
  115MOL    O7827666   4.430   2.446   2.570  0.2209  0.3754  0.6716
  115MOL    C7927667   4.343   2.541   2.512  0.1376  0.8255  0.4734
  115MOL    H8027668   4.586   2.128   2.501  1.8010  0.5157  0.0987
  115MOL    H8127669   4.471   2.035   2.581  0.3670  0.0282 -1.7905
  115MOL    H8227670   4.573   2.307   2.681  0.9413 -0.1708 -0.5633
  115MOL    H8327671   4.293   2.493   2.428  1.7330  0.3692 -0.2373
  115MOL    H8427672   4.402   2.625   2.476 -0.3836  0.0854 -2.2431
  115MOL    H8527673   4.279   2.560   2.598  0.0026  2.2884  0.0511
  115MOL    C8627674   4.427   2.216   2.798 -0.4438 -0.0913 -0.7581
  115MOL    C8727675   4.291   2.280   2.848 -0.3878 -0.0521 -0.1800
  115MOL    C8827676   4.180   2.171   2.873 -0.0746  0.4884  0.3629
  115MOL    O8927677   4.064   2.198   2.853  0.6276  0.1028  0.2151
  115MOL    O9027678   4.214   2.056   2.924 -0.0084  0.3252 -0.1222
  115MOL    C9127679   4.126   1.966   2.983 -0.2623 -0.1855 -0.4418
  115MOL    H9227680   4.414   2.108   2.808  0.0910  0.0516  1.6322
  115MOL    H9327681   4.501   2.243   2.873  0.8211  0.2358 -2.1138
  115MOL    H9427682   4.254   2.359   2.783 -2.2894  0.1041  1.0585
  115MOL    H9527683   4.183   1.898   3.046 -2.8915 -3.0143 -0.9560
  115MOL    H9627684   4.080   1.908   2.902  0.1427  1.0996 -1.5956
  115MOL    H9727685   4.052   2.024   3.039  1.5450  0.3366  1.4376
  115MOL    C9827686   4.311   2.348   2.985 -0.3684  0.3555 -0.0062
  115MOL    C9927687   4.400   2.478   2.997 -0.4407 -0.0252 -0.0776
  115MOL   C10027688   4.332   2.598   2.935  0.0469  0.1643 -0.5596
  115MOL   O10127689   4.214   2.620   2.955  0.5543  0.5810 -0.3277
  115MOL   O10227690   4.407   2.675   2.860 -0.6512  0.2027  0.6480
  115MOL   C10327691   4.355   2.798   2.806  0.5540 -0.9640  0.1215
  115MOL   H10427692   4.209   2.372   3.015  0.0604  0.8887  1.0351
  115MOL   H10527693   4.333   2.266   3.054 -1.2794 -0.8300 -1.1153
  115MOL   H10627694   4.486   2.456   2.935 -0.9161 -1.7056 -0.1546
  115MOL   H10727695   4.279   2.837   2.873  1.0473 -0.2531  0.2659
  115MOL   H10827696   4.322   2.795   2.702  1.7214  1.7321 -0.3613
  115MOL   H10927697   4.438   2.868   2.812  0.3852 -0.6936 -0.6585
  115MOL   C11027698   4.450   2.510   3.137  0.0038 -0.1728  0.0133
  115MOL   C11127699   4.543   2.397   3.185  0.1947 -0.2392 -0.3133
  115MOL   C11227700   4.669   2.357   3.100  0.1435  0.0015 -0.0673
  115MOL   O11327701   4.706   2.432   3.008 -0.4304  0.2332 -0.2412
  115MOL   O11427702   4.725   2.244   3.151 -0.3651 -0.0458  0.1923
  115MOL   C11527703   4.800   2.177   3.056  0.8281 -0.4336 -0.0613
  115MOL   H11627704   4.500   2.606   3.126  1.6956 -0.9114  1.0849
  115MOL   H11727705   4.368   2.528   3.206  1.1431 -0.3804  1.4637
  115MOL   H11827706   4.485   2.306   3.172  1.0627 -0.8054 -0.3255
  115MOL   H11927707   4.855   2.097   3.107  1.3827  0.2934  0.4823
  115MOL   H12027708   4.870   2.246   3.011  0.2590 -0.3530 -0.8321
  115MOL   H12127709   4.744   2.125   2.978  0.3352  1.2181 -0.8178
  115MOL   C12227710   4.584   2.405   3.343  0.6507 -0.1639  0.3132
  115MOL   C12327711   4.696   2.511   3.381  0.6482  0.4473 -0.1862
  115MOL   C12427712   4.644   2.651   3.364  0.2645  0.1964  0.4410
  115MOL   O12527713   4.534   2.688   3.404  0.7400  0.6156 -0.2690
  115MOL   O12627714   4.736   2.724   3.298 -0.4960 -0.4287  0.2207
  115MOL   C12727715   4.697   2.850   3.250 -0.7264  0.0725  0.0132
  115MOL   H12827716   4.492   2.433   3.393  0.6796 -0.0338  0.2948
  115MOL   H12927717   4.616   2.308   3.380  0.1058 -0.7837 -0.8282
  115MOL   H13027718   4.764   2.512   3.296  2.4137  0.4792  1.1882
  115MOL   H13127719   4.596   2.846   3.210  0.3473 -2.4847 -2.6047
  115MOL   H13227720   4.755   2.869   3.160 -0.0354 -2.9084 -0.2316
  115MOL   H13327721   4.699   2.933   3.321  0.6432 -0.3374  0.4650
  115MOL   C13427722   4.786   2.480   3.508  0.4582 -0.6251 -0.1480
  115MOL   C13527723   4.737   2.541   3.642  0.2023  0.2095 -0.8315
  115MOL   C13627724   4.612   2.467   3.700  0.1565  0.6285  0.2835
  115MOL   O13727725   4.513   2.527   3.745  0.2887 -0.0966  0.8751
  115MOL   O13827726   4.619   2.332   3.685  0.1728  0.2483 -0.0147
  115MOL   C13927727   4.512   2.253   3.729  0.0529  0.2686 -0.1883
  115MOL   H14027728   4.805   2.373   3.509  1.2124 -0.5218 -1.8013
  115MOL   H14127729   4.886   2.518   3.489 -0.0507 -0.6990 -3.3765
  115MOL   H14227730   4.706   2.644   3.623 -0.8381  0.2207  0.7917
  115MOL   H14327731   4.436   2.292   3.661  0.9065  1.9487 -0.2207
  115MOL   H14427732   4.496   2.266   3.836 -1.1533  0.8517 -0.4326
  115MOL   H14527733   4.520   2.146   3.708  1.4796  0.1235  0.9707
  115MOL   C14627734   4.855   2.544   3.743  0.3507 -0.8027  0.1109
  115MOL   C14727735   4.834   2.610   3.879  0.1365  0.4160  0.4806
  115MOL   C14827736   4.915   2.533   3.987  0.5075 -0.0684 -0.1728
  115MOL   O14927737   4.864   2.488   4.087 -0.6737  0.2233  0.0833
  115MOL   O15027738   5.047   2.536   3.964 -0.3486 -0.1068  0.1163
  115MOL   C15127739   5.145   2.464   4.057 -0.7574 -0.1017 -0.3813
  115MOL   H15227740   4.893   2.444   3.760  1.4977 -0.0171  2.3978
  115MOL   H15327741   4.937   2.600   3.698 -1.9314  0.5692 -2.5131
  115MOL   H15427742   4.730   2.601   3.910 -0.2039  4.5270  0.7744
  115MOL   H15527743   5.105   2.364   4.072 -1.4174  0.2518  0.2109
  115MOL   H15627744   5.149   2.506   4.157  0.3547  1.6297 -1.1326
  115MOL   H15727745   5.245   2.464   4.013 -1.0507  2.2921 -1.1149
  115MOL   C15827746   4.871   2.759   3.874 -0.2267  0.1699  0.0300
  115MOL   C15927747   4.840   2.842   4.001 -0.0471  0.1827 -0.2825
  115MOL   C16027748   4.947   2.844   4.109  0.1094  0.0311  0.2992
  115MOL   O16127749   4.917   2.829   4.226 -0.2571  0.1323 -0.3675
  115MOL   O16227750   5.069   2.859   4.067  0.9751 -0.1847  0.6282
  115MOL   C16327751   5.173   2.835   4.154 -1.0601 -0.5605  0.7817
  115MOL   H16427752   4.976   2.760   3.847 -0.4457 -0.5793 -0.9027
  115MOL   H16527753   4.817   2.796   3.786 -0.8754 -2.5524 -0.7589
  115MOL   H16627754   4.755   2.802   4.055  1.9628  0.2739  3.1369
  115MOL   H16727755   5.176   2.731   4.187  3.3640 -0.8891 -0.2388
  115MOL   H16827756   5.163   2.896   4.243  2.4874 -0.3551  1.1240
  115MOL   H16927757   5.265   2.863   4.101  0.4536 -1.1926  3.0021
  115MOL   C17027758   4.808   2.988   3.964  0.1453 -0.0105 -0.0020
  115MOL   C17127759   4.754   3.078   4.073  0.1111  0.2456  0.1858
  115MOL   C17227760   4.875   3.150   4.131 -0.0714  0.3235 -0.1572
  115MOL   O17327761   4.974   3.184   4.067 -0.3113 -0.5081  0.4189
  115MOL   O17427762   4.862   3.177   4.262  0.8357 -0.1633  0.2110
  115MOL   C17527763   4.954   3.259   4.325  0.0356 -0.3510  0.2662
  115MOL   H17627764   4.891   3.031   3.908  1.0840 -0.3572  1.1238
  115MOL   H17727765   4.724   2.978   3.895 -1.2913 -0.1266  1.7172
  115MOL   H17827766   4.717   3.014   4.152 -2.1059  1.8104  0.4747
  115MOL   H17927767   4.923   3.266   4.429  0.1478 -0.8791  0.3352
  115MOL   H18027768   4.954   3.358   4.280 -1.4448  0.2366  1.5152
  115MOL   H18127769   5.057   3.223   4.331  0.0284 -0.0357  2.6709
  115MOL   C18227770   4.640   3.171   4.037  0.0913  0.0711 -0.0735
  115MOL   C18327771   4.569   3.254   4.154 -0.1240  0.0703  0.0247
  115MOL   C18427772   4.490   3.373   4.098 -0.6314 -0.5421  0.3869
  115MOL   O18527773   4.536   3.489   4.098 -0.5700  0.3761  0.0911
  115MOL   O18627774   4.372   3.343   4.047  0.0746 -0.0064  0.0727
  115MOL   C18727775   4.295   3.433   3.962 -0.3070  0.0209  0.5855
  115MOL   H18827776   4.659   3.242   3.956  0.5667  1.0449  0.8695
  115MOL   H18927777   4.573   3.099   3.990  0.7176  1.0833 -2.6100
  115MOL   H19027778   4.650   3.295   4.214 -0.2078 -0.4051  0.4594
  115MOL   H19127779   4.334   3.446   3.860  0.4209  0.0107  0.8579
  115MOL   H19227780   4.298   3.536   3.996 -2.1464  1.1512 -2.3920
  115MOL   H19327781   4.195   3.390   3.954  0.1975 -1.2543  0.9227
  115MOL   C19427782   4.488   3.171   4.253 -0.3502 -0.2175 -0.1004
  115MOL   C19527783   4.525   3.186   4.400 -0.2323  0.1094 -0.6410
  115MOL   C19627784   4.486   3.328   4.454  0.2478 -0.2267  0.0043
  115MOL   O19727785   4.409   3.401   4.393  0.3240  0.4050  0.9645
  115MOL   O19827786   4.543   3.359   4.572 -0.1053 -0.2771  0.2016
  115MOL   C19927787   4.504   3.476   4.640  0.0770  0.0377  0.4077
  115MOL   H20027788   4.381   3.191   4.241  0.1568  1.7256 -1.5453
  115MOL   H20127789   4.496   3.065   4.227 -1.2061 -0.3555  0.1868
  115MOL   H20227790   4.633   3.192   4.394 -0.2632  1.0466 -0.2775
  115MOL   H20327791   4.582   3.494   4.714  1.9376 -1.6562 -1.0924
  115MOL   H20427792   4.415   3.456   4.701 -1.3823  1.9219 -1.0421
  115MOL   H20527793   4.486   3.562   4.576 -0.7119 -1.5928 -1.6163
  115MOL   C20627794   4.475   3.074   4.493  0.5168 -0.0590  1.2423
  115MOL   C20727795   4.560   2.948   4.506 -0.0996  0.0571 -0.5443
  115MOL   C20827796   4.704   2.985   4.554 -0.2183  0.3865  0.2674
  115MOL   O20927797   4.722   3.068   4.643 -0.2350  0.0581  0.5627
  115MOL   O21027798   4.808   2.903   4.489  0.1183 -0.6133  0.2368
  115MOL   C21127799   4.946   2.920   4.507  0.3201 -0.0519  0.2762
  115MOL   H21227800   4.449   3.113   4.591 -1.6510 -2.5694  1.7325
  115MOL   H21327801   4.376   3.043   4.461  0.9923 -0.8336  0.5201
  115MOL   H21427802   4.576   2.908   4.405 -0.2155  2.5066 -1.5551
  115MOL   H21527803   4.964   2.886   4.609 -0.9265 -2.7347 -0.3370
  115MOL   H21627804   4.985   3.021   4.499 -2.2443  0.8969 -0.6266
  115MOL   H21727805   5.003   2.859   4.437 -1.5504 -0.0624 -1.2860
  115MOL   C21827806   4.505   2.828   4.591  0.0967 -0.2351  0.2379
  115MOL   C21927807   4.582   2.696   4.587 -0.4161 -0.6007 -0.6290
  115MOL   C22027808   4.542   2.620   4.717 -1.2964 -0.1137  0.3359
  115MOL   O22127809   4.464   2.532   4.717 -0.3518  0.2509 -0.2324
  115MOL   O22227810   4.602   2.663   4.823 -0.6229 -0.4712 -0.2019
  115MOL   C22327811   4.569   2.618   4.955 -0.0267  0.6032 -0.3372
  115MOL   H22427812   4.505   2.858   4.696 -1.5616 -0.5822  0.3446
  115MOL   H22527813   4.402   2.811   4.559  0.5949  1.7731 -2.6621
  115MOL   H22627814   4.689   2.717   4.594 -0.2924 -1.0985 -1.0648
  115MOL   H22727815   4.605   2.518   4.978  1.0476  0.8633 -0.8861
  115MOL   H22827816   4.463   2.610   4.980  0.1198 -0.2268  0.0420
  115MOL   H22927817   4.609   2.691   5.026  0.0034  1.2823 -1.0494
  115MOL   C23027818   4.555   2.606   4.458  0.3258 -0.9703  0.7437
  115MOL   C23127819   4.616   2.659   4.329  0.3845 -0.3492 -0.3216
  115MOL   C23227820   4.550   2.586   4.208  0.1200 -0.2394 -0.0362
  115MOL   O23327821   4.505   2.652   4.119 -0.1355  0.2471  0.7229
  115MOL   O23427822   4.560   2.454   4.209 -0.0079 -1.1075 -0.1882
  115MOL   C23527823   4.521   2.386   4.091 -0.7375 -0.5322  0.2325
  115MOL   H23627824   4.608   2.514   4.482 -0.9579 -1.6411  1.0544
  115MOL   H23727825   4.447   2.591   4.452  0.4868 -1.5087 -1.3998
  115MOL   H23827826   4.723   2.648   4.340  0.3092  0.5367  1.3985
  115MOL   H23927827   4.560   2.284   4.092 -2.7172 -1.3155 -0.7619
  115MOL   H24027828   4.541   2.436   3.996  0.3166 -0.8665  0.2724
  115MOL   H24127829   4.412   2.389   4.086 -0.6824 -0.3825 -0.9587
  115MOL   H24227830   4.588   2.763   4.312 -4.0288 -1.6266 -1.5302
  116MOL     C127831   7.851   6.842   0.979 -0.2536  0.1624 -0.4243
  116MOL     C227832   7.788   6.967   0.909  0.5367 -0.1195  0.5623
  116MOL     C327833   7.633   6.954   0.895  0.2811  0.5886  0.3787
  116MOL     O427834   7.557   6.920   0.991  0.3395  0.6020  0.0845
  116MOL     O527835   7.586   6.981   0.763 -0.5439  1.0807  0.1290
  116MOL     C627836   7.438   6.982   0.743  0.2175 -0.1206 -0.7040
  116MOL     H727837   7.785   6.794   1.051 -1.9699  0.9388 -1.4504
  116MOL     H827838   0.004   6.878   1.036 -1.2017 -0.9557  1.7906
  116MOL     H927839   7.820   6.962   0.805 -1.9454  0.4795 -0.2623
  116MOL    H1027840   7.417   6.881   0.707 -1.0590 -1.3637  3.2272
  116MOL    H1127841   7.400   7.055   0.672 -0.2103 -0.6899 -1.0590
  116MOL    H1227842   7.379   7.001   0.833 -2.0526 -0.5215 -2.0709
  116MOL    H1327843   7.888   6.772   0.904 -0.4521 -1.4417  0.9447
  116MOL    C1427844   7.834   7.107   0.961 -0.2920 -0.3073 -0.2629
  116MOL    C1527845   7.777   7.230   0.889 -0.4979 -0.4598 -0.3690
  116MOL    C1627846   7.632   7.265   0.922 -0.8015 -0.0071  0.2657
  116MOL    O1727847   7.564   7.307   0.832 -0.1378 -1.0022 -0.2640
  116MOL    O1827848   7.599   7.246   1.045 -0.4351 -0.1579  0.5772
  116MOL    C1927849   7.473   7.260   1.092  0.1798 -0.3816  0.1085
  116MOL    H2027850   7.825   7.108   1.070 -1.8534  3.8002 -0.3303
  116MOL    H2127851   0.010   7.106   0.957 -0.3707  0.1797 -3.7615
  116MOL    H2227852   7.773   7.209   0.782 -1.5541  2.9787 -1.0621
  116MOL    H2327853   7.419   7.166   1.095  0.5310 -0.6793 -2.1556
  116MOL    H2427854   7.413   7.327   1.030 -0.7297 -0.4747  0.8899
  116MOL    H2527855   7.488   7.302   1.192 -0.2521  1.7349 -0.6786
  116MOL    C2627856   7.866   7.353   0.920  0.7697  0.1574 -0.5506
  116MOL    C2727857   0.074   7.337   0.860  0.0809  0.6991  0.4272
  116MOL    C2827858   0.087   7.266   0.721  0.4078 -0.3388  0.8863
  116MOL    O2927859   0.158   7.170   0.702 -0.3018  0.7674 -0.0579
  116MOL    O3027860   0.013   7.327   0.628  0.0573  0.1140  0.6372
  116MOL    C3127861   0.004   7.279   0.496  0.3045  0.1017  0.1572
  116MOL    H3227862   7.829   7.437   0.860 -2.1508  0.7779  2.0068
  116MOL    H3327863   7.860   7.382   1.025 -1.3707  0.9743 -0.8603
  116MOL    H3427864   0.132   7.278   0.930  0.7998  2.1709  1.0987
  116MOL    H3527865   0.010   7.171   0.488  2.4514  0.1541  0.7891
  116MOL    H3627866   0.090   7.315   0.440 -0.8058 -0.6179 -2.1081
  116MOL    H3727867   7.846   7.308   0.441  1.5244  1.2687 -1.2942
  116MOL    C3827868   0.151   7.468   0.862 -0.1995 -0.4512  0.3178
  116MOL    C3927869   0.301   7.456   0.840 -0.0426 -1.0725 -0.6013
  116MOL    C4027870   0.347   7.566   0.750  1.2006 -0.3055  0.3975
  116MOL    O4127871   0.383   7.535   0.633  0.4050  0.8064  0.1181
  116MOL    O4227872   0.346   7.689   0.805 -0.5779  0.0157 -0.0379
  116MOL    C4327873   0.392   7.806   0.738 -0.1330  0.0373  0.1162
  116MOL    H4427874   0.105   7.521   0.778  3.5107  0.1225 -1.4658
  116MOL    H4527875   0.122   7.523   0.951  2.7051 -2.1945  2.4250
  116MOL    H4627876   0.323   7.365   0.783 -0.9761 -1.5523 -0.2012
  116MOL    H4727877   0.326   7.839   0.658  0.3794 -0.2930 -0.4465
  116MOL    H4827878   0.493   7.796   0.698  0.3636 -0.0692  1.3623
  116MOL    H4927879   0.398   7.897   0.799 -1.3783  0.0934  0.1717
  116MOL    C5027880   0.371   7.448   0.981 -0.0626 -0.1623  0.2891
  116MOL    C5127881   0.512   7.372   0.983  0.2550 -0.5461  0.6792
  116MOL    C5227882   0.522   7.231   0.922  0.2481  0.2000 -0.6068
  116MOL    O5327883   0.606   7.208   0.832 -0.0423 -0.0864 -0.2490
  116MOL    O5427884   0.422   7.148   0.981  0.2085 -0.1141  0.0097
  116MOL    C5527885   0.427   7.012   0.956  0.2734  0.0083  0.5849
  116MOL    H5627886   0.379   7.540   1.038 -0.8456 -0.9839  1.7577
  116MOL    H5727887   0.315   7.391   1.055  0.4593 -0.0728  0.7588
  116MOL    H5827888   0.522   7.359   1.091 -0.8968  1.0266  0.9973
  116MOL    H5927889   0.390   6.982   0.858 -1.7544 -0.6807  1.5224
  116MOL    H6027890   0.366   6.960   1.030 -0.9935 -1.0299 -1.1615
  116MOL    H6127891   0.530   6.982   0.973  0.2763 -0.1347  0.3063
  116MOL    C6227892   0.635   7.455   0.951  0.6588 -0.1583  0.8918
  116MOL    C6327893   0.650   7.596   1.013 -0.7039 -0.1183 -0.1980
  116MOL    C6427894   0.673   7.596   1.167 -0.3702 -0.1811  0.4286
  116MOL    O6527895   0.578   7.617   1.241 -0.2787  0.0389 -0.4535
  116MOL    O6627896   0.792   7.550   1.203 -0.1847  0.2553  0.5748
  116MOL    C6727897   0.828   7.551   1.342  0.3369  0.2036  0.2629
  116MOL    H6827898   0.721   7.396   0.981  1.4935  1.0620  0.9437
  116MOL    H6927899   0.646   7.451   0.843 -2.5650  0.7366  0.4714
  116MOL    H7027900   0.559   7.653   0.990  0.4978  1.5645 -0.8728
  116MOL    H7127901   0.838   7.447   1.374  1.1825 -0.5414 -2.3473
  116MOL    H7227902   0.772   7.618   1.406 -1.6518 -1.3798  0.2463
  116MOL    H7327903   0.927   7.595   1.337  1.3646 -2.2036 -1.4206
  116MOL    C7427904   0.765   7.672   0.938 -0.0537 -0.4955 -0.3566
  116MOL    C7527905   0.810   7.814   0.990  0.3356  0.2932  0.3912
  116MOL    C7627906   0.939   7.857   0.918  0.0226  0.7606 -0.1584
  116MOL    O7727907   1.037   7.865   0.991 -0.2593  0.8135  0.4625
  116MOL    O7827908   0.927   7.868   0.782  0.4219  0.5261 -0.3655
  116MOL    C7927909   1.041   7.917   0.715 -0.3456 -0.3425 -0.6150
  116MOL    H8027910   0.855   7.612   0.940  1.0754  1.1869  0.2989
  116MOL    H8127911   0.732   7.683   0.834  0.6495 -0.1695 -0.5477
  116MOL    H8227912   0.832   7.811   1.097 -0.4704  1.1113  0.5935
  116MOL    H8327913   1.050   7.910   0.607  3.4030 -1.1060 -0.3157
  116MOL    H8427914   1.127   7.865   0.757 -0.3429 -2.0010 -2.6323
  116MOL    H8527915   1.052   0.088   0.748  0.5123 -0.7530  0.4344
  116MOL    C8627916   0.701   7.920   0.967  0.6050 -0.3933 -0.9990
  116MOL    C8727917   0.714   0.133   1.030  0.3803  0.3320  0.0883
  116MOL    C8827918   0.821   0.220   0.962 -0.0955  0.1545  0.9631
  116MOL    O8927919   0.816   0.266   0.844 -0.7418  0.4710 -0.1472
  116MOL    O9027920   0.929   0.226   1.041 -0.2272  0.2002  0.0937
  116MOL    C9127921   1.048   0.280   0.993  0.2816  0.6803 -0.2662
  116MOL    H9227922   0.682   7.926   0.860 -2.3878 -1.2749 -0.5577
  116MOL    H9327923   0.611   7.874   1.007  0.4594  0.4372 -0.3577
  116MOL    H9427924   0.737   0.125   1.137 -1.2845 -0.5189  0.4051
  116MOL    H9527925   1.130   0.232   1.047  0.8041 -1.7022 -3.0901
  116MOL    H9627926   1.044   0.384   1.025  1.7876  1.0113 -1.0965
  116MOL    H9727927   1.077   0.270   0.888  3.3192 -1.0673  0.6815
  116MOL    C9827928   0.577   0.206   1.020 -0.2043  0.1372  0.1267
  116MOL    C9927929   0.493   0.192   1.155 -0.0494 -0.2964 -0.0896
  116MOL   C10027930   0.555   0.263   1.273 -0.1301  1.2979  1.3211
  116MOL   O10127931   0.647   0.341   1.256 -0.1896  0.0805  0.6947
  116MOL   O10227932   0.505   0.222   1.383 -0.2232  0.0627  0.4212
  116MOL   C10327933   0.540   0.266   1.508  0.1428  0.6777  0.4961
  116MOL   H10427934   0.593   0.310   0.989 -1.3365 -0.4311 -2.4290
  116MOL   H10527935   0.515   0.161   0.944  0.9976 -1.4291  0.0641
  116MOL   H10627936   0.502   0.085   1.176  0.4939 -0.1247  0.5488
  116MOL   H10727937   0.648   0.279   1.511  0.6027 -1.6361 -2.8714
  116MOL   H10827938   0.503   0.197   1.584 -2.5829 -1.1129 -2.3499
  116MOL   H10927939   0.492   0.357   1.543  0.2366  0.2493  1.7512
  116MOL   C11027940   0.337   0.211   1.137 -0.1107  0.5319  0.0616
  116MOL   C11127941   0.277   0.354   1.140  0.4528 -0.3010 -0.3637
  116MOL   C11227942   0.289   0.437   1.008 -0.2867  0.4255  0.1084
  116MOL   O11327943   0.309   0.393   0.900  0.1997 -0.7856  0.3484
  116MOL   O11427944   0.266   0.565   1.033 -0.5527  0.0029 -0.3414
  116MOL   C11527945   0.289   0.666   0.931 -0.1444  0.9082  1.0935
  116MOL   H11627946   0.314   0.162   1.042  0.0314 -1.2811  0.9401
  116MOL   H11727947   0.280   0.157   1.213  0.1776  0.0108 -0.0896
  116MOL   H11827948   0.332   0.410   1.216  0.5013  0.9076 -1.2847
  116MOL   H11927949   0.383   0.660   0.877 -1.1634 -1.6079 -0.5445
  116MOL   H12027950   0.296   0.751   0.998 -1.7253  0.6259  1.6399
  116MOL   H12127951   0.201   0.673   0.866  1.3574 -0.3949 -1.1678
  116MOL   C12227952   0.124   0.352   1.173 -0.1143 -0.0112 -0.5143
  116MOL   C12327953   0.089   0.342   1.321  0.1841  0.3436  0.4519
  116MOL   C12427954   0.116   0.475   1.389  0.3041  0.2373 -0.6365
  116MOL   O12527955   0.194   0.487   1.481 -0.1129  0.1694 -0.0475
  116MOL   O12627956   0.028   0.571   1.355  0.1291 -0.4995 -0.0255
  116MOL   C12727957   0.045   0.704   1.402 -0.4679 -0.8103  0.4180
  116MOL   H12827958   0.070   0.436   1.129 -1.8800 -0.3378  0.9840
  116MOL   H12927959   0.088   0.261   1.126  0.0636 -0.7492  0.7669
  116MOL   H13027960   0.150   0.268   1.372 -1.2714 -2.4206 -1.6743
  116MOL   H13127961   0.069   0.716   1.508  2.0409 -0.3400 -0.1572
  116MOL   H13227962   7.891   0.765   1.380  0.2668  0.1285  0.0957
  116MOL   H13327963   0.122   0.739   1.333  0.1652  1.5714  2.2792
  116MOL   C13427964   7.878   0.285   1.334 -0.5904  0.0199  0.3807
  116MOL   C13527965   7.841   0.196   1.455  0.0215  0.1629 -0.1032
  116MOL   C13627966   7.840   0.277   1.583 -1.2391 -0.8468 -0.5864
  116MOL   O13727967   7.914   0.243   1.672 -0.0384 -0.2237 -0.4861
  116MOL   O13827968   7.745   0.370   1.590 -0.4851  0.0172  0.8656
  116MOL   C13927969   7.725   0.432   1.711  0.4557 -0.7056  0.3273
  116MOL   H14027970   7.803   0.363   1.332 -2.0889 -1.4100  0.2428
  116MOL   H14127971   7.855   0.220   1.250 -0.9109  0.5303  0.0693
  116MOL   H14227972   7.912   0.114   1.470  1.2560  1.5022  1.5212
  116MOL   H14327973   7.670   0.525   1.697 -0.6371 -1.3170  0.4830
  116MOL   H14427974   7.820   0.460   1.757  2.2797 -2.0298 -2.4737
  116MOL   H14527975   7.675   0.365   1.780  1.1972 -2.2392 -0.6022
  116MOL   C14627976   7.696   0.130   1.444  0.2515  0.2606 -0.9663
  116MOL   C14727977   7.648   0.056   1.572 -0.0406 -0.0041  0.3528
  116MOL   C14827978   7.489   0.049   1.578  0.0848  0.2682  0.2880
  116MOL   O14927979   7.427   0.102   1.673  0.0124  1.0764  0.3630
  116MOL   O15027980   7.441   7.922   1.468 -0.2761  0.2976  0.4966
  116MOL   C15127981   7.299   7.919   1.454 -0.4192  0.3931  0.2469
  116MOL   H15227982   7.628   0.213   1.424 -1.1999 -1.1286 -1.8705
  116MOL   H15327983   7.689   0.056   1.364  1.4368  1.0246 -1.7889
  116MOL   H15427984   7.691   0.106   1.659  0.4784  3.6469 -1.9191
  116MOL   H15527985   7.265   7.854   1.373  0.4662 -2.2303  1.9243
  116MOL   H15627986   7.247   0.080   1.435 -0.6291  0.0061 -1.2123
  116MOL   H15727987   7.255   7.878   1.545 -0.5245 -2.4221 -1.0303
  116MOL   C15827988   7.705   7.841   1.576 -0.1461  0.1718 -0.1519
  116MOL   C15927989   7.754   7.803   1.725 -0.6999  0.5492 -0.4752
  116MOL   C16027990   7.635   7.744   1.810 -0.1562 -0.4944 -0.3105
  116MOL   O16127991   7.616   7.625   1.831 -0.1313 -0.0085 -0.3788
  116MOL   O16227992   7.549   7.840   1.850  0.2848  0.3278 -0.0820
  116MOL   C16327993   7.431   7.803   1.921  0.0354  0.8385  0.1608
  116MOL   H16427994   7.629   7.767   1.549 -0.8241 -0.0217  2.1545
  116MOL   H16527995   7.796   7.841   1.516 -0.4118 -1.5787 -0.5794
  116MOL   H16627996   7.791   7.890   1.779 -0.5029  0.2696 -0.1629
  116MOL   H16727997   7.377   7.887   1.965  1.4747  0.5547  2.5615
  116MOL   H16827998   7.452   7.736   2.004  1.2429 -0.4315 -1.1410
  116MOL   H16927999   7.364   7.754   1.850 -0.7335 -0.0133  1.4460
  116MOL   C17028000   7.871   7.707   1.718 -0.1264  0.5898  0.0536
  116MOL   C17128001   0.077   7.767   1.692 -0.4117  1.0330 -0.5046
  116MOL   C17228002   0.120   7.859   1.811  0.1107 -0.5863 -0.2974
  116MOL   O17328003   0.089   7.823   1.925  0.5179  0.3326  0.6397
  116MOL   O17428004   0.193   0.038   1.777  0.2468  0.2862 -0.1538
  116MOL   C17528005   0.245   0.132   1.880 -0.2056 -0.0283 -0.1489
  116MOL   H17628006   7.878   7.638   1.802  2.3637 -0.7545 -1.1826
  116MOL   H17728007   7.845   7.641   1.635 -0.6477 -0.1390  0.7868
  116MOL   H17828008   0.067   7.827   1.601  2.5065  2.0737 -0.2075
  116MOL   H17928009   0.249   0.077   1.974  0.5760  2.3435  1.2436
  116MOL   H18028010   0.174   0.215   1.885 -0.0046  0.0783  1.0792
  116MOL   H18128011   0.344   0.169   1.853  0.8691 -2.2644  0.5780
  116MOL   C18228012   0.185   7.666   1.648 -0.2832  0.5504 -0.1735
  116MOL   C18328013   0.218   7.660   1.499 -0.2927 -0.4674 -0.3605
  116MOL   C18428014   0.328   7.762   1.464 -0.7762  0.8800 -0.0100
  116MOL   O18528015   0.316   7.842   1.372 -0.1853  0.0212 -1.0024
  116MOL   O18628016   0.442   7.729   1.530  0.7159 -0.4133  0.1012
  116MOL   C18728017   0.560   7.804   1.497 -0.0293 -0.3156  0.5342
  116MOL   H18828018   0.275   7.695   1.702 -0.6801  1.6107 -0.0815
  116MOL   H18928019   0.153   7.567   1.683 -0.6874  0.6258 -0.3258
  116MOL   H19028020   0.124   7.689   1.452  0.5287 -0.6446 -2.1397
  116MOL   H19128021   0.588   7.802   1.392  2.5179  1.2909  1.1238
  116MOL   H19228022   0.639   7.760   1.559 -0.2579 -0.1273  0.9648
  116MOL   H19328023   0.557   7.911   1.520 -0.6231 -0.1208 -0.4212
  116MOL   C19428024   0.261   7.526   1.448  0.1544  0.3372 -0.3406
  116MOL   C19528025   0.153   7.413   1.435 -0.4265 -0.1450 -0.0211
  116MOL   C19628026   0.061   7.455   1.326 -0.2732 -0.6011  0.2253
  116MOL   O19728027   0.088   7.435   1.205  0.1621 -0.0787 -0.0737
  116MOL   O19828028   7.878   7.495   1.370  0.1911  0.2796  0.0812
  116MOL   C19928029   7.768   7.526   1.288 -0.1925  1.0078 -0.5508
  116MOL   H20028030   0.302   7.529   1.348 -0.0791 -0.3249 -0.4587
  116MOL   H20128031   0.333   7.498   1.525  0.6066 -0.3383 -1.0063
  116MOL   H20228032   0.101   7.403   1.530  0.1885 -2.6898  0.0793
  116MOL   H20328033   7.801   7.580   1.200  3.7426 -1.6706 -0.8700
  116MOL   H20428034   7.716   7.596   1.353  1.9478 -1.0681  3.6385
  116MOL   H20528035   7.706   7.438   1.270  2.6788 -1.3066  0.4482
  116MOL   C20628036   0.227   7.278   1.407  0.0055 -0.4830 -0.2734
  116MOL   C20728037   0.130   7.166   1.370 -0.3779  0.4199  0.0598
  116MOL   C20828038   0.199   7.039   1.310  0.1776 -0.9112  0.8310
  116MOL   O20928039   0.180   7.012   1.193  0.0852  0.2188 -0.1518
  116MOL   O21028040   0.294   6.982   1.390 -0.5816 -1.1009  0.3359
  116MOL   C21128041   0.368   6.866   1.333 -0.2587  0.2996 -0.0925
  116MOL   H21228042   0.302   7.289   1.329 -0.2100 -1.8328 -0.6883
  116MOL   H21328043   0.275   7.258   1.503 -0.2898  0.6910  0.1289
  116MOL   H21428044   0.060   7.196   1.292 -2.6598 -0.7716  1.6000
  116MOL   H21528045   0.387   6.789   1.408  1.5157  0.9204  0.1194
  116MOL   H21628046   0.463   6.895   1.289  0.3364  1.0000  1.5795
  116MOL   H21728047   0.310   6.813   1.258  0.3381  1.6799 -1.5443
  116MOL   C21828048   0.042   7.124   1.496  0.5523  0.6667  0.3810
  116MOL   C21928049   7.864   7.024   1.473  0.0278  0.2585 -0.2049
  116MOL   C22028050   7.810   6.991   1.609  0.1518 -0.0769 -0.4144
  116MOL   O22128051   7.796   6.877   1.652  0.7876 -0.0066 -0.0302
  116MOL   O22228052   7.762   7.093   1.682 -0.3786 -0.4417 -0.4092
  116MOL   C22328053   7.711   7.060   1.805  0.3329 -0.3665  0.1419
  116MOL   H22428054   0.115   7.088   1.568 -1.3838  0.9813  2.5851
  116MOL   H22528055   7.926   7.216   1.529  0.1956  0.3779  0.6741
  116MOL   H22628056   7.919   6.933   1.448  0.5322  1.0110 -1.9085
  116MOL   H22728057   7.628   6.990   1.797 -2.1753  2.3972  1.1307
  116MOL   H22828058   7.662   7.138   1.863 -0.7644 -1.2527  0.4383
  116MOL   H22928059   7.794   7.017   1.862  0.2338 -0.3354  0.3085
  116MOL   C23028060   7.749   7.071   1.388 -0.4845  0.2574 -0.0089
  116MOL   C23128061   7.694   6.954   1.301 -0.1970 -0.2728 -0.8504
  116MOL   C23228062   7.586   6.865   1.367  0.8576 -0.3354  0.4433
  116MOL   O23328063   7.515   6.911   1.465 -0.0392  0.2510  0.3868
  116MOL   O23428064   7.561   6.754   1.311 -0.1753  0.0653  0.2245
  116MOL   C23528065   7.451   6.682   1.355 -0.0886 -0.2618 -0.1026
  116MOL   H23628066   7.667   7.114   1.445 -1.6776  0.0430 -1.5443
  116MOL   H23728067   7.775   7.154   1.323  0.3206  0.5490  0.6746
  116MOL   H23828068   7.777   6.892   1.269  0.6634  0.7319 -0.5916
  116MOL   H23928069   7.357   6.736   1.348 -0.0153 -0.1292 -0.0573
  116MOL   H24028070   7.460   6.635   1.453 -0.9329  2.3033  1.2271
  116MOL   H24128071   7.442   6.594   1.291  1.7154 -1.2014  0.8723
  116MOL   H24228072   7.654   6.997   1.209  0.1357 -0.9366 -1.3070
  117MOL     C128073   1.787   3.880   1.511  0.1445 -0.6696  0.7869
  117MOL     C228074   1.715   3.805   1.617  0.2008 -0.2705  0.1853
  117MOL     C328075   1.585   3.877   1.647  0.0633  0.0472  0.0195
  117MOL     O428076   1.572   3.920   1.760  0.1100 -0.4047 -0.1784
  117MOL     O528077   1.506   3.895   1.546 -0.6277  0.0441  0.2861
  117MOL     C628078   1.379   3.951   1.564  0.7919  0.0851  0.1930
  117MOL     H728079   1.781   3.988   1.518  0.4954 -0.5664 -0.3807
  117MOL     H828080   1.734   3.856   1.419  0.2233 -1.3342  0.9088
  117MOL     H928081   1.786   3.812   1.699  1.5281 -1.3466 -0.8584
  117MOL    H1028082   1.332   3.981   1.470 -1.4975 -3.6619  0.0490
  117MOL    H1128083   1.385   4.029   1.639 -1.3907  1.2517 -0.8055
  117MOL    H1228084   1.312   3.879   1.611  1.3143 -1.8175 -1.8519
  117MOL    H1328085   1.889   3.846   1.488  0.2641  0.2726 -0.1167
  117MOL    C1428086   1.693   3.659   1.579 -0.2796  1.2235  0.4101
  117MOL    C1528087   1.661   3.549   1.687 -0.2926 -0.3666  0.8666
  117MOL    C1628088   1.785   3.516   1.769  0.4149  0.4557 -0.3499
  117MOL    O1728089   1.880   3.591   1.786  0.7230 -0.1563  0.5448
  117MOL    O1828090   1.789   3.386   1.812  0.0370 -0.0788 -0.2237
  117MOL    C1928091   1.909   3.346   1.882 -0.1936 -0.0930  0.0193
  117MOL    H2028092   1.612   3.660   1.507  0.1083  1.2471 -0.0224
  117MOL    H2128093   1.758   3.632   1.496 -2.4601  1.7818 -1.5088
  117MOL    H2228094   1.641   3.457   1.632  0.6193 -0.0564  0.0059
  117MOL    H2328095   1.926   3.402   1.975 -1.3767 -0.8512  0.7111
  117MOL    H2428096   1.995   3.340   1.816  0.3793  1.6382  0.5680
  117MOL    H2528097   1.906   3.241   1.912  0.0570  0.0113  0.4075
  117MOL    C2628098   1.529   3.584   1.772  0.2927 -0.4641  0.2261
  117MOL    C2728099   1.402   3.549   1.681  0.0763 -0.5411 -0.5299
  117MOL    C2828100   1.388   3.396   1.655 -0.2738 -0.3138  0.6134
  117MOL    O2928101   1.392   3.352   1.540 -0.4728  0.2223 -0.2100
  117MOL    O3028102   1.351   3.325   1.755 -0.3930  0.1777 -0.0806
  117MOL    C3128103   1.339   3.185   1.740 -0.4728 -0.7261  0.4209
  117MOL    H3228104   1.531   3.519   1.860  1.7205  1.0227  1.3188
  117MOL    H3328105   1.527   3.686   1.811  0.6409  0.7576 -2.8328
  117MOL    H3428106   1.404   3.608   1.590 -0.8590  1.9038  0.9931
  117MOL    H3528107   1.235   3.156   1.753 -0.4466 -1.3650 -0.7392
  117MOL    H3628108   1.403   3.129   1.808  0.0074  0.9385  1.3635
  117MOL    H3728109   1.363   3.146   1.641  1.1082 -0.4556  0.6865
  117MOL    C3828110   1.275   3.597   1.747  0.0726 -0.0279  0.0123
  117MOL    C3928111   1.140   3.590   1.660 -0.5267  0.1326  0.9797
  117MOL    C4028112   1.012   3.610   1.740  0.3946  0.4419  0.2188
  117MOL    O4128113   0.930   3.516   1.742 -0.5228  0.1274  0.0150
  117MOL    O4228114   1.002   3.739   1.791 -0.3432  0.8761 -1.0275
  117MOL    C4328115   0.881   3.782   1.843 -1.0322  0.0031 -0.0123
  117MOL    H4428116   1.256   3.541   1.839 -1.6787 -0.1719 -0.4258
  117MOL    H4528117   1.283   3.698   1.787 -1.9921  0.1192  0.1260
  117MOL    H4628118   1.123   3.489   1.625 -0.9390  0.1997  0.9781
  117MOL    H4728119   0.902   3.885   1.870  0.5867 -0.1684 -0.5175
  117MOL    H4828120   0.860   3.730   1.936 -1.2820  1.6535  0.8705
  117MOL    H4928121   0.800   3.781   1.771  1.6303  0.7611 -3.1323
  117MOL    C5028122   1.140   3.678   1.530 -0.4328  0.8992  1.2335
  117MOL    C5128123   1.027   3.638   1.424 -0.5357  0.3655  0.2809
  117MOL    C5228124   0.895   3.715   1.446 -0.3878  0.0463  0.2848
  117MOL    O5328125   0.898   3.834   1.492  0.1046  0.2937 -0.0955
  117MOL    O5428126   0.787   3.639   1.404  0.9771  0.6459 -0.3257
  117MOL    C5528127   0.651   3.688   1.416 -0.9399 -0.2654  0.5236
  117MOL    H5628128   1.141   3.786   1.539  0.7740  0.9993  0.1423
  117MOL    H5728129   1.235   3.657   1.480 -1.4999  0.1525 -0.5567
  117MOL    H5828130   0.998   3.536   1.452 -1.3479  0.5572  0.1339
  117MOL    H5928131   0.580   3.615   1.377  2.3813 -2.4355 -1.6940
  117MOL    H6028132   0.649   3.781   1.358  2.4061  0.1232  0.9475
  117MOL    H6128133   0.612   3.715   1.514 -1.0793  1.9128 -0.0975
  117MOL    C6228134   1.078   3.637   1.279 -0.1069  0.7890 -0.4092
  117MOL    C6328135   1.173   3.519   1.243 -0.2202 -0.8003 -0.6015
  117MOL    C6428136   1.108   3.379   1.263 -0.6960  0.2843 -0.2038
  117MOL    O6528137   0.999   3.345   1.216 -0.1323  0.0322  0.1176
  117MOL    O6628138   1.184   3.300   1.338  0.4169 -0.7780  0.0168
  117MOL    C6728139   1.133   3.173   1.368 -0.2422  0.0956  0.3512
  117MOL    H6828140   0.989   3.638   1.215  0.2556 -2.3827 -1.0318
  117MOL    H6928141   1.114   3.738   1.259  1.2451  0.1467 -1.2679
  117MOL    H7028142   1.253   3.525   1.317 -2.1499 -1.4515  1.6207
  117MOL    H7128143   1.128   3.121   1.272  0.9925 -1.5124  1.1296
  117MOL    H7228144   1.034   3.181   1.412  0.6849  1.8169  2.1953
  117MOL    H7328145   1.206   3.129   1.436 -0.1158 -0.8239 -0.3596
  117MOL    C7428146   1.247   3.539   1.109  0.5211  0.3120 -0.4678
  117MOL    C7528147   1.398   3.571   1.127  0.3505 -0.5723  0.5832
  117MOL    C7628148   1.484   3.457   1.177 -0.3156  0.5541  0.2156
  117MOL    O7728149   1.459   3.338   1.148 -0.0040  0.7279 -0.0997
  117MOL    O7828150   1.585   3.491   1.256 -0.3929 -0.6448 -0.1584
  117MOL    C7928151   1.666   3.386   1.311 -0.1613 -0.1100 -0.0732
  117MOL    H8028152   1.251   3.445   1.053  0.5871 -0.7595  1.3214
  117MOL    H8128153   1.192   3.616   1.056  0.7868  1.7227  1.2658
  117MOL    H8228154   1.407   3.655   1.196  0.5639  1.6553 -2.1040
  117MOL    H8328155   1.596   3.327   1.370  0.6949 -0.5492  0.5036
  117MOL    H8428156   1.736   3.438   1.376  1.1272 -2.7347  0.6954
  117MOL    H8528157   1.720   3.335   1.231 -1.0794 -0.6313 -0.3624
  117MOL    C8628158   1.445   3.613   0.982  0.6455  0.3391  0.5019
  117MOL    C8728159   1.593   3.670   0.960  0.4635 -0.3273 -0.0391
  117MOL    C8828160   1.631   3.656   0.813 -0.1400 -0.1186 -0.0038
  117MOL    O8928161   1.668   3.545   0.766 -0.0830  0.2868 -0.1604
  117MOL    O9028162   1.597   3.767   0.742 -0.1319 -0.7216 -0.2113
  117MOL    C9128163   1.621   3.768   0.600 -0.0637 -0.0909  0.8496
  117MOL    H9228164   1.419   3.535   0.911  0.6715 -1.1904  2.1307
  117MOL    H9328165   1.383   3.695   0.946  0.6143 -0.2822 -0.9011
  117MOL    H9428166   1.655   3.591   1.004  0.0323  0.1718  1.5214
  117MOL    H9528167   1.572   3.687   0.546  1.5376  0.4478 -1.4985
  117MOL    H9628168   1.729   3.777   0.588 -0.0075 -0.8173  0.7805
  117MOL    H9728169   1.584   3.868   0.574  2.1459  0.8396  1.1373
  117MOL    C9828170   1.629   3.797   1.042  0.0962 -0.1233 -0.8591
  117MOL    C9928171   1.778   3.849   1.022 -0.0676 -0.1015  0.4050
  117MOL   C10028172   1.795   3.989   1.090 -0.3760  0.1641  0.0471
  117MOL   O10128173   1.761   4.006   1.207  0.0020 -0.1238 -0.3899
  117MOL   O10228174   1.862   4.075   1.020 -0.0389 -0.2521  0.3306
  117MOL   C10328175   1.841   4.215   1.043  0.4988  0.7825  0.4535
  117MOL   H10428176   1.563   3.877   1.009 -1.1117 -2.1410 -3.5067
  117MOL   H10528177   1.621   3.781   1.149  0.0989  0.2337 -0.8030
  117MOL   H10628178   1.796   3.857   0.914  0.4796 -1.2786  0.4087
  117MOL   H10728179   1.921   4.269   1.094  0.6450  1.6003 -0.6306
  117MOL   H10828180   1.748   4.233   1.097  0.9227  1.2042  1.0355
  117MOL   H10928181   1.823   4.254   0.943  1.7784 -1.9846 -0.9145
  117MOL   C11028182   1.874   3.742   1.083  0.4812 -0.4317 -0.3878
  117MOL   C11128183   2.026   3.741   1.044  0.6949 -1.0851 -1.0341
  117MOL   C11228184   2.051   3.761   0.890 -0.6016  0.8359  0.4279
  117MOL   O11328185   2.074   3.870   0.840 -0.0057  0.3386 -0.2602
  117MOL   O11428186   2.035   3.649   0.808  0.1035 -0.6530 -0.2363
  117MOL   C11528187   2.085   3.675   0.674 -0.6782  0.4085  0.1820
  117MOL   H11628188   1.849   3.723   1.187 -2.7176  1.6810 -0.6836
  117MOL   H11728189   1.854   3.647   1.033  0.8499 -0.0774 -1.2167
  117MOL   H11828190   2.064   3.643   1.071  1.1947 -0.1541  1.8279
  117MOL   H11928191   2.091   3.575   0.630  0.3873  1.3292 -1.8099
  117MOL   H12028192   2.188   3.706   0.690 -0.6923 -0.5106  2.2300
  117MOL   H12128193   2.031   3.742   0.607 -0.8725  0.9805  0.9032
  117MOL   C12228194   2.103   3.845   1.129 -0.4978  0.2697  0.7639
  117MOL   C12328195   2.250   3.827   1.157 -0.2858  0.4736 -0.7521
  117MOL   C12428196   2.341   3.881   1.051  0.2135  0.9932 -0.2668
  117MOL   O12528197   2.394   3.801   0.975  0.0927 -0.1782  0.4064
  117MOL   O12628198   2.361   4.014   1.047  0.6350  0.4597  0.2225
  117MOL   C12728199   2.466   4.075   0.968  0.1396  0.2686 -0.5589
  117MOL   H12828200   2.078   3.948   1.101  0.2877  0.9493  2.4927
  117MOL   H12928201   2.050   3.841   1.225  0.6016  3.0737  1.5637
  117MOL   H13028202   2.262   3.719   1.163  0.2785  0.5066 -1.3005
  117MOL   H13128203   2.435   4.179   0.951 -0.8192  0.0150 -0.4013
  117MOL   H13228204   2.470   4.033   0.867  1.1156  1.4852 -1.0438
  117MOL   H13328205   2.562   4.086   1.018 -0.7672  2.4943  0.7837
  117MOL   C13428206   2.276   3.885   1.303 -0.2713 -0.3059  0.0681
  117MOL   C13528207   2.423   3.873   1.347 -0.9145 -0.8350 -0.2170
  117MOL   C13628208   2.439   3.938   1.482  0.0474 -0.7797  0.5085
  117MOL   O13728209   2.489   4.047   1.499 -0.1197 -0.0574 -0.2730
  117MOL   O13828210   2.379   3.866   1.580  0.8677 -0.1536  0.2135
  117MOL   C13928211   2.378   3.912   1.707 -0.9139  0.3547 -0.1056
  117MOL   H14028212   2.243   3.989   1.304  2.7013  0.6962 -0.9288
  117MOL   H14128213   2.207   3.842   1.375 -2.6925  0.5418 -1.6921
  117MOL   H14228214   2.487   3.930   1.280 -1.0099  1.6708  1.7371
  117MOL   H14328215   2.474   3.959   1.731 -0.5705 -0.6774  0.5823
  117MOL   H14428216   2.354   3.832   1.776 -0.7644 -0.8401 -1.4085
  117MOL   H14528217   2.305   3.993   1.711 -0.3907  0.7341  4.4801
  117MOL   C14628218   2.477   3.729   1.346  0.2084 -0.4309  0.2625
  117MOL   C14728219   2.630   3.715   1.349  0.0959  0.4602 -0.2126
  117MOL   C14828220   2.706   3.713   1.484 -1.1642  0.1613  0.0998
  117MOL   O14928221   2.676   3.637   1.580 -0.4297 -0.3402 -0.2417
  117MOL   O15028222   2.807   3.797   1.479 -0.4135 -0.3150 -0.5829
  117MOL   C15128223   2.878   3.815   1.601 -0.0342 -0.1531  0.0888
  117MOL   H15228224   2.435   3.675   1.431 -2.5504 -0.2928 -0.9580
  117MOL   H15328225   2.451   3.673   1.256  1.0667 -1.0063  0.3600
  117MOL   H15428226   2.675   3.797   1.293  1.6443 -1.8776 -2.5007
  117MOL   H15528227   2.935   3.734   1.647  0.3638 -0.4648 -0.9484
  117MOL   H15628228   2.809   3.851   1.678  0.3203 -2.4025  1.5309
  117MOL   H15728229   2.953   3.893   1.601  0.3288 -0.5014 -0.0390
  117MOL   C15828230   2.681   3.591   1.266 -0.6399 -0.0507 -0.3434
  117MOL   C15928231   2.651   3.598   1.117  0.3822  0.4563  0.1369
  117MOL   C16028232   2.731   3.694   1.026 -0.6741 -0.5785  0.2666
  117MOL   O16128233   2.796   3.791   1.069 -0.2800 -0.2352 -0.1836
  117MOL   O16228234   2.716   3.663   0.888 -0.3537  0.3994  0.4585
  117MOL   C16328235   2.773   3.752   0.793  0.0595  0.7563  0.0318
  117MOL   H16428236   2.788   3.577   1.279 -0.5964 -0.8434 -1.4016
  117MOL   H16528237   2.637   3.505   1.315 -0.0065  0.9031  1.9438
  117MOL   H16628238   2.552   3.640   1.099 -1.2752 -3.2687  0.0486
  117MOL   H16728239   2.769   3.858   0.817  3.2037  0.8518  0.3126
  117MOL   H16828240   2.715   3.756   0.701  0.4122  1.1118 -0.1730
  117MOL   H16928241   2.872   3.719   0.761 -0.2425 -1.8485  1.5613
  117MOL   C17028242   2.635   3.457   1.054 -0.1991  0.5020 -0.4360
  117MOL   C17128243   2.756   3.357   1.081 -0.2749 -0.2543  0.3945
  117MOL   C17228244   2.730   3.213   1.056 -0.3293 -0.0082  0.5809
  117MOL   O17328245   2.655   3.189   0.963  0.0547  0.7391  0.6957
  117MOL   O17428246   2.792   3.131   1.129  0.0028  0.3129 -0.1329
  117MOL   C17528247   2.776   2.991   1.111  0.1042 -0.4954 -0.0928
  117MOL   H17628248   2.548   3.408   1.098  0.2875  0.1741  0.1744
  117MOL   H17728249   2.610   3.464   0.948 -0.4681 -0.5084 -0.4464
  117MOL   H17828250   2.775   3.363   1.189  1.5033 -0.4756  0.1009
  117MOL   H17928251   2.839   2.935   1.180 -2.0730 -1.1352  1.4292
  117MOL   H18028252   2.797   2.953   1.011  0.5731 -0.3466 -0.0507
  117MOL   H18128253   2.671   2.968   1.132 -0.6403  2.7978  0.0408
  117MOL   C18228254   2.891   3.413   1.009  0.0814 -0.2784  0.0333
  117MOL   C18328255   3.018   3.325   1.044 -0.0240 -0.4234  0.3314
  117MOL   C18428256   3.053   3.220   0.932  0.7996  0.3071  0.8614
  117MOL   O18528257   3.050   3.103   0.966  0.4439  0.2515 -0.3644
  117MOL   O18628258   3.080   3.269   0.811  0.0578 -0.3280 -0.9337
  117MOL   C18728259   3.099   3.189   0.694 -0.4719  0.1295  0.0670
  117MOL   H18828260   2.874   3.402   0.902  2.2623  1.2381 -0.5030
  117MOL   H18928261   2.899   3.521   1.025  2.8172 -0.3901 -0.3046
  117MOL   H19028262   2.988   3.269   1.133 -2.0327  0.9293  0.5247
  117MOL   H19128263   3.126   3.088   0.724  0.7964  0.6447  0.6900
  117MOL   H19228264   3.172   3.234   0.626 -1.8575  1.2580 -0.7271
  117MOL   H19328265   3.006   3.179   0.637 -1.1433  2.5838  0.6536
  117MOL   C19428266   3.143   3.411   1.082 -0.2318 -0.3845  0.2846
  117MOL   C19528267   3.219   3.491   0.977 -0.3512  0.1560  0.0055
  117MOL   C19628268   3.160   3.628   0.947 -0.3675  0.3100 -0.1201
  117MOL   O19728269   3.128   3.660   0.833 -0.0131  0.1094 -0.0454
  117MOL   O19828270   3.147   3.696   1.054  0.0163 -0.1844 -0.1087
  117MOL   C19928271   3.121   3.829   1.035 -0.1254 -0.7001  0.4525
  117MOL   H20028272   3.127   3.469   1.174  1.4507 -1.2472  1.1319
  117MOL   H20128273   3.206   3.329   1.116 -0.8909 -0.6591  0.8779
  117MOL   H20228274   3.213   3.439   0.881 -1.1619 -0.8068  0.5659
  117MOL   H20328275   3.034   3.847   0.971 -1.9763 -2.5995  2.3402
  117MOL   H20428276   3.207   3.881   0.994 -1.2326 -0.0372 -1.0587
  117MOL   H20528277   3.109   3.884   1.128 -0.5951 -0.1528  0.0674
  117MOL   C20628278   3.374   3.505   1.017 -0.0669  0.0548 -0.1551
  117MOL   C20728279   3.464   3.380   0.995 -0.5082 -0.4059  0.0246
  117MOL   C20828280   3.449   3.332   0.848 -0.5000  0.7349  0.4183
  117MOL   O20928281   3.395   3.230   0.819  0.1078  0.1201  0.3796
  117MOL   O21028282   3.483   3.433   0.756 -0.0007 -0.2455 -0.0199
  117MOL   C21128283   3.470   3.399   0.616 -0.0812 -0.2271  0.4464
  117MOL   H21228284   3.418   3.597   0.977  0.7083 -0.4454 -0.4576
  117MOL   H21328285   3.381   3.527   1.123  1.4344  0.2084 -0.2790
  117MOL   H21428286   3.420   3.302   1.057 -1.2462  0.8442  1.0946
  117MOL   H21528287   3.546   3.323   0.600 -1.4882 -1.5839  0.0695
  117MOL   H21628288   3.493   3.480   0.547 -0.0816 -1.2083 -0.7330
  117MOL   H21728289   3.377   3.355   0.580 -1.3149  0.3263  2.8285
  117MOL   C21828290   3.614   3.388   1.031  0.1274 -0.2535  0.0656
  117MOL   C21928291   3.657   3.426   1.170 -0.0226 -0.7125 -0.5606
  117MOL   C22028292   3.619   3.308   1.265 -0.0957 -0.5057 -0.5648
  117MOL   O22128293   3.505   3.285   1.298  0.7718 -0.2010  0.4766
  117MOL   O22228294   3.727   3.238   1.316  0.3940  0.0269  0.2461
  117MOL   C22328295   3.695   3.133   1.407 -0.1021 -0.1796 -0.5049
  117MOL   H22428296   3.669   3.308   0.981 -0.6225 -0.9864  0.3960
  117MOL   H22528297   3.648   3.475   0.974  0.4516  0.1443  0.8616
  117MOL   H22628298   3.609   3.521   1.194 -0.1708 -0.7765 -0.6046
  117MOL   H22728299   3.794   3.092   1.428 -0.3205  0.4412  1.8905
  117MOL   H22828300   3.639   3.046   1.375 -0.7809 -0.5158  1.5288
  117MOL   H22928301   3.638   3.170   1.492  0.7433 -1.3429  0.6008
  117MOL   C23028302   3.815   3.469   1.164  0.7652  0.0993 -0.1658
  117MOL   C23128303   3.845   3.608   1.120 -0.3044 -0.4342  0.5610
  117MOL   C23228304   3.984   3.622   1.059 -0.7603 -0.0409 -0.4496
  117MOL   O23328305   4.088   3.599   1.109 -0.0727  0.3177  0.2385
  117MOL   O23428306   3.977   3.664   0.932  0.2320 -0.0975 -0.1952
  117MOL   C23528307   4.102   3.680   0.862  0.2789  0.3235  0.4197
  117MOL   H23628308   3.847   3.464   1.268  0.0295 -1.2425  0.0137
  117MOL   H23728309   3.860   3.389   1.105  0.1343  0.6440 -1.4029
  117MOL   H23828310   3.848   3.675   1.206  1.3436  0.0869  0.0998
  117MOL   H23928311   4.157   3.586   0.855  4.1867  2.5578 -1.0700
  117MOL   H24028312   4.160   3.760   0.909 -0.5601  1.9059 -1.1719
  117MOL   H24128313   4.059   3.728   0.774 -2.4920 -0.9712  1.0141
  117MOL   H24228314   3.778   3.662   1.053  0.2646  0.5140  0.7540
  118MOL     C128315   5.837   1.813   7.730  0.1920  0.3872  0.7065
  118MOL     C228316   5.761   1.871   7.850  0.4316  0.5406  0.0592
  118MOL     C328317   5.795   1.805   0.052 -0.0288  0.3252  0.3713
  118MOL     O428318   5.852   1.697   0.056 -0.2500 -0.0015  0.2948
  118MOL     O528319   5.749   1.867   0.162 -0.1165  0.3356 -0.0433
  118MOL     C628320   5.805   1.825   0.286 -0.1599 -0.2974  0.0604
  118MOL     H728321   5.776   1.819   7.641  0.3720 -0.5713  0.5158
  118MOL     H828322   5.849   1.705   7.737 -1.1470  0.0976 -1.2163
  118MOL     H928323   5.658   1.835   7.840  1.0103 -1.2464  0.2608
  118MOL    H1028324   5.802   1.716   0.297  1.0736 -0.3849 -0.4131
  118MOL    H1128325   5.762   1.893   0.360  1.0870  2.2520 -1.4979
  118MOL    H1228326   5.908   1.860   0.282  0.4052 -1.9848 -0.8995
  118MOL    H1328327   5.943   1.839   7.719 -0.2500  1.5129 -1.0256
  118MOL    C1428328   5.753   2.023   7.853 -0.0324 -0.0786  1.0017
  118MOL    C1528329   5.688   2.108   7.741 -0.4314 -0.2957  0.5029
  118MOL    C1628330   5.537   2.091   7.741  0.1017 -0.0222  1.0622
  118MOL    O1728331   5.481   2.019   7.816 -0.2522  0.7874  0.6497
  118MOL    O1828332   5.473   2.139   7.627  0.1652 -0.1681  0.5277
  118MOL    C1928333   5.329   2.139   7.616 -0.0870  0.3816  0.1869
  118MOL    H2028334   5.710   2.065   0.011  0.8403  1.9031  0.5340
  118MOL    H2128335   5.855   2.061   7.859 -0.0583  0.2785 -0.5813
  118MOL    H2228336   5.721   2.077   7.641  0.4474  3.9989 -0.6521
  118MOL    H2328337   5.299   2.061   7.546  0.8583  2.4254 -2.5989
  118MOL    H2428338   5.296   2.232   7.569  3.0772  1.1126 -0.7540
  118MOL    H2528339   5.277   2.120   7.709  0.4322 -2.4379 -0.0662
  118MOL    C2628340   5.734   2.260   7.750 -0.1492 -0.2513  0.1598
  118MOL    C2728341   5.703   2.342   7.878  0.7378  0.0907  0.1506
  118MOL    C2828342   5.804   2.329   0.056 -0.3248  0.0648  0.4000
  118MOL    O2928343   5.914   2.273   0.043  0.5729 -0.1948  0.1290
  118MOL    O3028344   5.752   2.373   0.170  0.3470 -0.0149 -0.5754
  118MOL    C3128345   5.840   2.363   0.282  0.1395 -0.5506 -0.4847
  118MOL    H3228346   5.840   2.266   7.727 -0.2493 -0.3830 -0.3459
  118MOL    H3328347   5.688   2.319   7.671  0.4254 -1.0719 -0.7988
  118MOL    H3428348   5.610   2.294   7.909  0.1515 -0.1216 -1.8236
  118MOL    H3528349   5.814   2.267   0.327  1.3502  0.4908  2.5845
  118MOL    H3628350   5.824   2.444   0.353  0.9387  0.9553 -1.9953
  118MOL    H3728351   5.945   2.378   0.257  0.2290 -2.0872 -1.0862
  118MOL    C3828352   5.676   2.494   7.860  0.4474  0.8059 -0.1172
  118MOL    C3928353   5.798   2.580   7.810 -0.7953  0.0040 -0.2082
  118MOL    C4028354   5.797   2.591   7.660  0.4166  0.1706  0.2822
  118MOL    O4128355   5.736   2.680   7.599  1.2843 -0.1604  0.1509
  118MOL    O4228356   5.880   2.498   7.604  0.1513  0.0682  0.3408
  118MOL    C4328357   5.919   2.507   7.470 -0.0513  0.4578  0.5394
  118MOL    H4428358   5.593   2.505   7.790  1.2219  0.3126 -1.1222
  118MOL    H4528359   5.640   2.540   0.019 -1.4949  2.5786 -1.7319
  118MOL    H4628360   5.889   2.530   7.844 -0.8413 -0.4967 -0.8042
  118MOL    H4728361   6.015   2.458   7.460 -0.2034  0.5573 -1.5564
  118MOL    H4828362   5.944   2.611   7.452  0.9762  0.0583 -0.3843
  118MOL    H4928363   5.849   2.483   7.390  1.7643  0.6536 -1.1368
  118MOL    C5028364   5.803   2.719   7.873 -0.0411 -0.0766  0.2973
  118MOL    C5128365   5.860   2.718   0.080  0.1394 -0.2705  0.8282
  118MOL    C5228366   6.012   2.687   0.075 -0.2736 -0.1488 -0.2507
  118MOL    O5328367   6.050   2.576   0.103 -0.0542  0.0119 -0.1854
  118MOL    O5428368   6.094   2.789   0.051  0.1281 -0.8707  0.0467
  118MOL    C5528369   6.233   2.772   0.049  0.0573 -0.3557  0.0912
  118MOL    H5628370   5.847   2.795   7.807 -1.9837  0.2000 -0.7193
  118MOL    H5728371   5.702   2.758   7.878  0.0466  0.3410 -1.0616
  118MOL    H5828372   5.820   2.637   0.141  0.7683  0.5913  2.4031
  118MOL    H5928373   6.285   2.786   0.144  0.8323  1.9363 -0.6352
  118MOL    H6028374   6.269   2.840   7.904  0.6975 -0.5123  0.2531
  118MOL    H6128375   6.258   2.676   0.005  1.9592  1.5861 -3.2553
  118MOL    C6228376   5.822   2.853   0.141 -0.8129  0.3611 -0.2233
  118MOL    C6328377   5.675   2.875   0.187  0.0712  0.3051 -0.4599
  118MOL    C6428378   5.643   2.833   0.334  0.4620 -0.8526 -0.0752
  118MOL    O6528379   5.571   2.734   0.357 -0.3270  0.3255 -0.0655
  118MOL    O6628380   5.700   2.917   0.427 -0.0189 -0.1287  0.2200
  118MOL    C6728381   5.670   2.900   0.569 -0.0163  0.0698 -0.4393
  118MOL    H6828382   5.896   2.875   0.217 -0.5470  1.3728 -0.7700
  118MOL    H6928383   5.856   2.934   0.078  2.6764 -0.0733  1.0214
  118MOL    H7028384   5.607   2.814   0.128  0.2597 -0.1836 -0.1798
  118MOL    H7128385   5.692   2.799   0.603 -0.2019  0.1910  0.0444
  118MOL    H7228386   5.563   2.920   0.584 -0.4472  0.1927 -3.3780
  118MOL    H7328387   5.735   2.965   0.628  1.7355  0.8392 -3.1167
  118MOL    C7428388   5.624   3.022   0.169  0.0520 -0.2963 -0.5672
  118MOL    C7528389   5.610   3.086   0.022  0.5796 -0.5418  0.4492
  118MOL    C7628390   5.529   2.982   7.869  0.7035 -0.4750  0.3197
  118MOL    O7728391   5.445   2.911   7.919  0.1415 -0.2124 -0.0846
  118MOL    O7828392   5.561   2.987   7.734 -0.7340 -0.0089  0.1428
  118MOL    C7928393   5.497   2.891   7.652 -0.3997 -0.0882  0.6312
  118MOL    H8028394   5.525   3.031   0.212 -0.0952  0.1038 -0.9837
  118MOL    H8128395   5.692   3.078   0.232 -1.0339 -2.2759  2.4704
  118MOL    H8228396   5.707   3.090   7.906 -0.2726  0.4225 -1.2386
  118MOL    H8328397   5.521   2.922   7.550 -2.1283 -2.9096 -0.6999
  118MOL    H8428398   5.391   2.868   7.662 -0.4804  0.0749  0.1889
  118MOL    H8528399   5.542   2.801   7.693 -1.3657 -0.1408  1.5804
  118MOL    C8628400   5.545   3.224   0.026 -0.0569 -0.0900  0.4477
  118MOL    C8728401   5.528   3.309   7.838  0.1819 -0.3857  0.1120
  118MOL    C8828402   5.438   3.425   7.863 -0.2482 -0.1140  1.0829
  118MOL    O8928403   5.386   3.442   0.041 -1.0721 -0.5670  0.4058
  118MOL    O9028404   5.432   3.518   7.769  0.0010  0.2082 -0.1842
  118MOL    C9128405   5.365   3.633   7.797  0.6570 -0.7800  0.2767
  118MOL    H9228406   5.445   3.207   0.068  0.6217 -0.4841  1.9447
  118MOL    H9328407   5.594   3.284   0.103 -0.8827  0.0485  0.8782
  118MOL    H9428408   5.480   3.259   7.753 -0.4635 -0.4041  0.4815
  118MOL    H9528409   5.256   3.626   7.796  0.6874 -1.2800 -0.5948
  118MOL    H9628410   5.382   3.698   7.712  1.4433  0.8973  1.6836
  118MOL    H9728411   5.406   3.676   7.889  1.8842 -0.7464 -0.2750
  118MOL    C9828412   5.665   3.361   7.784  0.1236 -0.7118  0.5077
  118MOL    C9928413   5.696   3.300   7.641 -0.4800 -0.7080  0.4749
  118MOL   C10028414   5.609   3.366   7.541 -0.3884 -0.1445  0.3463
  118MOL   O10128415   5.642   3.469   7.484  0.0628 -0.1762  0.0897
  118MOL   O10228416   5.512   3.296   7.519  0.2240  0.1517  0.2454
  118MOL   C10328417   5.425   3.338   7.415 -0.3703 -0.8209 -0.2648
  118MOL   H10428418   5.673   3.469   7.792  0.0944 -0.5052 -1.8177
  118MOL   H10528419   5.744   3.321   7.848  0.2888 -1.1219  0.0619
  118MOL   H10628420   5.670   3.194   7.647 -0.3277 -0.6563  2.2091
  118MOL   H10728421   5.353   3.256   7.408 -0.8551 -0.2849 -1.8067
  118MOL   H10828422   5.474   3.356   7.319  0.1805 -1.7843 -0.1692
  118MOL   H10928423   5.372   3.429   7.443 -0.5434 -0.4158 -1.8463
  118MOL   C11028424   5.844   3.313   7.593  0.7567  0.2149 -0.2227
  118MOL   C11128425   5.930   3.209   7.657 -0.1278 -0.2489 -0.5819
  118MOL   C11228426   5.908   3.074   7.598  0.1572 -0.0951 -0.0627
  118MOL   O11328427   5.887   2.986   7.680 -0.3272 -0.6111  0.3268
  118MOL   O11428428   5.914   3.060   7.465  0.0659 -0.0490 -0.1850
  118MOL   C11528429   5.882   2.939   7.408  0.1196 -0.3102 -0.1409
  118MOL   H11628430   5.856   3.313   7.484 -1.6567 -0.6720 -0.5171
  118MOL   H11728431   5.878   3.409   7.632  0.3226  0.6131 -0.8029
  118MOL   H11828432   5.895   3.209   7.761  0.0808  4.9878 -0.3448
  118MOL   H11928433   5.830   2.949   7.313 -1.4850 -3.4026  0.3401
  118MOL   H12028434   5.809   2.882   7.465 -1.1351 -1.5222 -2.8451
  118MOL   H12128435   5.968   2.878   7.379  2.2957  2.8964 -0.6177
  118MOL   C12228436   6.084   3.241   7.657  0.0000 -0.9108  1.0040
  118MOL   C12328437   6.153   3.203   7.792  0.1906  0.3530 -0.2612
  118MOL   C12428438   6.301   3.168   7.775 -0.2918 -0.9243  0.0970
  118MOL   O12528439   6.383   3.254   7.746  0.3202  0.0862 -0.3176
  118MOL   O12628440   6.324   3.035   7.787  0.4624  0.2111  0.1082
  118MOL   C12728441   6.450   2.980   7.760  0.1431 -0.3368  0.0937
  118MOL   H12828442   6.139   3.176   7.588  2.0015  0.4823  1.2151
  118MOL   H12928443   6.114   3.343   7.634 -0.8164 -0.8886 -0.0230
  118MOL   H13028444   6.100   3.112   7.820 -0.0569  0.0468 -1.6947
  118MOL   H13128445   6.493   3.002   7.662 -2.5593 -3.1625 -1.8307
  118MOL   H13228446   6.437   2.872   7.755  0.8798 -0.5887  2.9005
  118MOL   H13328447   6.529   3.011   7.829  1.0032  1.6865 -1.7177
  118MOL   C13428448   6.119   3.300   7.904 -0.0725  0.4374  0.1652
  118MOL   C13528449   6.112   3.230   0.112 -0.3313  0.6574  0.5062
  118MOL   C13628450   6.245   3.275   0.171 -0.2036  0.3404 -0.3211
  118MOL   O13728451   6.262   3.393   0.200 -0.1455  0.0431 -0.7108
  118MOL   O13828452   6.326   3.175   0.202 -0.0429  0.0984  0.0271
  118MOL   C13928453   6.435   3.214   0.278 -0.1890  0.2060  0.4809
  118MOL   H14028454   6.188   3.382   7.891 -1.4387  1.4437 -0.8341
  118MOL   H14128455   6.025   3.347   7.876 -1.2228 -2.4370 -1.0515
  118MOL   H14228456   6.114   3.122   0.099 -1.4953  0.7507 -0.6537
  118MOL   H14328457   6.511   3.137   0.264  0.7096  1.2061 -0.2030
  118MOL   H14428458   6.405   3.215   0.383 -0.4744 -0.8876  0.4119
  118MOL   H14528459   6.486   3.306   0.247  0.9942  0.3852  2.8034
  118MOL   C14628460   5.987   3.275   0.186 -0.3173  0.1279  0.4360
  118MOL   C14728461   5.989   3.253   0.334  0.6838 -0.1080 -0.1924
  118MOL   C14828462   5.872   3.334   0.393  0.2878 -0.0380 -0.9082
  118MOL   O14928463   5.891   3.416   0.477  0.0111 -0.2389 -0.1170
  118MOL   O15028464   5.752   3.302   0.345  0.3407 -0.2305 -0.1772
  118MOL   C15128465   5.636   3.359   0.402 -0.2029  0.5947  0.2140
  118MOL   H15228466   5.971   3.381   0.165  1.0851  0.0821 -0.9202
  118MOL   H15328467   5.899   3.222   0.150  0.9204  0.0196 -2.4951
  118MOL   H15428468   6.083   3.292   0.374  0.6204 -0.0718 -0.0781
  118MOL   H15528469   5.554   3.314   0.346 -0.0422 -0.7292  1.0118
  118MOL   H15628470   5.632   3.466   0.380 -0.5131  0.7650  1.0768
  118MOL   H15728471   5.629   3.335   0.508 -1.2992 -0.5974 -0.1232
  118MOL   C15828472   5.979   3.104   0.366  0.2262 -0.5947  0.2714
  118MOL   C15928473   6.071   3.057   0.475 -0.1196 -0.9466  0.3681
  118MOL   C16028474   6.068   3.149   0.594  0.3282 -0.3929 -0.1029
  118MOL   O16128475   5.971   3.163   0.666 -0.1824  0.5837 -0.3811
  118MOL   O16228476   6.189   3.209   0.627 -0.8668 -0.1486  0.0709
  118MOL   C16328477   6.182   3.302   0.741 -0.3598 -0.0542  0.5860
  118MOL   H16428478   5.875   3.083   0.388  0.3416 -0.4911  0.9329
  118MOL   H16528479   6.008   3.040   0.283 -1.8018 -1.8017  0.4845
  118MOL   H16628480   6.173   3.079   0.442 -0.5702  0.3629 -0.1731
  118MOL   H16728481   6.275   3.355   0.760 -0.4381  0.6760 -0.9877
  118MOL   H16828482   6.146   3.247   0.828  0.8939 -1.1410  0.4321
  118MOL   H16928483   6.114   3.385   0.723  0.0421  0.1735  0.0775
  118MOL   C17028484   6.056   2.909   0.493 -0.0098  0.2446  0.6640
  118MOL   C17128485   6.164   2.822   0.424 -0.0832  0.1571  0.1988
  118MOL   C17228486   6.306   2.855   0.472 -0.5634  0.4150 -0.2449
  118MOL   O17328487   6.326   2.900   0.587  0.7899 -0.0466 -0.2183
  118MOL   O17428488   6.399   2.833   0.380 -0.2938 -0.8114 -0.2019
  118MOL   C17528489   6.536   2.856   0.412  0.0921 -0.6552  0.0015
  118MOL   H17628490   6.030   2.885   0.596  0.9383 -2.0952  0.3750
  118MOL   H17728491   5.965   2.884   0.437 -0.1639 -1.8067  1.7898
  118MOL   H17828492   6.156   2.848   0.319 -0.8992  0.8857  0.4328
  118MOL   H17928493   6.604   2.838   0.329  1.0329 -0.3596  0.7005
  118MOL   H18028494   6.559   2.800   0.502  0.7825  1.1867  1.0064
  118MOL   H18128495   6.546   2.962   0.438  0.7408 -1.0358  1.3619
  118MOL   C18228496   6.133   2.678   0.428 -0.6677 -0.0845 -0.0497
  118MOL   C18328497   6.124   2.613   0.565 -0.5262 -0.3586  1.1996
  118MOL   C18428498   5.983   2.591   0.618 -0.7559 -0.3968  0.5915
  118MOL   O18528499   5.887   2.571   0.544 -0.4116  0.2733 -1.0091
  118MOL   O18628500   5.984   2.614   0.749  0.0109  0.2069 -0.3773
  118MOL   C18728501   5.853   2.617   0.810 -0.0906  0.3749  0.3168
  118MOL   H18828502   6.037   2.664   0.379 -1.0919 -1.5156  1.1587
  118MOL   H18928503   6.210   2.620   0.376  1.2019 -0.6083  3.1883
  118MOL   H19028504   6.177   2.679   0.635  0.5478 -0.4055  0.4474
  118MOL   H19128505   5.856   2.588   0.915 -0.7972 -0.8195  0.0152
  118MOL   H19228506   5.790   2.550   0.752 -1.4112  3.0390 -1.4050
  118MOL   H19328507   5.801   2.712   0.804  0.6003  0.6525 -1.4292
  118MOL   C19428508   6.212   2.487   0.586  1.1669  0.0610 -0.2368
  118MOL   C19528509   6.368   2.508   0.604  0.1123  0.1695  0.2814
  118MOL   C19628510   6.400   2.563   0.748  0.0339 -0.0912  0.1963
  118MOL   O19728511   6.342   2.517   0.847  0.4063  0.3185 -0.7472
  118MOL   O19828512   6.500   2.661   0.752 -0.3420  0.2882  0.2138
  118MOL   C19928513   6.539   2.703   0.880 -0.2739  0.3522 -0.5318
  118MOL   H20028514   6.177   2.434   0.674 -1.4003 -2.6847 -2.8034
  118MOL   H20128515   6.197   2.432   0.494 -0.2446 -0.5176  0.3351
  118MOL   H20228516   6.406   2.580   0.532 -1.6475 -0.3374 -1.1743
  118MOL   H20328517   6.609   2.786   0.869  0.4681 -0.2983 -0.8319
  118MOL   H20428518   6.588   2.625   0.938 -1.1593 -0.9609 -1.4980
  118MOL   H20528519   6.456   2.742   0.938  0.9667  0.1465  1.4087
  118MOL   C20628520   6.432   2.377   0.585  0.1793 -0.3894 -0.4083
  118MOL   C20728521   6.587   2.379   0.606 -0.9735  0.0350  0.3108
  118MOL   C20828522   6.644   2.237   0.606  0.3666  0.2200  0.4255
  118MOL   O20928523   6.716   2.197   0.516  0.0687 -0.3199  0.3991
  118MOL   O21028524   6.605   2.161   0.708  0.2103 -0.8244  0.1570
  118MOL   C21128525   6.632   2.033   0.731  0.6162  0.2158  0.4347
  118MOL   H21228526   6.396   2.303   0.657  0.3632 -0.0918 -0.0074
  118MOL   H21328527   6.413   2.323   0.492 -0.4509  1.6237 -1.4638
  118MOL   H21428528   6.605   2.420   0.705 -2.9175 -1.6355  1.3882
  118MOL   H21528529   6.612   1.975   0.641  1.4510 -3.2237  2.3468
  118MOL   H21628530   6.573   1.994   0.814 -1.6251  1.5438 -0.4764
  118MOL   H21728531   6.737   2.017   0.754  0.7401  0.5855  0.1209
  118MOL   C21828532   6.662   2.478   0.517  0.1350  0.1317 -0.1549
  118MOL   C21928533   6.794   2.534   0.570 -0.6492  0.4500 -0.2664
  118MOL   C22028534   6.911   2.468   0.499  0.7093 -0.2665 -0.0243
  118MOL   O22128535   6.974   2.378   0.550  0.0041  0.2436 -0.6736
  118MOL   O22228536   6.931   2.522   0.368 -0.1717  0.7171 -0.6027
  118MOL   C22328537   7.023   2.447   0.295 -0.2172 -0.0592 -0.2301
  118MOL   H22428538   6.673   2.436   0.417 -1.4649 -0.8515  0.0533
  118MOL   H22528539   6.604   2.568   0.497  1.6896  0.7027 -2.1562
  118MOL   H22628540   6.814   2.497   0.671 -2.3620  0.3232  0.0421
  118MOL   H22728541   7.021   2.488   0.194  1.5812 -0.9089 -0.6390
  118MOL   H22828542   7.001   2.340   0.304 -0.9904  0.1894  0.9037
  118MOL   H22928543   7.126   2.466   0.327  0.5019  0.4437 -2.7590
  118MOL   C23028544   6.809   2.690   0.564  0.4213  0.1031 -0.2736
  118MOL   C23128545   6.946   2.742   0.606 -0.5645  0.0691  0.0894
  118MOL   C23228546   6.953   2.896   0.616  0.7544  0.0696 -1.5151
  118MOL   O23328547   6.878   2.969   0.568  0.9621  0.2115  0.0054
  118MOL   O23428548   7.058   2.934   0.681 -0.6897  0.2502 -0.5158
  118MOL   C23528549   7.098   3.073   0.687 -0.1997 -0.0818 -0.0951
  118MOL   H23628550   6.775   2.713   0.464 -0.4686 -0.8257 -0.1900
  118MOL   H23728551   6.737   2.741   0.628  1.0425  2.0536 -1.1096
  118MOL   H23828552   7.025   2.706   0.541  0.3530 -1.5234  2.0528
  118MOL   H23928553   7.090   3.128   0.593 -0.3015 -0.5479 -0.3603
  118MOL   H24028554   7.202   3.073   0.720 -0.0321 -0.8868 -0.6020
  118MOL   H24128555   7.050   3.136   0.762  0.3277  1.2083 -0.8150
  118MOL   H24228556   6.967   2.698   0.703 -4.7535  0.1273  1.1198
  119MOL     C128557   4.268   5.585   0.993  0.5476 -0.6356 -0.2736
  119MOL     C228558   4.158   5.499   1.047 -0.2014 -0.6438 -0.3169
  119MOL     C328559   4.197   5.356   1.063  0.5878 -0.4485  0.3887
  119MOL     O428560   4.309   5.317   1.084  0.5415 -0.6198  0.2443
  119MOL     O528561   4.094   5.278   1.060  0.2944  0.0052  0.5190
  119MOL     C628562   4.108   5.141   1.082 -0.1145  0.3483 -0.4635
  119MOL     H728563   4.364   5.557   1.036 -0.0235  0.7179  1.9232
  119MOL     H828564   4.256   5.686   1.033  2.3438 -0.4936 -0.0570
  119MOL     H928565   4.087   5.496   0.964  1.2788 -0.0414 -1.6101
  119MOL    H1028566   4.013   5.096   1.052 -0.6187  1.4046 -0.4525
  119MOL    H1128567   4.125   5.121   1.187 -2.8108  2.7193  0.5003
  119MOL    H1228568   4.188   5.100   1.021  0.2069 -1.0174  0.8535
  119MOL    H1328569   4.275   5.587   0.884 -1.8759  1.7124 -0.4432
  119MOL    C1428570   4.090   5.558   1.172  0.2183 -0.0633  0.6023
  119MOL    C1528571   3.981   5.493   1.252 -0.4944  0.0834 -0.4601
  119MOL    C1628572   3.990   5.530   1.404 -0.6958 -0.3143 -0.4719
  119MOL    O1728573   3.925   5.626   1.442  0.1156 -0.0735  0.2891
  119MOL    O1828574   4.070   5.449   1.477 -0.1083  0.1562  0.3004
  119MOL    C1928575   4.101   5.452   1.622  0.7421  0.6621 -0.6153
  119MOL    H2028576   4.176   5.574   1.237  1.8022 -2.2783 -0.8590
  119MOL    H2128577   4.060   5.659   1.144  2.3129  0.3049 -0.4519
  119MOL    H2228578   3.986   5.384   1.246 -0.5476 -0.0787  2.0501
  119MOL    H2328579   4.033   5.524   1.668  0.1878  0.0555 -0.4893
  119MOL    H2428580   4.201   5.484   1.651  1.6488 -0.9556 -1.8418
  119MOL    H2528581   4.089   5.351   1.662  0.5053  0.6313 -0.7590
  119MOL    C2628582   3.843   5.522   1.191  0.3103 -0.5265 -0.2625
  119MOL    C2728583   3.724   5.449   1.259 -0.4561  1.0823 -0.5612
  119MOL    C2828584   3.605   5.532   1.220  0.2481 -0.3822  0.3064
  119MOL    O2928585   3.578   5.554   1.101 -0.0896 -0.0356  0.4208
  119MOL    O3028586   3.530   5.569   1.323 -0.0990  0.2894  0.0235
  119MOL    C3128587   3.418   5.660   1.306 -0.8990  0.1335 -0.2505
  119MOL    H3228588   3.835   5.630   1.206 -2.4835 -0.3828 -2.3386
  119MOL    H3328589   3.844   5.499   1.085  1.6441  3.1415 -1.1421
  119MOL    H3428590   3.739   5.453   1.367 -0.4760 -1.0505 -0.4558
  119MOL    H3528591   3.384   5.653   1.203 -1.6319 -0.9860  0.0587
  119MOL    H3628592   3.445   5.760   1.340  0.1891 -0.7064  1.4688
  119MOL    H3728593   3.337   5.624   1.370  0.9012 -0.3914  1.7967
  119MOL    C3828594   3.716   5.304   1.208  0.3041 -0.4327 -0.3171
  119MOL    C3928595   3.693   5.201   1.316 -0.3365  0.7595  0.7799
  119MOL    C4028596   3.646   5.066   1.255 -0.7848  0.9138 -0.6454
  119MOL    O4128597   3.674   5.034   1.139 -0.1892 -0.2367  0.2593
  119MOL    O4228598   3.565   5.011   1.336 -0.4363 -0.1686 -0.2002
  119MOL    C4328599   3.511   4.888   1.292  0.1153  0.4082 -0.6014
  119MOL    H4428600   3.637   5.294   1.133  0.1761 -1.0397 -0.1037
  119MOL    H4528601   3.804   5.282   1.148 -0.2332 -1.1892 -0.8456
  119MOL    H4628602   3.605   5.227   1.374 -0.0561 -0.9284  2.0143
  119MOL    H4728603   3.446   4.844   1.368  1.0113 -1.2088 -0.7635
  119MOL    H4828604   3.584   4.819   1.252 -0.0791 -0.1548  0.0014
  119MOL    H4928605   3.435   4.909   1.217  0.7587  3.3600 -0.4783
  119MOL    C5028606   3.811   5.181   1.420 -0.0200  0.4518 -0.6376
  119MOL    C5128607   3.790   5.169   1.572  0.0555  0.1037 -0.5635
  119MOL    C5228608   3.751   5.294   1.643  0.3011  0.0341  0.2854
  119MOL    O5328609   3.808   5.323   1.754 -0.0540  0.7976 -0.0057
  119MOL    O5428610   3.657   5.366   1.581  0.0281 -0.4057  0.2092
  119MOL    C5528611   3.612   5.479   1.654  1.2903 -0.3710 -0.7931
  119MOL    H5628612   3.872   5.093   1.399  1.6736  1.4797 -0.1193
  119MOL    H5728613   3.883   5.262   1.408  0.0619  0.3861 -0.5946
  119MOL    H5828614   3.889   5.143   1.609  0.2603 -1.0559 -1.8578
  119MOL    H5928615   3.516   5.503   1.609  0.5271  1.2218  1.5843
  119MOL    H6028616   3.680   5.564   1.651  0.5485  0.1956 -1.8232
  119MOL    H6128617   3.592   5.448   1.756  1.2421 -1.4321 -1.1125
  119MOL    C6228618   3.697   5.047   1.611 -0.4991  0.3598 -0.0766
  119MOL    C6328619   3.705   5.013   1.761 -1.0812 -0.2068  0.0991
  119MOL    C6428620   3.564   4.998   1.818  0.5629  0.0244 -0.5313
  119MOL    O6528621   3.531   4.895   1.867  0.1327 -0.1636  0.3140
  119MOL    O6628622   3.491   5.109   1.807  0.2810  0.3781  0.2224
  119MOL    C6728623   3.357   5.111   1.856 -1.0162 -0.0274  0.8415
  119MOL    H6828624   3.594   5.078   1.590 -0.4927 -1.1325 -2.5483
  119MOL    H6928625   3.714   4.955   1.554 -1.5646 -0.4132  0.8083
  119MOL    H7028626   3.729   5.107   1.812 -0.7762  0.2820 -0.9173
  119MOL    H7128627   3.323   5.208   1.819  0.7857 -0.2264 -1.4428
  119MOL    H7228628   3.334   5.104   1.962 -0.7097  0.5583  0.9483
  119MOL    H7328629   3.292   5.045   1.800  1.3533 -0.7268 -1.1608
  119MOL    C7428630   3.813   4.907   1.792  0.0855 -0.2227  0.4361
  119MOL    C7528631   3.881   4.927   1.923 -0.3870  0.1025 -0.8059
  119MOL    C7628632   3.809   4.860   2.042 -0.0558  0.7770  0.6127
  119MOL    O7728633   3.782   4.925   2.140  0.4879  0.4228  0.1566
  119MOL    O7828634   3.783   4.730   2.019 -0.1243 -0.3399 -0.4251
  119MOL    C7928635   3.677   4.669   2.100  0.1482 -0.1192  0.3100
  119MOL    H8028636   3.773   4.807   1.777 -0.0753 -0.4981  2.5915
  119MOL    H8128637   3.884   4.928   1.712 -1.5070  1.7109 -0.5078
  119MOL    H8228638   3.878   5.033   1.946 -0.6151 -0.2642  0.9788
  119MOL    H8328639   3.583   4.705   2.060  0.5771  1.1246  0.3886
  119MOL    H8428640   3.694   4.705   2.201  2.2832  1.0738 -0.4345
  119MOL    H8528641   3.691   4.561   2.090  1.1028  0.0471 -0.3163
  119MOL    C8628642   4.033   4.880   1.922  0.4042 -0.0222 -0.7996
  119MOL    C8728643   4.140   4.980   1.850  0.4277  1.2488 -0.2317
  119MOL    C8828644   4.180   5.095   1.941 -0.2465 -0.0347 -0.0686
  119MOL    O8928645   4.293   5.111   1.978 -0.0940 -0.1669 -0.0964
  119MOL    O9028646   4.073   5.179   1.970  0.5608  0.1159  0.1987
  119MOL    C9128647   4.098   5.301   2.040 -0.3367 -0.2220  0.3624
  119MOL    H9228648   4.069   4.853   2.021 -3.3708  0.4006  0.7956
  119MOL    H9328649   4.032   4.786   1.866  4.2341  0.4127 -1.7650
  119MOL    H9428650   4.089   5.039   1.774 -0.1588  1.8275  0.5998
  119MOL    H9528651   4.152   5.289   2.133  0.6127 -1.0196 -0.2823
  119MOL    H9628652   3.998   5.346   2.045 -0.1371  0.1660  0.9097
  119MOL    H9728653   4.142   5.377   1.974 -1.1437  1.2008  1.4218
  119MOL    C9828654   4.264   4.903   1.790 -0.2262  0.4061  0.8445
  119MOL    C9928655   4.255   4.831   1.650 -0.7112 -0.0193 -0.0565
  119MOL   C10028656   4.214   4.940   1.544 -0.7927  0.1515  0.1427
  119MOL   O10128657   4.110   4.929   1.480 -0.5393  0.3776 -0.4186
  119MOL   O10228658   4.303   5.037   1.534 -0.1607 -0.6227  0.2067
  119MOL   C10328659   4.285   5.137   1.431 -0.0394 -0.1882 -0.7856
  119MOL   H10428660   4.357   4.960   1.798  0.2461 -0.2410  0.0489
  119MOL   H10528661   4.290   4.820   1.857  1.1729  0.6959  0.6793
  119MOL   H10628662   4.174   4.758   1.645 -1.3173  0.7142 -1.2746
  119MOL   H10728663   4.284   5.093   1.332  0.2237 -3.0674  0.4430
  119MOL   H10828664   4.368   5.207   1.448  0.0842 -0.5014 -0.0725
  119MOL   H10928665   4.196   5.197   1.450  1.5539  1.9538  0.1224
  119MOL   C11028666   4.397   4.767   1.620  0.5827 -0.8800 -0.4295
  119MOL   C11128667   4.403   4.708   1.475  0.2222 -0.5338 -0.2197
  119MOL   C11228668   4.552   4.673   1.443 -0.2904  0.1506 -0.7414
  119MOL   O11328669   4.632   4.654   1.530 -0.1256 -0.1083  0.1161
  119MOL   O11428670   4.567   4.646   1.310 -0.0791 -0.9425 -0.9313
  119MOL   C11528671   4.674   4.579   1.254 -0.3515 -0.0894 -0.5832
  119MOL   H11628672   4.477   4.839   1.639  0.3125 -0.7844  0.3641
  119MOL   H11728673   4.416   4.692   1.697 -0.8912 -1.1408 -0.3244
  119MOL   H11828674   4.387   4.791   1.407  1.5538  0.2709  0.4282
  119MOL   H11928675   4.747   4.543   1.326 -1.2399  2.2162  1.5384
  119MOL   H12028676   4.736   4.643   1.191  2.0533 -1.5289  0.2753
  119MOL   H12128677   4.643   4.501   1.184 -0.1666 -0.0196 -0.7450
  119MOL   C12228678   4.298   4.596   1.439  0.1739 -0.0492 -0.7074
  119MOL   C12328679   4.338   4.456   1.483  0.1334 -0.2632 -0.2476
  119MOL   C12428680   4.291   4.423   1.632  0.0238  0.0919  0.8646
  119MOL   O12528681   4.172   4.411   1.656  0.3720 -0.2494  0.4333
  119MOL   O12628682   4.390   4.432   1.721  0.0472 -0.1580 -1.0104
  119MOL   C12728683   4.357   4.410   1.857 -0.1276 -0.2862  0.3700
  119MOL   H12828684   4.192   4.612   1.457  0.3710  0.3697  0.1086
  119MOL   H12928685   4.299   4.598   1.330  0.5768 -0.9561 -0.7168
  119MOL   H13028686   4.447   4.453   1.485  0.1885 -0.2451 -2.2800
  119MOL   H13128687   4.402   4.494   1.910 -1.9641  1.5450 -0.9248
  119MOL   H13228688   4.405   4.318   1.890  0.1933  0.2712  1.4613
  119MOL   H13328689   4.250   4.406   1.872  0.0400 -0.2110  1.6196
  119MOL   C13428690   4.308   4.331   1.391 -0.3624 -0.2893 -0.5687
  119MOL   C13528691   4.438   4.269   1.334  0.1560  0.2544 -0.1420
  119MOL   C13628692   4.537   4.218   1.442  1.2346 -0.1834 -0.3791
  119MOL   O13728693   4.513   4.114   1.508 -0.5412 -0.1699 -0.3126
  119MOL   O13828694   4.653   4.288   1.440  0.3138  0.1223 -0.1162
  119MOL   C13928695   4.762   4.246   1.518  0.5623  0.3243  0.1930
  119MOL   H14028696   4.247   4.257   1.443  1.8368 -0.4524  1.9329
  119MOL   H14128697   4.247   4.377   1.314 -1.8730 -2.7189 -0.8567
  119MOL   H14228698   4.485   4.357   1.291  2.5211 -2.0200 -2.3759
  119MOL   H14328699   4.820   4.198   1.440 -0.6500  0.1563 -0.6212
  119MOL   H14428700   4.734   4.190   1.607 -3.0340 -0.5025 -1.3666
  119MOL   H14528701   4.802   4.342   1.549 -0.3314  0.9160 -0.4590
  119MOL   C14628702   4.412   4.152   1.232 -0.8035  0.0630  0.6692
  119MOL   C14728703   4.384   4.199   1.091  0.4008 -0.0202  0.1326
  119MOL   C14828704   4.501   4.261   1.026  0.2187 -0.1894  0.7828
  119MOL   O14928705   4.605   4.201   1.026 -0.0997  0.4772  0.8130
  119MOL   O15028706   4.485   4.382   0.992  0.2397  0.0223 -0.3950
  119MOL   C15128707   4.582   4.445   0.916 -0.2330  0.3040  0.3912
  119MOL   H15228708   4.481   4.070   1.246  0.3717  1.1106  1.0573
  119MOL   H15328709   4.316   4.109   1.262  0.8639 -1.7472  3.6525
  119MOL   H15428710   4.309   4.277   1.103  0.1062 -0.7567  3.5237
  119MOL   H15528711   4.562   4.552   0.929 -0.9412  0.4915 -2.0278
  119MOL   H15628712   4.588   4.417   0.811 -1.2462 -2.6024  1.0711
  119MOL   H15728713   4.680   4.440   0.963  0.5416  0.0430 -1.2219
  119MOL   C15828714   4.317   4.080   1.014 -0.8508 -0.1483  0.2679
  119MOL   C15928715   4.257   4.127   0.879  0.2246  0.3057  0.6205
  119MOL   C16028716   4.162   4.247   0.867 -0.4265  0.5045  0.5839
  119MOL   O16128717   4.196   4.349   0.812 -0.2687 -0.2263  0.0116
  119MOL   O16228718   4.042   4.219   0.923  0.1465  0.8603  0.2599
  119MOL   C16328719   3.956   4.328   0.938 -0.0068  0.1078  0.6209
  119MOL   H16428720   4.392   4.004   0.994 -2.4626 -1.0499 -2.5802
  119MOL   H16528721   4.240   4.030   1.074  0.4895 -0.7603  1.5000
  119MOL   H16628722   4.194   4.040   0.859  0.3884  0.0807  1.0804
  119MOL   H16728723   3.936   4.384   0.847  1.5104  0.5529  0.5384
  119MOL   H16828724   3.979   4.414   1.002 -0.1446  3.3236 -3.4876
  119MOL   H16928725   3.863   4.285   0.975  1.4116 -0.1547  4.1467
  119MOL   C17028726   4.359   4.120   0.761 -0.0181 -0.0090  0.2487
  119MOL   C17128727   4.435   3.982   0.725  0.5157  0.0817 -0.6775
  119MOL   C17228728   4.338   3.871   0.671 -0.3318  0.5622 -0.4616
  119MOL   O17328729   4.351   3.749   0.707 -0.2538  0.4840 -0.8934
  119MOL   O17428730   4.251   3.917   0.580 -0.0160  0.2109 -0.5371
  119MOL   C17528731   4.139   3.849   0.535 -0.0744 -0.4610 -0.0430
  119MOL   H17628732   4.303   4.150   0.672  0.3982  0.8785  0.2763
  119MOL   H17728733   4.438   4.195   0.771  0.9157 -0.8083 -0.9963
  119MOL   H17828734   4.479   3.950   0.820  0.0193  0.8273 -0.1943
  119MOL   H17928735   4.098   3.893   0.444  0.3800 -1.3294 -0.6749
  119MOL   H18028736   4.066   3.841   0.616  2.0555 -2.5651  1.7257
  119MOL   H18128737   4.165   3.748   0.504  0.5996  0.5263 -2.8542
  119MOL   C18228738   4.543   4.015   0.620 -0.0679  0.0748  0.1350
  119MOL   C18328739   4.513   4.045   0.465  0.1142  0.2951  0.1431
  119MOL   C18428740   4.435   4.176   0.444  0.1611  0.2023 -0.4171
  119MOL   O18528741   4.329   4.176   0.383 -0.7166  0.0225  0.4841
  119MOL   O18628742   4.494   4.282   0.499 -1.0302  0.2780  0.3572
  119MOL   C18728743   4.436   4.409   0.517 -0.2510 -0.5016 -0.9909
  119MOL   H18828744   4.600   4.102   0.654  1.1494  0.4116 -2.6565
  119MOL   H18928745   4.599   3.922   0.615 -1.2190 -0.5509 -1.6400
  119MOL   H19028746   4.438   3.973   0.432  0.2273 -0.2653  1.0888
  119MOL   H19128747   4.402   4.466   0.430 -0.6626 -0.3014 -0.6966
  119MOL   H19228748   4.506   4.474   0.569 -0.5277 -0.2072 -0.9838
  119MOL   H19328749   4.353   4.414   0.587  0.9638 -0.1696  0.4624
  119MOL   C19428750   4.652   4.042   0.391  1.3995 -0.7818 -0.2851
  119MOL   C19528751   4.643   4.071   0.236  0.2106 -0.2601  0.0386
  119MOL   C19628752   4.784   4.106   0.179 -0.2046 -0.5227 -0.4897
  119MOL   O19728753   4.807   4.216   0.131 -0.0135  0.1553 -0.5084
  119MOL   O19828754   4.880   4.012   0.207  0.0104  0.2245  0.8667
  119MOL   C19928755   5.010   4.021   0.145 -0.4612  0.4154 -0.1767
  119MOL   H20028756   4.728   4.100   0.443  0.5601 -1.0790  1.3051
  119MOL   H20128757   4.688   3.940   0.404  1.5069 -0.5128  1.6288
  119MOL   H20228758   4.592   4.167   0.224 -1.8082 -1.2684  0.3746
  119MOL   H20328759   5.056   4.118   0.162 -0.6699  0.7107 -1.2441
  119MOL   H20428760   5.006   4.015   0.037 -0.2128 -0.7546 -0.1250
  119MOL   H20528761   5.079   3.947   0.185  0.4370  2.3507  1.9951
  119MOL   C20628762   4.562   3.971   0.154  0.0082  0.1787  0.1035
  119MOL   C20728763   4.514   4.037   0.017  1.1276  0.4553  0.0686
  119MOL   C20828764   4.598   3.987   7.831 -0.0306 -0.2756 -0.3277
  119MOL   O20928765   4.677   4.062   7.769  0.1058  0.7289 -0.5559
  119MOL   O21028766   4.593   3.855   7.824 -0.2681  0.2522 -0.3182
  119MOL   C21128767   4.699   3.777   7.760 -0.1955  0.1536 -0.3677
  119MOL   H21228768   4.622   3.882   0.138 -3.1217 -1.6613 -1.8172
  119MOL   H21328769   4.479   3.930   0.211 -0.5434  0.0569 -0.7754
  119MOL   H21428770   4.522   4.145   0.023 -1.8867  0.6911  0.6660
  119MOL   H21528771   4.791   3.780   7.817  0.6643 -1.8790 -1.6067
  119MOL   H21628772   4.704   3.805   7.654 -0.3175 -1.0167 -0.6925
  119MOL   H21728773   4.650   3.680   7.752 -0.5999  0.1465  1.9471
  119MOL   C21828774   4.363   3.994   7.929 -0.6011  0.2628 -0.8823
  119MOL   C21928775   4.270   4.099   0.060  0.0512  0.3514  0.3017
  119MOL   C22028776   4.288   4.238   7.926 -0.5189 -0.5540 -0.8559
  119MOL   O22128777   4.271   4.340   0.057 -0.0099 -0.0436 -0.4471
  119MOL   O22228778   4.295   4.233   7.787  0.0225  0.0552  0.1170
  119MOL   C22328779   4.313   4.352   7.708 -0.5616 -0.2598 -0.3162
  119MOL   H22428780   4.344   3.992   7.822  2.7879  2.2414 -1.5732
  119MOL   H22528781   4.351   3.898   0.045 -0.7789  0.4312 -0.5922
  119MOL   H22628782   4.300   4.104   0.164 -2.2975 -0.8675  1.0670
  119MOL   H22728783   4.389   4.344   7.630 -1.0410  2.5340 -1.1128
  119MOL   H22828784   4.330   4.443   7.765  0.5002  0.2101 -1.3529
  119MOL   H22928785   4.221   4.366   7.650  0.8366 -0.8565 -2.7722
  119MOL   C23028786   4.123   4.050   0.069  0.3832 -0.3612  0.0559
  119MOL   C23128787   4.013   4.154   0.109  0.1530 -0.2486 -0.5694
  119MOL   C23228788   3.882   4.078   0.129 -0.1189 -0.4720  0.3015
  119MOL   O23328789   3.853   4.039   0.241 -0.1872 -0.0743 -0.2091
  119MOL   O23428790   3.809   4.055   0.022 -0.0917 -0.6462  0.0187
  119MOL   C23528791   3.686   3.993   0.031  0.8162 -0.7465 -0.0120
  119MOL   H23628792   4.099   4.003   7.907  0.6422 -2.0695  0.8272
  119MOL   H23728793   4.126   3.967   0.139  0.5229 -0.4003  0.0019
  119MOL   H23828794   3.998   4.200   0.012 -1.7229 -1.3260 -0.8048
  119MOL   H23928795   3.628   3.990   7.871 -0.3586 -0.6080  0.6972
  119MOL   H24028796   3.624   4.055   0.096 -1.1829 -2.7204  0.0634
  119MOL   H24128797   3.704   3.892   0.069  0.6177  0.0825  2.3273
  119MOL   H24228798   4.037   4.225   0.188  1.1899 -0.1148 -0.9919
  120MOL     C128799   1.011   6.180   4.578 -0.6705  0.0319 -1.0435
  120MOL     C228800   1.073   6.213   4.712  0.6889  0.1784 -0.6862
  120MOL     C328801   1.200   6.135   4.757 -0.1060  0.2725 -0.0819
  120MOL     O428802   1.273   6.075   4.679  0.0777 -0.1544  0.0871
  120MOL     O528803   1.216   6.137   4.888 -0.1692 -0.3429  0.3745
  120MOL     C628804   1.313   6.067   4.955 -0.7138 -0.2865 -0.5774
  120MOL     H728805   1.043   6.084   4.538 -1.6548 -0.4921 -0.6221
  120MOL     H828806   1.043   6.257   4.508  3.1227  0.6678  1.2811
  120MOL     H928807   1.002   6.174   4.785  0.6241  1.6962  0.0784
  120MOL    H1028808   1.366   5.996   4.890  0.5054 -0.3846  0.5041
  120MOL    H1128809   1.277   6.027   5.049  1.4718 -2.0644 -0.4343
  120MOL    H1228810   1.369   6.156   4.983  0.8064 -1.6853  1.0106
  120MOL    H1328811   0.902   6.186   4.572 -0.9461  0.4464  2.9407
  120MOL    C1428812   1.076   6.364   4.744  0.1149  0.0964 -0.3928
  120MOL    C1528813   0.944   6.421   4.796  0.1633  0.4653 -0.2484
  120MOL    C1628814   0.918   6.370   4.936  0.2925 -0.4405 -0.6136
  120MOL    O1728815   1.009   6.350   5.017  0.0983  0.0027  0.2314
  120MOL    O1828816   0.787   6.355   4.957 -0.2829  0.8549  0.2835
  120MOL    C1928817   0.753   6.293   5.081 -0.0215 -0.0431 -0.4569
  120MOL    H2028818   1.150   6.397   4.817 -0.0316  0.5697 -0.4577
  120MOL    H2128819   1.115   6.418   4.658  2.0032 -2.3362 -1.1368
  120MOL    H2228820   0.862   6.389   4.732 -1.5603  0.6279  1.8363
  120MOL    H2328821   0.801   6.349   5.161  0.0551  0.8070 -1.1039
  120MOL    H2428822   0.770   6.186   5.091 -0.6649 -0.0489  0.6711
  120MOL    H2528823   0.646   6.302   5.098  0.1563 -0.3683  0.8749
  120MOL    C2628824   0.944   6.579   4.787 -0.5458 -0.2216  1.4459
  120MOL    C2728825   1.056   6.649   4.877 -0.4779 -0.2107  0.4391
  120MOL    C2828826   1.193   6.663   4.805 -0.1753  0.2316 -0.3588
  120MOL    O2928827   1.291   6.599   4.848 -0.0654 -0.7430  0.6590
  120MOL    O3028828   1.183   6.741   4.696  1.0310  0.2295 -0.2213
  120MOL    C3128829   1.275   6.717   4.591 -0.7060  0.8092 -0.3640
  120MOL    H3228830   0.956   6.607   4.683  1.2862  1.9140  2.1992
  120MOL    H3328831   0.844   6.620   4.803 -0.2227  0.0671  2.8490
  120MOL    H3428832   1.080   6.593   4.968  2.0169 -1.1051 -0.7025
  120MOL    H3528833   1.218   6.740   4.501  2.0881  2.1207 -1.8392
  120MOL    H3628834   1.307   6.612   4.591 -2.2988  0.2948  1.5703
  120MOL    H3728835   1.363   6.781   4.591  0.9821 -1.4259 -1.4804
  120MOL    C3828836   1.007   6.789   4.924  0.2413 -0.7213 -0.6569
  120MOL    C3928837   0.936   6.787   5.062  0.2003  0.2025 -0.0954
  120MOL    C4028838   1.025   6.770   5.192 -0.3179 -0.4703 -0.1493
  120MOL    O4128839   0.984   6.806   5.299  0.2573 -0.5876  0.3505
  120MOL    O4228840   1.141   6.708   5.174 -0.3093  0.0049 -0.0412
  120MOL    C4328841   1.230   6.710   5.281 -0.2783  0.2555  0.6147
  120MOL    H4428842   1.093   6.855   4.937  0.0995 -0.5673 -0.4987
  120MOL    H4528843   0.939   6.835   4.853  2.3846  1.9969 -0.9948
  120MOL    H4628844   0.874   6.698   5.063  1.8578 -0.9733 -0.2495
  120MOL    H4728845   1.210   6.644   5.365  0.2254  0.4705  0.9045
  120MOL    H4828846   1.229   6.809   5.327 -1.5535  0.5596 -0.0379
  120MOL    H4928847   1.328   6.679   5.246 -1.4698 -3.5126  0.3742
  120MOL    C5028848   0.833   6.900   5.077  0.4514  0.8584 -0.3637
  120MOL    C5128849   0.875   7.042   5.121 -0.8653 -0.6710  0.1394
  120MOL    C5228850   0.963   7.108   5.011 -0.1598 -0.1156  0.4491
  120MOL    O5328851   1.084   7.128   5.017 -0.0592 -0.1495 -0.0853
  120MOL    O5428852   0.887   7.148   4.903 -0.0495 -0.2872 -0.2390
  120MOL    C5528853   0.947   7.222   4.797  0.3126 -1.0597  0.0372
  120MOL    H5628854   0.779   6.911   4.983  1.8317 -3.7534 -1.8618
  120MOL    H5728855   0.755   6.858   5.141 -2.0064  1.3910 -2.8886
  120MOL    H5828856   0.935   7.049   5.212 -1.3125  1.8745  0.2880
  120MOL    H5928857   1.005   7.302   4.844 -0.3206  1.0965 -2.7201
  120MOL    H6028858   0.870   7.258   4.730 -0.0957  3.2468  2.6174
  120MOL    H6128859   1.020   7.168   4.737 -0.5527  0.2753 -2.2801
  120MOL    C6228860   0.741   7.115   5.150 -0.4309  0.0507 -0.2564
  120MOL    C6328861   0.740   7.261   5.182  0.0781  0.2885  0.9513
  120MOL    C6428862   0.607   7.328   5.172  0.3343 -0.9048 -0.2226
  120MOL    O6528863   0.498   7.266   5.170 -0.7391 -0.1267 -0.7495
  120MOL    O6628864   0.619   7.458   5.176 -0.2710  0.2136 -0.3541
  120MOL    C6728865   0.504   7.535   5.156  0.2363 -0.4207  0.5324
  120MOL    H6828866   0.675   7.096   5.065 -1.2642  1.0186  0.1626
  120MOL    H6928867   0.683   7.063   5.226  0.6775 -0.7745  0.0489
  120MOL    H7028868   0.811   7.307   5.113 -0.5737 -0.8988 -0.5515
  120MOL    H7128869   0.415   7.508   5.212  2.4220  0.3414  4.5131
  120MOL    H7228870   0.477   7.534   5.050 -1.5183  1.8923  0.8948
  120MOL    H7328871   0.516   7.636   5.196  3.0135 -0.4984 -0.0261
  120MOL    C7428872   0.814   7.280   5.313 -0.9628  0.0514 -0.4940
  120MOL    C7528873   0.958   7.341   5.307  0.1222 -0.8461 -0.4220
  120MOL    C7628874   0.969   7.465   5.219  0.0076 -0.0888  0.3684
  120MOL    O7728875   1.029   7.466   5.111  0.6110  0.5981 -0.7493
  120MOL    O7828876   0.903   7.566   5.267  0.5593  0.0408  0.4249
  120MOL    C7928877   0.916   7.694   5.204 -0.1979  0.1453 -0.5747
  120MOL    H8028878   0.755   7.357   5.362  0.6614  1.6918 -1.0322
  120MOL    H8128879   0.810   7.197   5.383 -0.2039  0.0096 -0.4889
  120MOL    H8228880   1.009   7.258   5.258  1.1406 -0.5038  0.0616
  120MOL    H8328881   1.012   7.740   5.228 -0.0042  0.7958 -2.5313
  120MOL    H8428882   0.842   7.760   5.249  0.0741  2.2052 -3.0249
  120MOL    H8528883   0.896   7.699   5.097 -1.3405  0.3524 -0.3561
  120MOL    C8628884   1.029   7.357   5.446  0.3063  0.2460 -0.1217
  120MOL    C8728885   1.185   7.355   5.443 -0.3857  0.1531  0.0648
  120MOL    C8828886   1.247   7.436   5.559  0.5810 -0.4501  0.0093
  120MOL    O8928887   1.173   7.467   5.655  0.3297 -0.0607 -0.0800
  120MOL    O9028888   1.380   7.459   5.542  0.4991  0.3419  0.0009
  120MOL    C9128889   1.461   7.518   5.635 -0.9220  0.1452  0.2138
  120MOL    H9228890   0.993   7.450   5.489 -0.6269 -1.1842  2.2900
  120MOL    H9328891   0.994   7.284   5.519  1.0686 -2.1427 -2.0645
  120MOL    H9428892   1.219   7.407   5.353 -0.5612 -0.6438 -0.4634
  120MOL    H9528893   1.531   7.437   5.655  0.7908  1.6439  0.4050
  120MOL    H9628894   1.424   7.554   5.731 -1.5542  2.2091 -0.7831
  120MOL    H9728895   1.511   7.597   5.579  0.2073  0.1913  1.2600
  120MOL    C9828896   1.236   7.211   5.452  0.1772 -1.0552 -0.2614
  120MOL    C9928897   1.371   7.181   5.393 -0.1668 -0.7725 -0.2512
  120MOL   C10028898   1.432   7.065   5.463 -0.4559 -0.1674  0.1867
  120MOL   O10128899   1.548   7.074   5.498 -0.3967  0.1052  0.4019
  120MOL   O10228900   1.351   6.957   5.473 -0.1409  0.2495 -0.4389
  120MOL   C10328901   1.401   6.849   5.535  0.4676 -0.0352 -0.2004
  120MOL   H10428902   1.241   7.186   5.558  3.6980 -1.9829 -0.6046
  120MOL   H10528903   1.163   7.142   5.411  0.7135 -2.4611  1.1026
  120MOL   H10628904   1.440   7.264   5.407 -0.2126 -1.0532  1.6646
  120MOL   H10728905   1.425   6.869   5.640  0.3814  0.3566 -0.2540
  120MOL   H10828906   1.489   6.811   5.484  0.0338  1.4058 -2.0449
  120MOL   H10928907   1.331   6.766   5.522  0.2482  0.1571 -0.2456
  120MOL   C11028908   1.362   7.161   5.238  0.4814  0.2031  0.9910
  120MOL   C11128909   1.489   7.171   5.160  0.1272  0.2396 -0.4925
  120MOL   C11228910   1.484   7.080   5.033 -0.3573 -0.0187  0.4401
  120MOL   O11328911   1.498   7.131   4.922 -0.5374 -0.2920  0.6699
  120MOL   O11428912   1.451   6.953   5.053 -0.2710  0.5084 -0.2139
  120MOL   C11528913   1.430   6.872   4.938 -0.7657  0.2708 -0.2525
  120MOL   H11628914   1.311   7.066   5.222 -0.0072  0.5797  0.2993
  120MOL   H11728915   1.289   7.233   5.202  0.9093  1.6587  2.9361
  120MOL   H11828916   1.560   7.126   5.229 -1.7192 -0.1333  1.1850
  120MOL   H11928917   1.431   6.768   4.970 -0.3655  0.0269 -1.0201
  120MOL   H12028918   1.516   6.887   4.872 -1.0861  0.8393 -0.5394
  120MOL   H12128919   1.332   6.892   4.894 -1.1793 -1.8659 -0.3971
  120MOL   C12228920   1.525   7.319   5.132  0.3042 -0.5867  0.7289
  120MOL   C12328921   1.562   7.422   5.238 -0.4374  0.1018 -0.2636
  120MOL   C12428922   1.681   7.382   5.330  0.6182 -0.2547  0.0175
  120MOL   O12528923   1.719   7.265   5.329 -0.1487  0.1418 -0.1272
  120MOL   O12628924   1.724   7.469   5.409 -0.2379 -0.1269  0.3346
  120MOL   C12728925   1.813   7.428   5.510 -0.8295 -0.5667  0.2704
  120MOL   H12828926   1.612   7.308   5.067 -0.0939  1.5360 -0.2017
  120MOL   H12928927   1.449   7.365   5.069  2.1094  0.8369 -0.4759
  120MOL   H13028928   1.474   7.421   5.302  0.3988 -0.3239  0.9089
  120MOL   H13128929   1.914   7.442   5.473 -1.5112 -0.1391 -1.4771
  120MOL   H13228930   1.809   7.322   5.535 -2.5913 -1.0920 -2.0331
  120MOL   H13328931   1.795   7.489   5.599  1.9961  1.4484 -0.4734
  120MOL   C13428932   1.579   7.562   5.166 -0.2470 -0.0435  0.0758
  120MOL   C13528933   1.441   7.635   5.153 -0.4129 -0.6102 -0.2944
  120MOL   C13628934   1.385   7.691   5.283  0.1912  1.0995  0.2509
  120MOL   O13728935   1.271   7.663   5.322  0.1144 -0.4672 -0.7460
  120MOL   O13828936   1.464   7.777   5.339 -0.2926 -0.3266  0.5051
  120MOL   C13928937   1.435   7.844   5.459 -0.7175  0.2507  0.1633
  120MOL   H14028938   1.644   7.629   5.223  0.9588 -1.1575  0.0201
  120MOL   H14128939   1.635   7.555   5.073 -0.2755  1.7840 -0.1062
  120MOL   H14228940   1.364   7.559   5.138 -0.9805  0.2482 -1.8371
  120MOL   H14328941   1.393   0.000   5.412  0.6926 -0.2775 -2.1902
  120MOL   H14428942   1.526   7.871   5.512 -1.0361  0.9196  0.3696
  120MOL   H14528943   1.359   7.791   5.517 -2.2590  1.7442 -0.4608
  120MOL   C14628944   1.462   7.752   5.047 -0.1920  0.4311  0.8269
  120MOL   C14728945   1.345   7.851   5.034 -0.5976  0.1397 -0.5815
  120MOL   C14828946   1.395   0.040   4.949  1.1608  0.1631 -0.4935
  120MOL   O14928947   1.500   0.025   4.880  0.3845  0.4528 -0.4348
  120MOL   O15028948   1.315   0.140   4.952  0.9556  0.4796  0.3186
  120MOL   C15128949   1.349   0.255   4.882  0.5187  0.0135 -0.2370
  120MOL   H15228950   1.552   7.802   5.082  0.0648  0.8225 -0.3357
  120MOL   H15328951   1.484   7.710   4.948 -1.5776  0.0389  0.6792
  120MOL   H15428952   1.326   7.893   5.133 -1.1467  0.3185 -0.7590
  120MOL   H15528953   1.316   0.340   4.942  1.4003  2.1832 -2.7380
  120MOL   H15628954   1.301   0.255   4.784  0.5000  0.4393 -0.2310
  120MOL   H15728955   1.456   0.265   4.867  0.3273  0.3720 -1.4743
  120MOL   C15828956   1.207   7.797   4.986 -0.0876 -0.6656 -0.4218
  120MOL   C15928957   1.184   7.761   4.835 -0.3899  0.0594  0.2968
  120MOL   C16028958   1.281   7.651   4.791 -0.4959  0.0590 -0.3893
  120MOL   O16128959   1.376   7.685   4.720 -0.8957  0.1302  0.0017
  120MOL   O16228960   1.252   7.527   4.830 -0.4010 -0.0597  0.1195
  120MOL   C16328961   1.325   7.416   4.799 -0.6629  0.7255  0.2155
  120MOL   H16428962   1.182   7.708   5.045  1.8896 -0.5026  0.7088
  120MOL   H16528963   1.138   7.875   5.016  1.6026  1.0048 -0.8083
  120MOL   H16628964   1.201   7.855   4.783  1.3022 -0.6762 -0.5304
  120MOL   H16728965   1.416   7.432   4.858 -0.3525 -1.8939  0.5295
  120MOL   H16828966   1.361   7.415   4.697  2.7115  0.9341  1.3231
  120MOL   H16928967   1.288   7.323   4.842  1.5235  0.4385  1.6002
  120MOL   C17028968   1.040   7.716   4.813 -0.4342 -0.2538 -0.3371
  120MOL   C17128969   0.979   7.681   4.668  0.4791  0.2907 -0.2771
  120MOL   C17228970   0.829   7.650   4.688 -0.0876 -0.3877 -0.5838
  120MOL   O17328971   0.740   7.703   4.629 -0.0447  0.2075 -0.0847
  120MOL   O17428972   0.806   7.555   4.786  0.3956 -0.1558  0.0820
  120MOL   C17528973   0.680   7.506   4.816 -0.0259  0.2410 -0.1505
  120MOL   H17628974   1.016   7.634   4.881  1.7650 -0.1961  0.5347
  120MOL   H17728975   0.983   7.796   4.862  1.9537  1.1249  0.2464
  120MOL   H17828976   1.031   7.592   4.633 -0.0613 -0.0814 -0.1298
  120MOL   H17928977   0.610   7.589   4.806  0.2993  0.6978  1.1991
  120MOL   H18028978   0.693   7.466   4.917 -1.8825 -0.0080  0.0082
  120MOL   H18128979   0.646   7.422   4.755  0.6010 -1.4252  1.7267
  120MOL   C18228980   1.010   7.796   4.571  0.5237 -0.0749  0.2854
  120MOL   C18328981   0.970   7.771   4.424 -0.3280 -0.0230  0.2974
  120MOL   C18428982   0.984   7.906   4.359 -0.2363  0.3710  0.7976
  120MOL   O18528983   1.082   0.051   4.387  0.2139 -0.1612 -0.4301
  120MOL   O18628984   0.891   7.918   4.261  0.1194  0.1826  0.3671
  120MOL   C18728985   0.870   0.111   4.192 -0.9402 -0.2016 -0.3393
  120MOL   H18828986   0.965   7.884   4.617 -1.5972 -0.5863 -0.7278
  120MOL   H18928987   1.117   7.814   4.574  0.4682  0.4959 -0.8138
  120MOL   H19028988   0.866   7.742   4.405 -1.0799  3.9209 -2.1933
  120MOL   H19128989   0.866   0.107   4.083 -0.2964  1.2380 -0.4269
  120MOL   H19228990   0.936   0.191   4.225 -0.2531  0.0821 -2.3286
  120MOL   H19328991   0.774   0.150   4.224 -0.3270 -0.2700  1.6104
  120MOL   C19428992   1.068   7.666   4.363 -0.2749 -0.3485 -0.2182
  120MOL   C19528993   1.001   7.586   4.248 -0.4136 -0.4432 -0.0567
  120MOL   C19628994   0.987   7.667   4.118  0.2641 -0.1301 -0.4423
  120MOL   O19728995   0.891   7.645   4.046  0.0871  0.5665  0.3311
  120MOL   O19828996   1.090   7.740   4.085  1.0809  0.3212  0.0402
  120MOL   C19928997   1.077   7.827   3.971 -0.1682  0.0771 -0.1277
  120MOL   H20028998   1.157   7.718   4.328  0.5131 -2.7809 -1.9763
  120MOL   H20128999   1.096   7.595   4.441 -2.4609  1.8710  2.7248
  120MOL   H20229000   0.902   7.564   4.288 -0.6010  2.1167  0.9911
  120MOL   H20329001   1.121   7.770   3.889 -1.8982 -0.0210 -1.0134
  120MOL   H20429002   1.148   7.909   3.982  0.9258 -0.4929 -2.5181
  120MOL   H20529003   0.986   7.886   3.961 -0.1751  0.1658  0.4948
  120MOL   C20629004   1.076   7.454   4.226  0.2924  0.4246  0.1879
  120MOL   C20729005   1.020   7.328   4.286  0.5913 -0.0494  0.1790
  120MOL   C20829006   0.874   7.305   4.248 -0.8275  0.0494 -0.1171
  120MOL   O20929007   0.781   7.302   4.327 -0.7245 -0.1276  0.7993
  120MOL   O21029008   0.865   7.294   4.111  0.3871  0.3890  0.3926
  120MOL   C21129009   0.742   7.273   4.050  0.1515 -0.2377 -0.6804
  120MOL   H21229010   1.071   7.438   4.118  0.9370  2.1232 -0.1176
  120MOL   H21329011   1.180   7.467   4.254  0.5092 -0.2987 -0.2701
  120MOL   H21429012   1.034   7.341   4.394  0.4555 -1.1410  0.3285
  120MOL   H21529013   0.738   7.358   3.981 -0.3956  0.9034  0.7195
  120MOL   H21629014   0.660   7.284   4.122  0.7136  2.8895 -0.4421
  120MOL   H21729015   0.747   7.175   4.003  0.5190 -1.2152  1.3263
  120MOL   C21829016   1.104   7.199   4.262  0.4312 -0.0564  0.3043
  120MOL   C21929017   1.248   7.194   4.318  0.1795  0.5231 -0.0978
  120MOL   C22029018   1.250   7.208   4.473  0.4059 -0.0471  0.7316
  120MOL   O22129019   1.230   7.310   4.534  0.0970  0.4912 -0.2140
  120MOL   O22229020   1.274   7.084   4.524 -0.0469 -0.1998 -0.0010
  120MOL   C22329021   1.310   7.067   4.658  0.0344 -0.0199  0.1285
  120MOL   H22429022   1.056   7.121   4.320  2.3513 -2.5353 -1.3468
  120MOL   H22529023   1.097   7.175   4.156  0.3053  1.1057  0.0403
  120MOL   H22629024   1.293   7.282   4.273 -0.5129 -0.1525 -2.1470
  120MOL   H22729025   1.347   6.964   4.663 -1.9509 -0.6564  2.7607
  120MOL   H22829026   1.226   7.082   4.727 -0.3773  2.1652 -0.8081
  120MOL   H22929027   1.398   7.123   4.689 -0.5529 -1.0299  3.8778
  120MOL   C23029028   1.324   7.065   4.273  0.2401 -0.9487 -0.0521
  120MOL   C23129029   1.345   7.050   4.124  0.2095  0.2042  0.0390
  120MOL   C23229030   1.403   7.168   4.053  0.4709 -1.0455 -0.1130
  120MOL   O23329031   1.513   7.160   3.998 -0.5660 -0.0363 -0.2971
  120MOL   O23429032   1.318   7.272   4.042  0.7752  0.6693 -0.5736
  120MOL   C23529033   1.357   7.394   3.979  0.1245 -0.7593 -0.7750
  120MOL   H23629034   1.423   7.054   4.317 -0.6896 -2.9654  1.6615
  120MOL   H23729035   1.277   6.978   4.318  0.1349 -0.2225  1.2672
  120MOL   H23829036   1.253   7.023   4.073  0.8857  0.6728 -1.4629
  120MOL   H23929037   1.336   7.388   3.872  0.6196  1.2628 -1.0173
  120MOL   H24029038   1.466   7.398   3.989  0.1117 -1.2543 -0.4292
  120MOL   H24129039   1.295   7.477   4.011 -0.6938 -1.1026 -1.4465
  120MOL   H24229040   1.410   6.963   4.112 -1.0725 -0.6207 -1.0104
  121MOL     C129041   4.209   3.136   3.584  0.5138 -0.1689 -0.2163
  121MOL     C229042   4.317   3.235   3.557  0.1642  0.0539 -0.2618
  121MOL     C329043   4.264   3.374   3.515  0.1347 -0.1186 -0.4389
  121MOL     O429044   4.285   3.426   3.408  0.0562  0.1278  0.4312
  121MOL     O529045   4.188   3.435   3.612  0.6209 -0.1387  0.2490
  121MOL     C629046   4.128   3.561   3.571 -0.2661  0.0535 -0.1171
  121MOL     H729047   4.136   3.174   3.656  1.1646 -2.0848  1.5054
  121MOL     H829048   4.243   3.046   3.636  1.3724 -0.6489 -1.5642
  121MOL     H929049   4.369   3.194   3.470  2.1224 -2.5574  2.0283
  121MOL    H1029050   4.053   3.584   3.646  0.3023 -1.9077  1.1062
  121MOL    H1129051   4.071   3.543   3.480 -1.2691  0.3244  0.4491
  121MOL    H1229052   4.204   3.638   3.555  0.0040  0.3335  2.3898
  121MOL    H1329053   4.155   3.114   3.491 -1.2521 -2.9164  1.3729
  121MOL    C1429054   4.435   3.242   3.667  0.1228  0.0822 -0.4272
  121MOL    C1529055   4.567   3.169   3.629 -0.2708 -0.7476  0.5553
  121MOL    C1629056   4.569   3.020   3.639  0.5009 -1.0055  0.4341
  121MOL    O1729057   4.645   2.952   3.569 -0.0627  0.2478 -0.2487
  121MOL    O1829058   4.487   2.972   3.726  0.4186  0.1522 -0.0945
  121MOL    C1929059   4.478   2.830   3.739 -0.3643 -0.8242  0.3262
  121MOL    H2029060   4.485   3.339   3.676 -0.1219  0.1447  0.3169
  121MOL    H2129061   4.401   3.206   3.764  1.9233  0.2719  0.3075
  121MOL    H2229062   4.642   3.194   3.704  2.3285 -0.5880 -2.0322
  121MOL    H2329063   4.581   2.794   3.740  0.2236  0.6486 -2.7157
  121MOL    H2429064   4.424   2.796   3.651  0.0090  3.3360 -1.6339
  121MOL    H2529065   4.434   2.799   3.834 -0.2438  0.1640  0.7122
  121MOL    C2629066   4.633   3.223   3.498  0.1231 -0.1186 -0.1626
  121MOL    C2729067   4.768   3.292   3.500  0.1624  0.2567  0.5094
  121MOL    C2829068   4.765   3.408   3.602  0.1969 -0.2693 -0.5975
  121MOL    O2929069   4.741   3.520   3.556  0.4148 -0.2782  0.8301
  121MOL    O3029070   4.773   3.381   3.728  0.3251  0.5862  0.0401
  121MOL    C3129071   4.761   3.485   3.826 -0.6475 -0.3620  0.1933
  121MOL    H3229072   4.635   3.140   3.427  2.7310  0.7161 -1.1311
  121MOL    H3329073   4.562   3.289   3.448 -0.4553 -1.7065 -1.4852
  121MOL    H3429074   4.786   3.329   3.399  0.2302 -0.2380  0.3408
  121MOL    H3529075   4.764   3.440   3.925 -2.3758 -1.5291 -0.2719
  121MOL    H3629076   4.667   3.541   3.828  2.0404  4.6660 -2.5108
  121MOL    H3729077   4.833   3.567   3.814 -1.9720  1.1305  2.1988
  121MOL    C3829078   4.881   3.192   3.533 -0.5068  0.1533  0.5330
  121MOL    C3929079   5.025   3.245   3.561  0.4033 -0.3329 -0.1607
  121MOL    C4029080   5.113   3.143   3.633  0.2197 -0.2478 -0.9222
  121MOL    O4129081   5.184   3.066   3.574 -0.6795 -0.4283  0.1906
  121MOL    O4229082   5.080   3.128   3.760  0.0904  0.5418  0.4012
  121MOL    C4329083   5.150   3.031   3.830 -0.3009 -0.2295 -0.4271
  121MOL    H4429084   4.848   3.136   3.621 -0.8327  0.9109  0.8945
  121MOL    H4529085   4.881   3.113   3.457  0.6130  0.8039 -0.1479
  121MOL    H4629086   5.027   3.322   3.638  0.6062  0.1969 -0.6929
  121MOL    H4729087   5.104   2.934   3.814 -0.8166 -0.3147  1.4861
  121MOL    H4829088   5.151   3.062   3.934 -1.2051 -0.3062 -0.3975
  121MOL    H4929089   5.258   3.020   3.814 -0.3964  1.2838 -2.2376
  121MOL    C5029090   5.082   3.308   3.432 -0.4283  0.2462  0.1134
  121MOL    C5129091   5.231   3.314   3.383  0.1354 -0.6007  0.2685
  121MOL    C5229092   5.328   3.367   3.492  0.2262 -0.2125 -0.0350
  121MOL    O5329093   5.288   3.449   3.582 -0.5243  0.3389 -0.0105
  121MOL    O5429094   5.447   3.306   3.490  0.2173  0.5686 -0.4360
  121MOL    C5529095   5.555   3.345   3.573 -0.6125 -0.0217  0.3340
  121MOL    H5629096   5.022   3.276   3.347  0.3897 -1.6990  0.2301
  121MOL    H5729097   5.042   3.409   3.437  2.7853  1.9560 -4.8946
  121MOL    H5829098   5.243   3.395   3.310  1.1461 -0.4056  0.6385
  121MOL    H5929099   5.531   3.413   3.655 -0.8432  0.8488 -0.4475
  121MOL    H6029100   5.628   3.394   3.509  0.4556 -0.9453  0.8359
  121MOL    H6129101   5.607   3.255   3.606 -3.8301 -2.2866 -0.5597
  121MOL    C6229102   5.287   3.185   3.315 -0.3096  0.2867 -0.1894
  121MOL    C6329103   5.391   3.197   3.197  0.1599 -0.1473 -0.1715
  121MOL    C6429104   5.454   3.063   3.161 -0.1520 -0.1553  0.0790
  121MOL    O6529105   5.576   3.042   3.182 -0.1657 -0.5224  0.1323
  121MOL    O6629106   5.362   2.972   3.123 -0.2276  0.9438  0.1967
  121MOL    C6729107   5.403   2.846   3.082 -0.2459 -0.0674 -0.2915
  121MOL    H6829108   5.325   3.117   3.391 -0.9766 -0.5378 -0.5843
  121MOL    H6929109   5.198   3.133   3.279 -1.0688  0.4169  1.4456
  121MOL    H7029110   5.476   3.251   3.238  0.7090  0.1615 -1.7125
  121MOL    H7129111   5.435   2.857   2.979 -1.0875 -0.2364 -0.5748
  121MOL    H7229112   5.320   2.776   3.085 -0.2963 -0.0200 -0.5950
  121MOL    H7329113   5.487   2.806   3.140 -0.7834 -1.0074 -0.1515
  121MOL    C7429114   5.335   3.260   3.067  0.2112 -0.5601  0.8531
  121MOL    C7529115   5.424   3.254   2.940 -0.2952 -0.2073 -0.6534
  121MOL    C7629116   5.372   3.153   2.837 -0.6941 -0.0396 -0.5007
  121MOL    O7729117   5.437   3.053   2.807 -0.1743 -0.1339  0.3940
  121MOL    O7829118   5.259   3.199   2.786 -0.4374 -0.0628 -0.1507
  121MOL    C7929119   5.201   3.122   2.682  0.5710 -0.3992  0.1704
  121MOL    H8029120   5.238   3.217   3.046  0.2889 -0.0057 -0.7353
  121MOL    H8129121   5.311   3.365   3.083 -0.3611 -0.3039 -1.5808
  121MOL    H8229122   5.526   3.233   2.974 -0.0567  1.0578 -0.5486
  121MOL    H8329123   5.271   3.075   2.612 -0.1862 -0.8735 -0.2763
  121MOL    H8429124   5.129   3.188   2.634  1.0689 -0.1094 -0.1844
  121MOL    H8529125   5.148   3.037   2.726  0.0103  0.3279  0.9109
  121MOL    C8629126   5.434   3.401   2.885 -0.5629 -0.0897 -0.2380
  121MOL    C8729127   5.511   3.420   2.757 -0.1496 -0.6085  0.4899
  121MOL    C8829128   5.451   3.534   2.666 -0.8297  0.0624  0.1039
  121MOL    O8929129   5.392   3.502   2.561 -0.5993 -0.1702  0.6096
  121MOL    O9029130   5.469   3.662   2.714  0.6081 -0.6484  0.1287
  121MOL    C9129131   5.399   3.770   2.662 -0.0092  0.0084  0.1377
  121MOL    H9229132   5.330   3.429   2.868 -0.7611 -0.7818 -0.1457
  121MOL    H9329133   5.476   3.474   2.954 -0.6505  1.8482 -2.1629
  121MOL    H9429134   5.480   3.333   2.697 -0.6991  0.8224 -1.3509
  121MOL    H9529135   5.438   3.860   2.709  0.0614  0.1026 -0.0959
  121MOL    H9629136   5.291   3.762   2.678 -0.2695  1.4670 -0.6958
  121MOL    H9729137   5.409   3.772   2.553  1.5213  0.7426  0.2750
  121MOL    C9829138   5.664   3.422   2.774 -0.5632  0.0957 -0.0518
  121MOL    C9929139   5.739   3.334   2.676 -0.0066  0.2076 -0.4561
  121MOL   C10029140   5.750   3.363   2.524 -0.0713 -0.6985  0.8920
  121MOL   O10129141   5.770   3.271   2.442 -0.4204  0.3125 -0.6208
  121MOL   O10229142   5.724   3.490   2.485 -0.2914  0.0968  0.1712
  121MOL   C10329143   5.696   3.516   2.344  0.4734 -0.0367 -0.8647
  121MOL   H10429144   5.685   3.529   2.776 -0.9436  0.1574  0.9763
  121MOL   H10529145   5.680   3.390   2.877 -4.0648  1.2719  0.9528
  121MOL   H10629146   5.689   3.237   2.678 -1.8342  1.1218  0.0432
  121MOL   H10729147   5.679   3.623   2.335  0.8227  0.2282  1.3808
  121MOL   H10829148   5.611   3.458   2.308  1.6154 -2.1713 -0.1904
  121MOL   H10929149   5.778   3.488   2.278  1.7593  2.4944 -0.4117
  121MOL   C11029150   5.890   3.309   2.735  0.0056 -0.5522  0.1118
  121MOL   C11129151   5.963   3.439   2.787  0.2945 -0.1119 -0.1741
  121MOL   C11229152   6.068   3.415   2.895 -0.2546 -0.7186 -1.0088
  121MOL   O11329153   6.116   3.304   2.910  0.0241  0.5660 -0.7257
  121MOL   O11429154   6.112   3.536   2.950 -0.0260 -0.4719  0.1892
  121MOL   C11529155   6.205   3.539   3.057 -0.8016 -0.4976 -1.1901
  121MOL   H11629156   5.874   3.239   2.817 -0.6358  1.1240  1.4525
  121MOL   H11729157   5.954   3.267   2.657  0.2043  1.5891 -0.9318
  121MOL   H11829158   5.884   3.499   2.833  0.0416  0.3188 -1.1674
  121MOL   H11929159   6.306   3.528   3.019  0.2859  0.6820  1.1844
  121MOL   H12029160   6.184   3.461   3.131 -1.2560  0.5717 -0.1628
  121MOL   H12129161   6.197   3.631   3.116  0.4652 -0.8715 -0.4105
  121MOL   C12229162   6.013   3.535   2.674  0.1403 -0.2870 -0.0826
  121MOL   C12329163   5.996   3.684   2.692  0.1304 -0.7984 -0.0669
  121MOL   C12429164   6.123   3.759   2.740  0.0023 -0.6849 -0.0088
  121MOL   O12529165   6.129   3.842   2.832  0.0581  0.2432 -0.0462
  121MOL   O12629166   6.224   3.726   2.662 -0.8317 -0.5658 -0.1653
  121MOL   C12729167   6.341   3.799   2.674 -0.4779  0.2679  0.3614
  121MOL   H12829168   6.118   3.517   2.649  0.8849  1.8662  1.3066
  121MOL   H12929169   5.965   3.507   2.580 -0.5404 -0.3779  0.2936
  121MOL   H13029170   5.921   3.686   2.771 -1.3567 -0.1375 -1.4754
  121MOL   H13129171   6.329   3.903   2.705  1.2683  1.1628 -1.8295
  121MOL   H13229172   6.412   3.787   2.592 -0.6289 -0.6037  0.3525
  121MOL   H13329173   6.394   3.751   2.757 -0.8064 -1.8628 -0.6403
  121MOL   C13429174   5.938   3.752   2.563  0.2915  0.0451 -0.2340
  121MOL   C13529175   5.874   3.903   2.588 -0.5823 -0.6816  0.0280
  121MOL   C13629176   5.815   3.946   2.452 -0.7024  0.7020 -0.3330
  121MOL   O13729177   5.868   4.029   2.377 -0.2342  0.0847  0.1413
  121MOL   O13829178   5.704   3.874   2.422  0.5701  0.5421  0.1641
  121MOL   C13929179   5.647   3.873   2.296  0.0024 -0.1150 -0.7116
  121MOL   H14029180   6.020   3.756   2.492 -0.5446  1.7878 -1.1301
  121MOL   H14129181   5.865   3.688   2.515 -1.7455  0.5091  2.1244
  121MOL   H14229182   5.963   3.961   2.614  1.2521 -2.7025 -1.5398
  121MOL   H14329183   5.639   3.978   2.269  3.0784  0.6457  1.1121
  121MOL   H14429184   5.555   3.814   2.293 -1.7337  2.4633  0.2342
  121MOL   H14529185   5.716   3.838   2.219  0.2028 -2.4316  0.4880
  121MOL   C14629186   5.770   3.907   2.695  0.2634 -0.5222 -0.2771
  121MOL   C14729187   5.815   3.966   2.828  0.0153 -0.2223 -0.5048
  121MOL   C14829188   5.896   4.102   2.825  0.0846  0.0798 -0.5639
  121MOL   O14929189   5.875   4.193   2.743 -0.1884  0.1758 -0.2192
  121MOL   O15029190   5.992   4.103   2.915 -0.8233 -0.1623  0.6754
  121MOL   C15129191   6.077   4.212   2.915 -0.4100  0.1599 -0.0443
  121MOL   H15229192   5.684   3.966   2.666  0.3722  0.4708  1.3608
  121MOL   H15329193   5.735   3.806   2.715  0.4976 -0.6686 -0.5879
  121MOL   H15429194   5.878   3.889   2.873  1.6162  1.7979  0.7812
  121MOL   H15529195   6.173   4.172   2.946 -0.8430  0.2710  1.4862
  121MOL   H15629196   6.051   4.301   2.972 -0.5485 -0.2315  0.5104
  121MOL   H15729197   6.107   4.234   2.813  1.3159 -1.8946 -0.0260
  121MOL   C15829198   5.693   3.977   2.919  0.0014  0.2934  0.4463
  121MOL   C15929199   5.628   3.844   2.968  0.8576 -0.0680  0.0666
  121MOL   C16029200   5.731   3.751   3.037  0.3822 -0.9698  0.2577
  121MOL   O16129201   5.775   3.648   2.989  0.9839  0.4189 -0.1205
  121MOL   O16229202   5.779   3.795   3.157  0.1331  0.5588 -0.4892
  121MOL   C16329203   5.863   3.703   3.231  1.0786  0.0885  0.6614
  121MOL   H16429204   5.719   4.036   3.007  1.3059  0.2755  0.0845
  121MOL   H16529205   5.620   4.046   2.877  1.8207  1.9102 -0.1800
  121MOL   H16629206   5.583   3.800   2.879  1.2262  1.5688 -0.9608
  121MOL   H16729207   5.892   3.738   3.330 -0.2841  2.6130  0.2018
  121MOL   H16829208   5.958   3.675   3.184  0.8155  0.0276  0.1653
  121MOL   H16929209   5.807   3.612   3.247  1.2618 -0.2749 -0.7181
  121MOL   C17029210   5.511   3.880   3.068 -0.5449 -0.9215 -0.0610
  121MOL   C17129211   5.410   3.764   3.099 -0.1244 -0.7148  0.0034
  121MOL   C17229212   5.456   3.681   3.214  0.4263  0.2354  0.9146
  121MOL   O17329213   5.446   3.560   3.216  0.2855 -0.1102  0.0480
  121MOL   O17429214   5.513   3.748   3.316 -0.1629 -0.1730  0.2028
  121MOL   C17529215   5.568   3.679   3.428 -0.7449  0.3645 -0.0909
  121MOL   H17629216   5.539   3.943   3.153 -2.0134 -0.0738 -0.1819
  121MOL   H17729217   5.462   3.962   3.014  0.7365 -0.2351 -0.1942
  121MOL   H17829218   5.406   3.694   3.016  2.7304 -0.8105 -0.0867
  121MOL   H17929219   5.605   3.742   3.509  1.6492  1.9625 -2.3445
  121MOL   H18029220   5.648   3.609   3.408  0.3260  0.4072  3.7824
  121MOL   H18129221   5.493   3.616   3.477 -0.7231  0.5805  0.2238
  121MOL   C18229222   5.267   3.810   3.116 -0.4024 -0.2467 -0.1968
  121MOL   C18329223   5.166   3.697   3.091 -0.7032 -0.0129 -0.9065
  121MOL   C18429224   5.036   3.714   3.178 -0.5186 -0.2644 -0.6564
  121MOL   O18529225   5.013   3.627   3.262  0.7212  0.3627  0.4819
  121MOL   O18629226   4.966   3.823   3.154 -0.0107  0.4742  0.0675
  121MOL   C18729227   4.847   3.848   3.225  0.1770  0.2689  0.4615
  121MOL   H18829228   5.254   3.859   3.212  3.1877  0.2127  0.1165
  121MOL   H18929229   5.246   3.892   3.047  0.5518  0.2079  0.0536
  121MOL   H19029230   5.209   3.602   3.121 -2.7394 -1.1983 -1.5938
  121MOL   H19129231   4.861   3.847   3.333 -1.3493 -1.1147  0.6747
  121MOL   H19229232   4.761   3.785   3.199 -1.2704  2.0921  0.7321
  121MOL   H19329233   4.806   3.942   3.190 -1.4299  0.9443  3.9217
  121MOL   C19429234   5.118   3.686   2.944 -0.3434  0.1381  0.0311
  121MOL   C19529235   5.013   3.581   2.900  0.2534  0.9291  0.4168
  121MOL   C19629236   4.986   3.575   2.739 -0.1312 -0.6226  0.0125
  121MOL   O19729237   4.913   3.655   2.693 -0.6972 -0.6056 -0.4284
  121MOL   O19829238   5.064   3.487   2.681  0.6465 -0.2050  0.0603
  121MOL   C19929239   5.058   3.470   2.543  0.0672  0.2777 -0.0542
  121MOL   H20029240   5.092   3.783   2.901  2.4184  2.2197  2.7808
  121MOL   H20129241   5.207   3.656   2.888  0.5987 -0.2166  1.6784
  121MOL   H20229242   4.917   3.611   2.942  0.5218  0.4832  1.3849
  121MOL   H20329243   4.960   3.432   2.517  1.0188 -1.5383 -1.0800
  121MOL   H20429244   5.104   3.379   2.506 -1.8831 -0.4105 -0.8366
  121MOL   H20529245   5.079   3.558   2.481  1.2796  0.0983  0.0825
  121MOL   C20629246   5.035   3.432   2.961  0.0279 -1.1006 -0.8057
  121MOL   C20729247   4.907   3.349   2.981 -0.3724 -0.1988 -0.1896
  121MOL   C20829248   4.932   3.200   2.970 -0.6313 -1.0661 -0.0213
  121MOL   O20929249   4.914   3.150   2.864  0.2117 -0.1824  0.4226
  121MOL   O21029250   4.978   3.140   3.082 -0.3622 -0.2094  0.7558
  121MOL   C21129251   5.013   3.005   3.081 -0.9162  0.0688  0.5102
  121MOL   H21229252   5.100   3.372   2.897 -0.8222  0.7107 -3.4706
  121MOL   H21329253   5.089   3.426   3.055 -0.8078  0.5957 -0.1804
  121MOL   H21429254   4.848   3.374   2.893 -0.1203 -0.9983 -0.5985
  121MOL   H21529255   4.943   2.939   3.031 -0.6281 -2.2647  3.1345
  121MOL   H21629256   5.030   2.969   3.182 -1.7755  0.4686  0.7954
  121MOL   H21729257   5.104   2.985   3.024 -1.4739 -0.7520 -0.0900
  121MOL   C21829258   4.837   3.387   3.108  0.7091  0.4004 -0.5660
  121MOL   C21929259   4.681   3.384   3.109 -0.1311  0.0477  0.1010
  121MOL   C22029260   4.616   3.485   3.017  0.4309  0.5638 -0.1785
  121MOL   O22129261   4.524   3.447   2.942  0.1705 -0.2046  0.5227
  121MOL   O22229262   4.655   3.614   3.040 -0.1449  0.3959  0.1813
  121MOL   C22329263   4.607   3.729   2.972 -0.2107 -0.2808 -0.1699
  121MOL   H22429264   4.871   3.333   3.196  0.3463 -1.4577 -1.5358
  121MOL   H22529265   4.865   3.490   3.131 -2.6507  1.8181 -2.4758
  121MOL   H22629266   4.650   3.414   3.209 -0.2274 -0.4197  0.2114
  121MOL   H22729267   4.501   3.732   2.997 -0.2330 -0.6811 -0.2170
  121MOL   H22829268   4.614   3.706   2.865  1.2653 -0.2992 -0.0888
  121MOL   H22929269   4.658   3.821   3.001 -1.5007  0.2023  0.6220
  121MOL   C23029270   4.635   3.235   3.103  0.1006  0.7835  0.2596
  121MOL   C23129271   4.482   3.223   3.124 -0.4937  0.6459 -0.0097
  121MOL   C23229272   4.436   3.083   3.151  0.4856  0.0658  0.5046
  121MOL   O23329273   4.435   2.996   3.062  0.5599 -0.3086 -0.5638
  121MOL   O23429274   4.416   3.067   3.287 -0.1686  0.2842 -0.0489
  121MOL   C23529275   4.346   2.955   3.335 -0.1053  0.3674  0.3239
  121MOL   H23629276   4.662   3.185   3.010 -4.6530 -1.1546 -0.2197
  121MOL   H23729277   4.678   3.176   3.184 -0.0338  0.1868 -0.1005
  121MOL   H23829278   4.439   3.251   3.027  0.6958  0.5252 -0.5808
  121MOL   H23929279   4.242   2.952   3.304  0.3262  0.2979 -1.1948
  121MOL   H24029280   4.349   2.953   3.444 -1.7471 -0.1317  0.3723
  121MOL   H24129281   4.391   2.859   3.309  1.9363  0.8005  2.1051
  121MOL   H24229282   4.442   3.294   3.196  0.4012 -1.8310  3.0004
  122MOL     C129283   6.511   4.641   6.626 -0.0275 -0.2943 -0.3814
  122MOL     C229284   6.572   4.754   6.536  0.4409  0.1319 -0.2167
  122MOL     C329285   6.657   4.703   6.418  0.0569 -0.5778  0.4506
  122MOL     O429286   6.781   4.725   6.412 -0.0710  0.1732  0.0624
  122MOL     O529287   6.589   4.627   6.329 -0.0416 -0.6163 -0.7245
  122MOL     C629288   6.647   4.600   6.202 -0.3320  0.3644 -0.0047
  122MOL     H729289   6.459   4.668   6.718 -0.5801 -1.4728 -0.3301
  122MOL     H829290   6.591   4.576   6.662  1.4184  0.8248 -1.5248
  122MOL     H929291   6.637   4.807   6.607  2.1403 -0.2661 -1.4407
  122MOL    H1029292   6.667   4.693   6.149 -2.2488 -0.0898 -1.5883
  122MOL    H1129293   6.592   4.531   6.139  3.0790 -0.2396 -2.4583
  122MOL    H1229294   6.749   4.563   6.209 -0.1256  0.6101 -1.6956
  122MOL    H1329295   6.459   4.572   6.559 -1.4842  0.1173  0.3147
  122MOL    C1429296   6.478   4.864   6.493  0.2919 -0.1491 -0.5885
  122MOL    C1529297   6.532   5.013   6.476 -0.7342  0.0766  0.0946
  122MOL    C1629298   6.623   5.062   6.588  1.0688 -0.4171 -0.0174
  122MOL    O1729299   6.578   5.149   6.668  0.4545  0.0723  0.2685
  122MOL    O1829300   6.739   5.010   6.588 -0.3605  0.4422 -0.0867
  122MOL    C1929301   6.826   5.047   6.693 -0.4604  0.3041 -0.5749
  122MOL    H2029302   6.437   4.834   6.396 -0.6701 -0.8435  0.0315
  122MOL    H2129303   6.387   4.876   6.551  0.9190 -0.2115  0.4137
  122MOL    H2229304   6.452   5.085   6.490 -0.8518 -0.2162  0.9727
  122MOL    H2329305   6.844   5.152   6.717 -1.2880  0.3789 -0.2752
  122MOL    H2429306   6.910   4.976   6.691  0.4659  1.3391  0.7553
  122MOL    H2529307   6.782   5.009   6.785  0.4773 -1.6209 -0.8819
  122MOL    C2629308   6.594   5.041   6.336  0.3754  0.0101 -0.3036
  122MOL    C2729309   6.487   5.032   6.220  0.1689 -0.6569  0.2972
  122MOL    C2829310   6.402   5.166   6.222 -0.2971  0.4783 -0.0697
  122MOL    O2929311   6.291   5.164   6.273 -0.3284  0.3522  0.2718
  122MOL    O3029312   6.462   5.268   6.160 -0.3896 -0.3008 -0.3433
  122MOL    C3129313   6.388   5.382   6.134 -0.1566 -0.1686  1.0172
  122MOL    H3229314   6.637   5.140   6.330 -0.8400  0.5445 -0.3283
  122MOL    H3329315   6.670   4.964   6.320 -0.4514 -0.5847 -1.4586
  122MOL    H3429316   6.414   4.953   6.239 -1.8000  1.1198  0.1791
  122MOL    H3529317   6.283   5.370   6.108 -0.1574 -0.5667  1.1954
  122MOL    H3629318   6.445   5.421   6.050  1.4349  1.6819  2.8768
  122MOL    H3729319   6.377   5.447   6.221 -0.1485  1.2774 -0.0521
  122MOL    C3829320   6.545   4.999   6.084 -0.4524 -0.0306  0.2035
  122MOL    C3929321   6.460   4.926   5.976 -0.8343 -0.0521  0.3852
  122MOL    C4029322   6.314   4.941   5.999 -0.4069 -1.0339 -0.1462
  122MOL    O4129323   6.257   4.861   6.070 -0.4078  0.1378 -0.3366
  122MOL    O4229324   6.265   5.051   5.931  0.4802 -1.2307  0.0038
  122MOL    C4329325   6.129   5.079   5.944  0.5574 -0.1092 -0.5339
  122MOL    H4429326   6.580   5.090   6.034  1.1905 -0.5503  0.3828
  122MOL    H4529327   6.639   4.946   6.097  0.5872  1.0736 -2.3190
  122MOL    H4629328   6.476   4.821   6.000 -1.4606  0.2314  2.1042
  122MOL    H4729329   6.113   5.185   5.925 -1.4223 -0.3412 -0.2901
  122MOL    H4829330   6.096   5.058   6.046  0.4485  2.0096 -0.1111
  122MOL    H4929331   6.075   5.022   5.869 -0.3536  1.4198 -1.0706
  122MOL    C5029332   6.512   4.959   5.832  0.4317  0.6879 -0.7082
  122MOL    C5129333   6.609   4.847   5.776  0.3389  0.9253  0.2534
  122MOL    C5229334   6.740   4.830   5.849 -0.0443  0.2196  0.5890
  122MOL    O5329335   6.786   4.727   5.889  0.0110 -0.1041  0.0847
  122MOL    O5429336   6.794   4.950   5.867 -0.3353 -0.2459  0.1974
  122MOL    C5529337   6.927   4.954   5.916 -0.0672 -0.7668  0.0223
  122MOL    H5629338   6.427   4.980   5.767 -1.1060 -2.3660  0.2051
  122MOL    H5729339   6.568   5.052   5.827 -0.4550  1.3136  0.8052
  122MOL    H5829340   6.646   4.873   5.676 -2.9978 -0.3557 -1.4168
  122MOL    H5929341   6.947   4.870   5.982 -1.4234 -0.9820  0.1748
  122MOL    H6029342   6.950   5.050   5.963  0.8589 -0.3755 -1.2058
  122MOL    H6129343   6.996   4.947   5.832 -1.1537  0.1265 -0.9795
  122MOL    C6229344   6.542   4.712   5.743  0.2290 -0.1397  0.0345
  122MOL    C6329345   6.418   4.709   5.653 -0.0846 -0.7758  0.4457
  122MOL    C6429346   6.433   4.764   5.509  0.3928 -0.7567 -0.3953
  122MOL    O6529347   6.334   4.798   5.439 -0.1220  0.2752  0.3769
  122MOL    O6629348   6.557   4.753   5.472 -0.3666 -0.5888  0.5896
  122MOL    C6729349   6.599   4.788   5.341 -0.3008 -0.4102  1.0709
  122MOL    H6829350   6.620   4.646   5.706 -0.8183 -1.0541 -0.5643
  122MOL    H6929351   6.504   4.660   5.830 -0.6815  0.8504  0.2386
  122MOL    H7029352   6.347   4.782   5.691  0.2602 -0.0448 -0.2901
  122MOL    H7129353   6.597   4.894   5.317 -0.5294 -0.4866  0.7347
  122MOL    H7229354   6.545   4.733   5.263 -0.5676  1.1766  0.1210
  122MOL    H7329355   6.704   4.764   5.326 -0.0199  0.8004  1.0476
  122MOL    C7429356   6.361   4.567   5.641 -0.2080  0.1728 -0.1618
  122MOL    C7529357   6.271   4.512   5.754  0.2791 -1.1060 -0.6887
  122MOL    C7629358   6.150   4.600   5.780 -0.7795 -0.0535  0.0652
  122MOL    O7729359   6.136   4.659   5.885 -0.2749 -0.0686 -0.0432
  122MOL    O7829360   6.074   4.624   5.670 -0.2078  0.0924  0.2104
  122MOL    C7929361   5.973   4.716   5.688 -0.3216  0.6624  0.0502
  122MOL    H8029362   6.299   4.555   5.552 -0.1907 -1.6471  0.0429
  122MOL    H8129363   6.443   4.498   5.623 -0.7513 -0.9878  1.6690
  122MOL    H8229364   6.333   4.506   5.843  3.0342  1.5871 -2.3188
  122MOL    H8329365   5.960   4.757   5.588 -2.4231 -0.9150 -0.3524
  122MOL    H8429366   6.006   4.805   5.743  1.7453 -0.2006  0.2495
  122MOL    H8529367   5.885   4.665   5.727  0.8318 -0.8496  0.6829
  122MOL    C8629368   6.223   4.367   5.710 -0.5087 -0.3186  0.1362
  122MOL    C8729369   6.159   4.285   5.822 -0.5813 -0.4269 -0.2372
  122MOL    C8829370   6.076   4.171   5.764  0.5908 -0.0196 -0.3257
  122MOL    O8929371   6.114   4.117   5.664 -0.0281  0.9920 -0.3446
  122MOL    O9029372   5.978   4.130   5.838 -0.1466 -0.1717 -0.0520
  122MOL    C9129373   5.921   4.003   5.806  0.1759  0.4483  0.1930
  122MOL    H9229374   6.155   4.375   5.624 -1.0061 -0.2465  0.5360
  122MOL    H9329375   6.303   4.305   5.671 -0.5466 -0.1114 -0.2812
  122MOL    H9429376   6.079   4.347   5.863  0.6989  0.0211  1.6526
  122MOL    H9529377   5.832   3.983   5.866  2.1927 -0.2051  3.0980
  122MOL    H9629378   5.984   3.921   5.841  1.1953  1.2098  0.1893
  122MOL    H9729379   5.895   3.990   5.701  0.6916 -0.6369  0.2014
  122MOL    C9829380   6.253   4.241   5.938  0.4125  0.0342 -0.5976
  122MOL    C9929381   6.210   4.281   6.080 -0.2694  0.4662  0.1625
  122MOL   C10029382   6.103   4.178   6.135  0.1614  0.5771 -0.0843
  122MOL   O10129383   6.139   4.062   6.145 -0.5386  0.0698  0.4678
  122MOL   O10229384   5.980   4.227   6.151  0.2434 -0.0917 -0.0638
  122MOL   C10329385   5.879   4.139   6.181  0.0630 -0.3651 -0.0072
  122MOL   H10429386   6.259   4.132   5.944  1.4721  0.1082 -0.2561
  122MOL   H10529387   6.347   4.286   5.906  0.4365 -0.8397 -1.7528
  122MOL   H10629388   6.147   4.370   6.077 -0.9883 -0.0229  0.6972
  122MOL   H10729389   5.915   4.072   6.260 -1.7172 -0.2365  0.9255
  122MOL   H10829390   5.857   4.089   6.087 -3.6532 -0.2723  0.7554
  122MOL   H10929391   5.781   4.179   6.207 -0.9910 -2.2363 -1.0072
  122MOL   C11029392   6.317   4.290   6.187 -0.3186  0.6924 -0.5386
  122MOL   C11129393   6.282   4.356   6.319 -0.1410 -0.2427 -0.1536
  122MOL   C11229394   6.400   4.334   6.418 -0.1122  0.3878 -0.1207
  122MOL   O11329395   6.515   4.358   6.382  0.0408  0.0157  0.9264
  122MOL   O11429396   6.359   4.302   6.542 -0.2028  0.0415 -0.2433
  122MOL   C11529397   6.461   4.274   6.646  0.3428 -0.8249  0.8441
  122MOL   H11629398   6.372   4.200   6.217  1.0524  1.7459  0.1711
  122MOL   H11729399   6.396   4.348   6.139 -0.2727  2.0004  1.1209
  122MOL   H11829400   6.202   4.294   6.359  0.8123 -0.4845  1.4136
  122MOL   H11929401   6.412   4.269   6.743 -1.6211 -0.6930 -0.1058
  122MOL   H12029402   6.544   4.344   6.644  0.6209 -1.1047  2.5901
  122MOL   H12129403   6.509   4.176   6.639 -0.4653 -1.2394  0.9676
  122MOL   C12229404   6.244   4.507   6.318  0.1386  0.4318  0.1579
  122MOL   C12329405   6.139   4.539   6.427  0.0833 -0.4993  0.0812
  122MOL   C12429406   6.143   4.690   6.466  0.5085  0.0297  0.3498
  122MOL   O12529407   6.135   4.719   6.590  0.2979  0.2432  0.2909
  122MOL   O12629408   6.136   4.772   6.364  0.4118 -0.2874 -0.1858
  122MOL   C12729409   6.133   4.909   6.392  0.2131  0.2908 -0.8497
  122MOL   H12829410   6.340   4.557   6.329  0.0192  0.2841  2.1573
  122MOL   H12929411   6.205   4.544   6.223  0.0484  0.0995  0.0652
  122MOL   H13029412   6.168   4.487   6.518  0.5515 -2.7245 -1.2939
  122MOL   H13129413   6.237   4.936   6.405 -0.5737  1.8570  2.9274
  122MOL   H13229414   6.082   4.945   6.482  0.4402  1.6261 -1.2342
  122MOL   H13329415   6.090   4.950   6.300 -1.6941 -0.7253 -0.4557
  122MOL   C13429416   5.999   4.498   6.398  0.7447 -0.5603 -0.3787
  122MOL   C13529417   5.890   4.510   6.513  0.4228 -0.2562 -0.6802
  122MOL   C13629418   5.789   4.626   6.488 -0.1049 -0.2827  0.0765
  122MOL   O13729419   5.686   4.598   6.427  0.9586 -0.8185  0.1898
  122MOL   O13829420   5.842   4.748   6.516  0.0121 -0.2544  0.0751
  122MOL   C13929421   5.773   4.859   6.481  0.4034 -0.1155 -0.0329
  122MOL   H14029422   5.970   4.552   6.308  1.3726  1.3547  0.5450
  122MOL   H14129423   6.000   4.391   6.375 -1.4898 -0.2557 -2.0648
  122MOL   H14229424   5.948   4.527   6.604 -0.9252 -0.3489  0.2017
  122MOL   H14329425   5.801   4.893   6.382  2.0692 -0.5314  0.2631
  122MOL   H14429426   5.800   4.933   6.556 -1.9439 -0.4994  1.2389
  122MOL   H14529427   5.666   4.859   6.500  0.2087 -2.5182 -0.9146
  122MOL   C14629428   5.813   4.381   6.544  0.0913 -0.9355 -0.2984
  122MOL   C14729429   5.900   4.266   6.591  0.0796 -0.3926  0.8618
  122MOL   C14829430   5.946   4.275   6.735 -0.2094 -0.0334  0.5440
  122MOL   O14929431   6.066   4.293   6.752 -0.2761 -0.5046  0.4543
  122MOL   O15029432   5.842   4.269   6.828  0.0097  0.2343  0.1239
  122MOL   C15129433   5.887   4.272   6.964  0.5225 -0.3225  0.2017
  122MOL   H15229434   5.734   4.390   6.619 -1.2443 -0.7855 -1.6816
  122MOL   H15329435   5.761   4.357   6.451 -1.2463 -0.3730  0.2861
  122MOL   H15429436   5.995   4.267   6.538 -0.0186 -1.1423  0.6690
  122MOL   H15529437   5.833   4.200   7.026 -0.3068  1.5404  1.6837
  122MOL   H15629438   5.873   4.371   7.006  0.8115 -0.0072 -0.4280
  122MOL   H15729439   5.992   4.243   6.976  0.1825 -2.6283 -1.8795
  122MOL   C15829440   5.818   4.132   6.576 -0.6193 -0.1551 -0.1849
  122MOL   C15929441   5.897   4.000   6.606 -0.8310 -0.0908 -0.2144
  122MOL   C16029442   5.796   3.884   6.578  0.2325 -0.0584  0.5356
  122MOL   O16129443   5.813   3.799   6.489  0.0151  0.2500 -0.2987
  122MOL   O16229444   5.703   3.874   6.669  0.3024 -0.3526 -0.0099
  122MOL   C16329445   5.595   3.793   6.651  0.3295  0.0765  0.1439
  122MOL   H16429446   5.734   4.134   6.644 -0.2037 -2.2270  0.3955
  122MOL   H16529447   5.766   4.123   6.480 -0.6973  1.1454 -0.2770
  122MOL   H16629448   5.920   4.005   6.712  0.3154 -0.1053 -0.4610
  122MOL   H16729449   5.576   3.723   6.732  0.2923  0.4779  0.4864
  122MOL   H16829450   5.596   3.738   6.557  0.9419  0.2864  0.0304
  122MOL   H16929451   5.523   3.876   6.646  0.5772  0.3213  0.5737
  122MOL   C17029452   6.030   3.989   6.530 -0.6377 -0.3634  0.3532
  122MOL   C17129453   6.122   3.866   6.565  0.2549  0.9658  0.3071
  122MOL   C17229454   6.202   3.825   6.440  0.5213  0.4056  0.2780
  122MOL   O17329455   6.182   3.713   6.388  0.0961  0.2893  0.5339
  122MOL   O17429456   6.291   3.920   6.409  0.3386 -0.3366 -0.7944
  122MOL   C17529457   6.391   3.901   6.314  0.5445 -0.4088 -0.3672
  122MOL   H17629458   6.003   3.993   6.424 -1.2510  0.7387  0.5506
  122MOL   H17729459   6.088   4.081   6.543 -0.2202 -0.7542  1.3224
  122MOL   H17829460   6.066   3.779   6.598  2.2942 -0.4883 -0.0351
  122MOL   H17929461   6.451   3.813   6.337  0.8447 -0.3249 -0.8292
  122MOL   H18029462   6.447   3.994   6.308  0.0165  0.0639  1.6624
  122MOL   H18129463   6.346   3.890   6.215 -0.9535 -0.6935  0.3362
  122MOL   C18229464   6.222   3.899   6.684 -0.6045 -0.5509 -0.3915
  122MOL   C18329465   6.158   3.901   6.828  0.0007  0.0268  0.3578
  122MOL   C18429466   6.071   3.775   6.852  0.2729 -0.6510 -0.0365
  122MOL   O18529467   5.962   3.779   6.905  0.7836  0.9533 -0.0488
  122MOL   O18629468   6.143   3.666   6.819 -0.0627  0.2095 -0.0757
  122MOL   C18729469   6.101   3.533   6.845  0.0908  0.0377 -0.8386
  122MOL   H18829470   6.289   3.814   6.692  1.1695  0.8553 -0.0313
  122MOL   H18929471   6.285   3.987   6.670 -0.7272 -0.1550  1.3700
  122MOL   H19029472   6.087   3.984   6.827 -0.2244 -0.1701  0.1403
  122MOL   H19129473   6.185   3.465   6.833 -0.0066 -0.3763  0.7169
  122MOL   H19229474   6.034   3.494   6.768 -1.3695  0.6623  0.1011
  122MOL   H19329475   6.057   3.516   6.943 -0.6312 -0.1497 -1.1919
  122MOL   C19429476   6.250   3.916   6.962 -0.2055  0.6696 -0.5366
  122MOL   C19529477   6.362   3.816   6.992 -0.2959  0.4139 -0.2091
  122MOL   C19629478   6.475   3.807   6.882  0.3145  0.3083 -0.4356
  122MOL   O19729479   6.490   3.703   6.818 -0.5053 -0.0558 -0.3206
  122MOL   O19829480   6.535   3.927   6.862 -0.2118 -0.5266 -0.4989
  122MOL   C19929481   6.639   3.929   6.774  0.5818  0.3867  0.6737
  122MOL   H20029482   6.297   4.014   6.967  1.7813 -0.1990 -1.4785
  122MOL   H20129483   6.186   3.921   7.050 -1.0811  0.7624 -1.1681
  122MOL   H20229484   6.308   3.721   6.989 -0.9148  0.8075 -2.0807
  122MOL   H20329485   6.666   4.033   6.755  1.9384 -0.6133 -3.4293
  122MOL   H20429486   6.616   3.887   6.676  0.8696  0.2107  0.6822
  122MOL   H20529487   6.729   3.878   6.808 -0.2569 -1.7418 -0.2094
  122MOL   C20629488   6.431   3.837   7.137  0.2235 -0.3591  0.4035
  122MOL   C20729489   6.528   3.958   7.154  0.6680  0.0950  0.0418
  122MOL   C20829490   6.454   4.091   7.163 -0.4646 -0.3145 -0.6067
  122MOL   O20929491   6.393   4.118   7.264 -0.0195  0.1456 -0.0490
  122MOL   O21029492   6.480   4.174   7.053  0.7159 -0.2227 -0.1978
  122MOL   C21129493   6.417   4.302   7.060 -0.7058 -0.0746  0.7718
  122MOL   H21229494   6.349   3.843   7.208 -0.2863  1.0377 -0.2844
  122MOL   H21329495   6.481   3.744   7.163  0.5996  0.1861  1.6686
  122MOL   H21429496   6.587   3.955   7.063  0.3281 -0.6661 -0.1540
  122MOL   H21529497   6.309   4.293   7.051 -0.2232 -2.9374 -3.8899
  122MOL   H21629498   6.460   4.371   6.988 -0.7579 -0.0338  0.7811
  122MOL   H21729499   6.426   4.342   7.161  1.7937  2.0470 -0.2210
  122MOL   C21829500   6.628   3.937   7.265 -0.0403  0.0802 -0.0710
  122MOL   C21929501   6.723   3.819   7.241 -0.4151  0.3935 -0.1371
  122MOL   C22029502   6.841   3.845   7.145 -0.8320  0.3976 -0.2408
  122MOL   O22129503   6.835   3.823   7.026 -0.1062  0.5469 -0.0825
  122MOL   O22229504   6.952   3.889   7.209 -0.0692 -0.1551 -0.3293
  122MOL   C22329505   7.076   3.865   7.143  1.4415 -0.1438 -0.6574
  122MOL   H22429506   6.694   4.023   7.275  1.4091 -0.9366 -0.7967
  122MOL   H22529507   6.565   3.913   7.351  0.1153 -4.3095 -1.0677
  122MOL   H22629508   6.678   3.742   7.178  2.0604 -0.9884 -0.2786
  122MOL   H22729509   7.147   3.913   7.210  1.5869 -0.9477 -0.2285
  122MOL   H22829510   7.073   3.908   7.043 -1.8583  0.7113 -0.2337
  122MOL   H22929511   7.093   3.758   7.131  1.2319 -0.1954 -0.4765
  122MOL   C23029512   6.758   3.758   7.379 -1.0439  0.6691  0.5247
  122MOL   C23129513   6.848   3.633   7.385  0.3374 -0.3148  0.2383
  122MOL   C23229514   6.794   3.520   7.299  0.0386 -0.2693  0.4408
  122MOL   O23329515   6.673   3.491   7.299 -0.0765 -0.2886  0.2680
  122MOL   O23429516   6.880   3.476   7.221  0.1840 -0.3028  0.2364
  122MOL   C23529517   6.849   3.358   7.138  0.0645  0.0754 -0.9499
  122MOL   H23629518   6.808   3.836   7.437 -1.7274  1.5579 -0.0494
  122MOL   H23729519   6.659   3.737   7.420 -0.0794 -3.1114  1.0529
  122MOL   H23829520   6.865   3.598   7.486  0.1907  3.1949  1.5699
  122MOL   H23929521   6.815   3.276   7.200 -0.1636  1.0799  0.2711
  122MOL   H24029522   6.941   3.322   7.092 -0.7392 -2.1178 -0.8869
  122MOL   H24129523   6.759   3.378   7.079 -1.1431  2.2813  1.5127
  122MOL   H24229524   6.943   3.664   7.341 -0.2755  0.0698 -0.8513
  123MOL     C129525   2.736   3.391   3.170 -0.3709  0.1178  0.2261
  123MOL     C229526   2.772   3.240   3.171  1.1015  0.3181  0.1936
  123MOL     C329527   2.776   3.184   3.313 -0.2011  0.7579 -0.3085
  123MOL     O429528   2.738   3.243   3.414 -0.1889  0.4656  0.5753
  123MOL     O529529   2.828   3.060   3.322 -0.1755 -0.2370  0.1563
  123MOL     C629530   2.827   3.002   3.453  0.0242 -0.4521 -0.1450
  123MOL     H729531   2.775   3.444   3.256 -0.7229  0.9206 -0.1046
  123MOL     H829532   2.629   3.411   3.175  0.3690  4.4209  0.4533
  123MOL     H929533   2.873   3.223   3.133  0.5200  0.7809 -1.6158
  123MOL    H1029534   2.727   3.006   3.495 -0.3806 -2.2287 -0.9078
  123MOL    H1129535   2.898   3.056   3.515  1.2691 -0.6129 -1.3994
  123MOL    H1229536   2.866   2.900   3.447  1.1907 -0.0614  0.6246
  123MOL    H1329537   2.778   3.443   3.084  0.6300 -1.8699 -0.5208
  123MOL    C1429538   2.679   3.162   3.072  0.8185  0.4107 -0.3036
  123MOL    C1529539   2.714   3.180   2.926  0.3055 -0.8574  0.4392
  123MOL    C1629540   2.849   3.123   2.891 -0.0496  0.4311 -0.3080
  123MOL    O1729541   2.917   3.049   2.966  0.7832  0.0296  0.6614
  123MOL    O1829542   2.882   3.154   2.769  0.0146 -0.0471 -0.2306
  123MOL    C1929543   2.983   3.080   2.704  0.3700 -0.0877 -0.6501
  123MOL    H2029544   2.674   3.056   3.097  1.7276  0.2215 -0.8908
  123MOL    H2129545   2.578   3.191   3.101  0.5757 -2.5598  1.9360
  123MOL    H2229546   2.715   3.289   2.921  0.8832 -0.7411  2.4104
  123MOL    H2329547   3.064   3.070   2.777 -0.4943  1.4464  0.5503
  123MOL    H2429548   3.023   3.143   2.625 -1.2656  0.9529 -0.6910
  123MOL    H2529549   2.956   2.984   2.661 -0.5225 -0.2374  0.2145
  123MOL    C2629550   2.601   3.134   2.832 -0.1873 -0.4119  0.5981
  123MOL    C2729551   2.466   3.215   2.851  0.5457 -0.3806  0.1832
  123MOL    C2829552   2.490   3.375   2.838  0.5079 -0.6287  0.6869
  123MOL    O2929553   2.528   3.421   2.730  0.3160  0.1134 -0.1326
  123MOL    O3029554   2.454   3.441   2.952  0.2730  0.2251 -0.1764
  123MOL    C3129555   2.469   3.577   2.959 -0.4925  0.1691  0.2415
  123MOL    H3229556   2.626   3.152   2.727  0.3793 -2.0725  0.4283
  123MOL    H3329557   2.580   3.027   2.836  0.7572 -0.6824 -0.9616
  123MOL    H3429558   2.433   3.207   2.954 -0.8450 -0.9611 -0.2967
  123MOL    H3529559   2.543   3.617   2.889  0.8287  1.0598  2.1188
  123MOL    H3629560   2.508   3.593   3.059  1.4308  0.0805 -0.4710
  123MOL    H3729561   2.372   3.625   2.943 -1.0824 -0.8641  0.7048
  123MOL    C3829562   2.371   3.168   2.744 -0.3289 -0.4919 -0.6342
  123MOL    C3929563   2.225   3.234   2.742 -0.8019  1.0577  0.0933
  123MOL    C4029564   2.169   3.202   2.603  0.1802 -0.3244 -0.4871
  123MOL    O4129565   2.182   3.096   2.544 -0.8421 -0.3292  0.1930
  123MOL    O4229566   2.111   3.310   2.553  0.0628 -0.9225  0.4151
  123MOL    C4329567   2.078   3.330   2.416  0.3768 -0.1439 -0.2411
  123MOL    H4429568   2.413   3.181   2.644  0.8469 -1.0819 -0.2295
  123MOL    H4529569   2.361   3.060   2.754  2.6192 -0.6807  0.6764
  123MOL    H4629570   2.228   3.343   2.753  0.5117  0.9077  1.3678
  123MOL    H4729571   2.005   3.253   2.390 -0.7383  1.4107 -1.8405
  123MOL    H4829572   2.170   3.313   2.360 -0.6943  0.8819 -2.3606
  123MOL    H4929573   2.043   3.428   2.384  0.2449 -0.0156  0.2852
  123MOL    C5029574   2.142   3.184   2.863 -0.7586 -0.9614  0.0198
  123MOL    C5129575   2.033   3.282   2.919 -0.5414  0.9156 -0.2094
  123MOL    C5229576   1.949   3.357   2.814 -0.0726 -0.4752  0.3614
  123MOL    O5329577   1.965   3.482   2.804  0.1787  0.8180  0.2133
  123MOL    O5429578   1.852   3.287   2.750  0.1918  0.6235  0.2679
  123MOL    C5529579   1.785   3.348   2.643 -0.5663 -0.3011 -0.2306
  123MOL    H5629580   2.095   3.096   2.821  0.4516  0.1831 -3.9593
  123MOL    H5729581   2.219   3.153   2.934  0.0145  0.3870 -0.1994
  123MOL    H5829582   2.087   3.358   2.975 -1.2053  0.0987  1.5621
  123MOL    H5929583   1.836   3.437   2.606 -2.3833 -0.1564 -2.4821
  123MOL    H6029584   1.682   3.373   2.668  0.8132  3.5488  2.0859
  123MOL    H6129585   1.776   3.280   2.558  0.9543 -0.8795  0.0413
  123MOL    C6229586   1.928   3.215   3.015  0.0074  0.2820  0.1267
  123MOL    C6329587   1.972   3.111   3.121  0.4892  0.5026  0.2144
  123MOL    C6429588   2.087   3.153   3.209 -0.4676  0.1121  0.7965
  123MOL    O6529589   2.140   3.262   3.193 -0.1125 -0.2203  0.0271
  123MOL    O6629590   2.124   3.061   3.302  0.2961 -0.3607  0.1175
  123MOL    C6729591   2.235   3.104   3.383  0.3360  0.4180  0.1500
  123MOL    H6829592   1.883   3.305   3.057  3.9424  2.4212  0.0457
  123MOL    H6929593   1.844   3.172   2.961 -0.8467  2.1757 -0.1117
  123MOL    H7029594   2.011   3.031   3.057 -0.8723 -0.5479  0.6750
  123MOL    H7129595   2.205   3.185   3.449 -1.3015 -0.3546  0.3701
  123MOL    H7229596   2.317   3.127   3.314  0.1565 -0.3710 -0.3365
  123MOL    H7329597   2.284   3.026   3.442 -3.3008  0.0504  2.8551
  123MOL    C7429598   1.858   3.039   3.195 -0.1434 -0.1514 -0.7253
  123MOL    C7529599   1.846   2.890   3.169 -0.1563 -0.0772  0.5161
  123MOL    C7629600   1.960   2.809   3.239  0.0226  0.5418  0.1884
  123MOL    O7729601   1.960   2.775   3.359 -0.1518 -0.0812  0.4716
  123MOL    O7829602   2.070   2.787   3.159 -0.4106 -0.1802  0.1053
  123MOL    C7929603   2.188   2.737   3.205  0.2290 -0.1370 -0.6575
  123MOL    H8029604   1.840   3.066   3.299  3.1783 -1.9885  0.3840
  123MOL    H8129605   1.762   3.071   3.155 -0.3037 -0.3808 -0.5243
  123MOL    H8229606   1.848   2.873   3.062 -1.9302  1.3365  0.2272
  123MOL    H8329607   2.271   2.767   3.141 -0.1176  0.4374 -0.8481
  123MOL    H8429608   2.178   2.629   3.213  0.6339 -0.1302 -0.0529
  123MOL    H8529609   2.196   2.781   3.304  0.0267  1.2071 -1.2226
  123MOL    C8629610   1.712   2.836   3.215  0.1077 -0.0692 -0.0492
  123MOL    C8729611   1.692   2.686   3.210  0.2114  0.2596 -0.1614
  123MOL    C8829612   1.548   2.653   3.266  0.1313  0.1406  0.6924
  123MOL    O8929613   1.458   2.742   3.290 -0.1906 -0.1014 -0.0464
  123MOL    O9029614   1.536   2.524   3.294 -0.1214 -0.1300  0.2801
  123MOL    C9129615   1.418   2.457   3.343 -0.0779 -0.6671  0.0602
  123MOL    H9229616   1.695   2.873   3.316  1.0793 -1.5370  0.6837
  123MOL    H9329617   1.638   2.898   3.165 -1.7839  0.0258  2.7799
  123MOL    H9429618   1.765   2.630   3.268  0.7214  0.3411 -0.7343
  123MOL    H9529619   1.433   2.430   3.447  0.8721 -2.6685 -0.5761
  123MOL    H9629620   1.416   2.365   3.285  0.6735 -0.0686 -0.9427
  123MOL    H9729621   1.323   2.510   3.335 -1.2639 -2.5728  1.3295
  123MOL    C9829622   1.713   2.633   3.060 -0.1365 -0.1063  0.0176
  123MOL    C9929623   1.693   2.483   3.042 -0.9327  0.0259  0.0408
  123MOL   C10029624   1.690   2.438   2.896 -1.0742 -0.8380  0.5707
  123MOL   O10129625   1.587   2.396   2.852 -0.4245  0.7902  0.6512
  123MOL   O10229626   1.805   2.452   2.834 -0.1183  0.5271 -0.1014
  123MOL   C10329627   1.822   2.394   2.704  0.0568 -0.0917  0.1812
  123MOL   H10429628   1.634   2.685   3.005 -1.0500 -0.8236  0.6322
  123MOL   H10529629   1.813   2.656   3.023  0.1558 -1.9765 -0.3899
  123MOL   H10629630   1.600   2.445   3.085 -1.5069 -0.4426 -1.5687
  123MOL   H10729631   1.833   2.285   2.705  1.0386 -0.0437 -1.9902
  123MOL   H10829632   1.908   2.446   2.662  1.5540  0.3510  3.6520
  123MOL   H10929633   1.744   2.420   2.633  1.2221  2.4138 -0.2478
  123MOL   C11029634   1.808   2.405   3.108 -0.3097  0.4554  0.4953
  123MOL   C11129635   1.800   2.254   3.085 -0.5666 -0.1159 -0.3406
  123MOL   C11229636   1.928   2.185   3.135 -0.4816 -0.0939 -0.2028
  123MOL   O11329637   1.932   2.140   3.253 -0.0790  0.3839  0.1763
  123MOL   O11429638   2.029   2.189   3.051 -0.0840  0.5197  0.1717
  123MOL   C11529639   2.148   2.114   3.069  0.7973 -0.1887 -0.0132
  123MOL   H11629640   1.903   2.437   3.065  0.3255 -0.2208  1.3703
  123MOL   H11729641   1.813   2.420   3.216 -0.0697  1.1606  0.3887
  123MOL   H11829642   1.795   2.222   2.981 -0.0764  0.1745 -0.4576
  123MOL   H11929643   2.225   2.153   3.002 -0.2466 -0.7357 -1.5577
  123MOL   H12029644   2.139   2.006   3.054  1.3780 -0.3109  0.4911
  123MOL   H12129645   2.188   2.146   3.165  1.2715  2.8312 -1.1662
  123MOL   C12229646   1.685   2.190   3.163  0.6064  1.0811 -0.0924
  123MOL   C12329647   1.660   2.039   3.131  0.4979 -0.4140 -1.1507
  123MOL   C12429648   1.632   1.946   3.244 -0.4818  0.1279 -0.3809
  123MOL   O12529649   1.712   1.862   3.271 -0.4425  0.0476  0.4668
  123MOL   O12629650   1.522   1.984   3.308 -0.1749 -0.8396 -1.0278
  123MOL   C12729651   1.470   1.915   3.420 -0.3433 -0.1744 -0.2486
  123MOL   H12829652   1.697   2.205   3.270  0.3848  0.9705 -0.0500
  123MOL   H12929653   1.592   2.245   3.148  0.7159  1.3359  0.1717
  123MOL   H13029654   1.759   2.003   3.104  1.7939  1.7949  0.5462
  123MOL   H13129655   1.398   1.839   3.389  0.6427 -1.8991  1.6401
  123MOL   H13229656   1.413   1.976   3.490  0.1522 -1.8579  1.6398
  123MOL   H13329657   1.542   1.860   3.480  0.5745 -0.9834 -2.0495
  123MOL   C13429658   1.571   2.015   3.006 -0.5597  0.1648 -0.2335
  123MOL   C13529659   1.609   1.873   2.945 -0.9201 -0.5821 -0.1194
  123MOL   C13629660   1.473   1.806   2.907 -0.9644  0.0045  0.0032
  123MOL   O13729661   1.435   1.706   2.967  0.2555 -0.6281 -0.4099
  123MOL   O13829662   1.416   1.864   2.798  0.0922  0.1243 -0.1669
  123MOL   C13929663   1.316   1.793   2.727 -0.1204 -0.6746  0.1211
  123MOL   H14029664   1.472   2.027   3.050  0.2090 -0.9294  1.8363
  123MOL   H14129665   1.592   2.091   2.930  0.9954 -1.5358 -1.5537
  123MOL   H14229666   1.657   1.810   3.019 -0.2974  0.4732  0.3777
  123MOL   H14329667   1.360   1.708   2.674  0.5630  0.9856 -2.0578
  123MOL   H14429668   1.290   1.863   2.648 -0.0695  0.2320  0.9104
  123MOL   H14529669   1.224   1.766   2.777  0.7290 -0.9595  1.5534
  123MOL   C14629670   1.705   1.880   2.818 -0.4116 -0.1639 -0.3036
  123MOL   C14729671   1.855   1.903   2.831  0.3109 -0.1988  0.1690
  123MOL   C14829672   1.914   1.785   2.906 -0.2658  0.3079 -0.6199
  123MOL   O14929673   1.849   1.686   2.947 -0.0977  0.3471 -0.0209
  123MOL   O15029674   2.045   1.800   2.930  0.3481 -0.0828  0.0512
  123MOL   C15129675   2.123   1.713   3.008  0.7364  0.2400 -0.1680
  123MOL   H15229676   1.696   1.781   2.774 -1.5352 -0.4999  0.6400
  123MOL   H15329677   1.659   1.936   2.736 -0.1447 -0.8946 -0.9572
  123MOL   H15429678   1.881   1.991   2.890 -2.1685  0.0992  0.8779
  123MOL   H15529679   2.220   1.698   2.962  0.3773  1.3940 -1.3374
  123MOL   H15629680   2.066   1.621   3.020 -0.1827  0.6849 -1.0585
  123MOL   H15729681   2.137   1.750   3.110  1.2456  1.1400 -0.5551
  123MOL   C15829682   1.929   1.936   2.696 -0.4786 -0.8239 -0.3897
  123MOL   C15929683   1.921   1.829   2.580 -0.3454  0.1023  0.2288
  123MOL   C16029684   1.801   1.850   2.489  0.8020 -0.6356  0.3436
  123MOL   O16129685   1.793   1.959   2.427  0.1345 -0.3159 -0.1435
  123MOL   O16229686   1.726   1.738   2.472 -0.0322 -0.0246 -0.0780
  123MOL   C16329687   1.607   1.750   2.390  0.3357 -0.6055  0.3967
  123MOL   H16429688   1.894   2.030   2.654 -0.1349 -0.5104  0.0158
  123MOL   H16529689   2.029   1.968   2.728 -0.1830 -3.3392  1.4165
  123MOL   H16629690   1.911   1.734   2.631 -0.9523  0.8040  1.4334
  123MOL   H16729691   1.604   1.672   2.314 -0.4461 -1.4621  1.2927
  123MOL   H16829692   1.593   1.845   2.339 -0.1291  0.1045  1.8131
  123MOL   H16929693   1.523   1.736   2.458  1.2378  1.0707  1.9268
  123MOL   C17029694   2.060   1.831   2.495 -0.1545  0.7954  0.3699
  123MOL   C17129695   2.185   1.793   2.585 -0.1291  0.3652  0.3431
  123MOL   C17229696   2.184   1.640   2.616  0.1848  0.2640  0.1789
  123MOL   O17329697   2.122   1.555   2.551  0.4884  0.3354 -0.3966
  123MOL   O17429698   2.247   1.618   2.733 -0.2186 -0.0514  0.0336
  123MOL   C17529699   2.230   1.490   2.791 -0.7839 -0.0144 -0.2969
  123MOL   H17629700   2.071   1.775   2.402 -0.2939 -1.2526  1.5619
  123MOL   H17729701   2.086   1.933   2.468  2.1287 -0.0596 -0.8362
  123MOL   H17829702   2.170   1.839   2.682  3.1778  1.5162  0.3604
  123MOL   H17929703   2.264   1.483   2.895 -0.3550 -3.2751 -0.5876
  123MOL   H18029704   2.275   1.409   2.733 -1.0362  0.0876 -0.6337
  123MOL   H18129705   2.125   1.463   2.802 -0.7290 -0.3597 -0.5946
  123MOL   C18229706   2.320   1.844   2.533  0.1993  0.0325  0.2286
  123MOL   C18329707   2.366   1.964   2.614 -1.0121 -0.5988 -0.3500
  123MOL   C18429708   2.400   1.933   2.760 -0.6533  0.4033 -0.2951
  123MOL   O18529709   2.352   2.001   2.849  0.3456 -0.2047 -0.2481
  123MOL   O18629710   2.489   1.834   2.772  0.2321 -0.5217 -0.1303
  123MOL   C18729711   2.533   1.786   2.900  0.2216 -0.5820  0.0391
  123MOL   H18829712   2.394   1.764   2.540  1.0442  0.8720  1.1858
  123MOL   H18929713   2.317   1.862   2.425  0.5904 -0.1644  0.1832
  123MOL   H19029714   2.283   2.034   2.604 -0.7362 -0.2746 -0.3848
  123MOL   H19129715   2.565   1.868   2.964 -1.4109  1.1625 -1.3154
  123MOL   H19229716   2.607   1.706   2.901  2.4707  1.4414  2.1706
  123MOL   H19329717   2.442   1.745   2.944  0.8660 -1.0059  0.9930
  123MOL   C19429718   2.483   2.026   2.535 -0.3507 -0.3967 -0.8078
  123MOL   C19529719   2.497   2.185   2.547 -0.0281 -0.1708  0.0742
  123MOL   C19629720   2.614   2.232   2.634  0.7043 -0.0094  0.1237
  123MOL   O19729721   2.710   2.299   2.594  0.1210  0.0172  0.5421
  123MOL   O19829722   2.592   2.188   2.756  0.7473  0.0933 -0.0207
  123MOL   C19929723   2.699   2.208   2.857 -0.3973  0.0075 -0.0823
  123MOL   H20029724   2.578   1.981   2.562  0.8236  1.2395 -2.1115
  123MOL   H20129725   2.466   2.006   2.429 -0.7576 -0.6018 -0.7039
  123MOL   H20229726   2.418   2.228   2.610  0.6591 -0.6674  1.2865
  123MOL   H20329727   2.654   2.196   2.955  0.2695 -0.9280  0.1118
  123MOL   H20429728   2.747   2.306   2.847 -1.2407  0.4125 -0.2267
  123MOL   H20529729   2.770   2.127   2.841  0.5696  0.7672  0.3145
  123MOL   C20629730   2.484   2.256   2.404 -0.1375  0.4835  0.6345
  123MOL   C20729731   2.340   2.234   2.346 -0.3021 -0.0270  0.6059
  123MOL   C20829732   2.231   2.324   2.421 -0.6196  0.3254 -0.6964
  123MOL   O20929733   2.150   2.276   2.496 -0.3470 -0.2821  0.0559
  123MOL   O21029734   2.259   2.454   2.396  0.4882 -0.0931  0.4041
  123MOL   C21129735   2.180   2.544   2.470  0.5780 -0.0661 -0.1822
  123MOL   H21229736   2.504   2.362   2.413 -0.6263  0.6417 -0.1465
  123MOL   H21329737   2.564   2.225   2.336 -0.6308  0.6832 -0.0317
  123MOL   H21429738   2.316   2.128   2.340 -0.7450  0.1139 -0.0940
  123MOL   H21529739   2.166   2.648   2.438 -0.3249  0.8568  3.0604
  123MOL   H21629740   2.210   2.545   2.575  0.2973  0.5364 -0.1064
  123MOL   H21729741   2.078   2.507   2.473  1.2478 -1.9372  0.2346
  123MOL   C21829742   2.350   2.285   2.196  0.6834 -0.2253  0.5072
  123MOL   C21929743   2.416   2.190   2.091 -0.2053  0.3101 -0.6712
  123MOL   C22029744   2.358   2.055   2.067  0.1660  0.0564 -0.6262
  123MOL   O22129745   2.376   1.969   2.150  0.0294 -0.0058 -0.2442
  123MOL   O22229746   2.279   2.043   1.956 -0.2167  0.2977  0.2419
  123MOL   C22329747   2.209   1.919   1.933 -0.7240 -0.3775 -0.7458
  123MOL   H22429748   2.247   2.305   2.165  0.0841 -2.7120  0.8285
  123MOL   H22529749   2.402   2.381   2.195 -0.2602  0.3148  1.0901
  123MOL   H22629750   2.511   2.176   2.142 -0.6726 -0.4549  0.0128
  123MOL   H22729751   2.186   1.869   2.027 -0.4247  0.5878 -0.1565
  123MOL   H22829752   2.271   1.846   1.880 -0.5754 -1.1512  0.4813
  123MOL   H22929753   2.124   1.930   1.865  0.3574 -0.1098 -2.0761
  123MOL   C23029754   2.463   2.263   1.965 -0.5114  0.4812 -0.3751
  123MOL   C23129755   2.567   2.379   1.982  0.2418  0.2193 -0.1489
  123MOL   C23229756   2.707   2.330   2.019 -0.7850  0.8311 -0.3938
  123MOL   O23329757   2.723   2.224   2.083  0.1986 -0.6374  0.1125
  123MOL   O23429758   2.811   2.405   1.975 -0.0359  0.5793 -0.3654
  123MOL   C23529759   2.936   2.337   1.980 -0.2504  1.2740 -0.0999
  123MOL   H23629760   2.508   2.191   1.896 -0.2518 -0.7620  1.0716
  123MOL   H23729761   2.381   2.307   1.908 -0.1396  2.4265  0.5709
  123MOL   H23829762   2.545   2.454   2.058 -1.3228  0.6739 -1.0257
  123MOL   H23929763   3.019   2.387   1.931  2.5994 -0.4419  2.7600
  123MOL   H24029764   2.928   2.234   1.946 -0.6552  1.2121  0.1778
  123MOL   H24129765   2.971   2.320   2.082  0.7462  1.4321 -0.4079
  123MOL   H24229766   2.581   2.429   1.886  1.2082 -0.2985 -0.2898
  124MOL     C129767   2.828   4.785   3.620 -0.0896 -1.3530 -0.1701
  124MOL     C229768   2.762   4.706   3.509  0.5392 -0.2610  0.3057
  124MOL     C329769   2.607   4.704   3.538 -0.9627  0.1153 -0.1862
  124MOL     O429770   2.558   4.611   3.605 -0.0693  0.1755 -0.2552
  124MOL     O529771   2.540   4.810   3.483  0.2806  0.3697  0.1302
  124MOL     C629772   2.397   4.828   3.518  0.1052 -0.1090 -0.0353
  124MOL     H729773   2.934   4.763   3.620  0.7684  1.8358 -5.3937
  124MOL     H829774   2.790   4.740   3.712 -0.9260 -3.3403 -1.4435
  124MOL     H929775   2.806   4.607   3.512  0.8620 -0.2009 -2.0591
  124MOL    H1029776   2.354   4.773   3.602 -0.4224 -1.2207 -1.0084
  124MOL    H1129777   2.351   4.785   3.429 -0.1883  1.7346 -0.7954
  124MOL    H1229778   2.380   4.934   3.535 -4.3521 -0.5471 -1.1371
  124MOL    H1329779   2.800   4.889   3.603 -0.5042 -1.5292 -0.5746
  124MOL    C1429780   2.799   4.771   3.372  0.1112  0.0821 -0.3431
  124MOL    C1529781   2.758   4.687   3.248  0.2025 -0.4072 -0.1444
  124MOL    C1629782   2.772   4.772   3.119  0.1958 -1.0428 -0.1724
  124MOL    O1729783   2.872   4.772   3.047 -0.0960  0.0094  0.5684
  124MOL    O1829784   2.655   4.835   3.091  0.7624  0.2371  0.0671
  124MOL    C1929785   2.630   4.893   2.965  0.3012 -0.4762  0.2012
  124MOL    H2029786   2.750   4.866   3.353 -0.2027 -0.0438 -0.1692
  124MOL    H2129787   2.906   4.791   3.369  0.1337  0.1283  0.8215
  124MOL    H2229788   2.651   4.672   3.260 -0.1082 -0.4507 -2.6022
  124MOL    H2329789   2.580   4.825   2.896  2.1196 -0.5538 -1.0787
  124MOL    H2429790   2.718   4.926   2.910 -1.0089  0.0451 -1.6643
  124MOL    H2529791   2.580   4.985   2.997  0.8757  0.1826 -0.7562
  124MOL    C2629792   2.833   4.552   3.235 -0.1834 -0.4670  0.1861
  124MOL    C2729793   2.744   4.431   3.197  0.0843 -0.5770  0.2955
  124MOL    C2829794   2.656   4.455   3.066 -0.9020  0.4032 -0.5105
  124MOL    O2929795   2.532   4.472   3.076 -0.3906  0.4387 -0.3075
  124MOL    O3029796   2.729   4.475   2.951  0.5715  0.3950 -0.2390
  124MOL    C3129797   2.664   4.447   2.819  0.0700 -0.1283  0.2840
  124MOL    H3229798   2.917   4.565   3.166  0.4230 -2.7597  0.4267
  124MOL    H3329799   2.881   4.529   3.330 -1.4096 -0.9214  0.7015
  124MOL    H3429800   2.665   4.434   3.271 -0.2545  0.8841 -0.1068
  124MOL    H3529801   2.623   4.347   2.812 -0.7990  0.2874 -0.6346
  124MOL    H3629802   2.739   4.455   2.740 -0.1614  0.6501  0.1403
  124MOL    H3729803   2.584   4.520   2.802  0.6013  0.2116 -0.8411
  124MOL    C3829804   2.822   4.292   3.180  0.9272  0.4316 -0.4516
  124MOL    C3929805   2.725   4.176   3.213  0.0147 -0.0468  0.8197
  124MOL    C4029806   2.760   4.051   3.138  0.4150  0.3340  0.0966
  124MOL    O4129807   2.689   4.001   3.053  0.5450 -0.5914 -0.2932
  124MOL    O4229808   2.881   4.005   3.182  0.4917  0.2437  0.6020
  124MOL    C4329809   2.934   3.880   3.127 -0.2234 -0.5207 -0.0907
  124MOL    H4429810   2.868   4.277   3.083  2.5288  3.4191 -0.2316
  124MOL    H4529811   2.905   4.287   3.251 -0.8952 -0.3306  1.6943
  124MOL    H4629812   2.630   4.197   3.164 -0.1574  1.0625  1.6085
  124MOL    H4729813   2.885   3.794   3.173 -0.3621 -1.7224 -2.4163
  124MOL    H4829814   3.040   3.869   3.146  0.2065 -0.1190 -2.1332
  124MOL    H4929815   2.922   3.874   3.019  0.4735 -0.3355 -0.1823
  124MOL    C5029816   2.693   4.152   3.365 -0.0528 -0.3206 -0.2608
  124MOL    C5129817   2.812   4.137   3.461 -0.8016  0.1287 -0.5745
  124MOL    C5229818   2.813   4.249   3.562  0.3982 -0.2438  0.1826
  124MOL    O5329819   2.888   4.343   3.550 -0.7749  0.1654  0.0672
  124MOL    O5429820   2.723   4.240   3.661  0.2136  0.0973  0.5057
  124MOL    C5529821   2.706   4.345   3.748 -0.2201  0.1762 -0.2804
  124MOL    H5629822   2.636   4.239   3.397 -0.7458 -0.2042 -1.7893
  124MOL    H5729823   2.629   4.065   3.381 -0.9862  0.5300  0.6976
  124MOL    H5829824   2.898   4.160   3.398 -1.5521 -0.8073 -1.9834
  124MOL    H5929825   2.702   4.305   3.849  3.1627 -1.5668 -0.7493
  124MOL    H6029826   2.616   4.404   3.727 -0.7522 -1.2722 -2.1825
  124MOL    H6129827   2.790   4.415   3.745  1.7955 -2.1881  0.2369
  124MOL    C6229828   2.829   3.992   3.510  0.0474  0.5576 -1.1957
  124MOL    C6329829   2.965   3.942   3.556 -0.2565  0.4668 -0.1977
  124MOL    C6429830   3.077   3.937   3.450 -0.0678  0.5757  0.5450
  124MOL    O6529831   3.139   3.833   3.432 -0.6000 -0.1925 -0.3263
  124MOL    O6629832   3.113   4.055   3.385  0.4285 -0.2226  0.0290
  124MOL    C6729833   3.229   4.054   3.307  0.6035 -0.5943 -0.3441
  124MOL    H6829834   2.753   3.976   3.586  2.7065 -0.9598  1.2496
  124MOL    H6929835   2.797   3.908   3.450  0.8098 -1.6968  1.4457
  124MOL    H7029836   2.940   3.840   3.584 -0.7417  1.2952  2.6044
  124MOL    H7129837   3.315   4.000   3.347  2.2745  1.5955 -0.8626
  124MOL    H7229838   3.255   4.156   3.278 -0.6604  0.2158  1.2704
  124MOL    H7329839   3.204   3.998   3.217 -0.0132 -1.1844  0.1881
  124MOL    C7429840   3.034   4.004   3.684  0.0173  0.0059  0.3027
  124MOL    C7529841   2.945   3.997   3.821 -0.1308 -0.3129  0.5665
  124MOL    C7629842   2.894   3.855   3.847 -0.5417 -0.5204 -0.2389
  124MOL    O7729843   2.774   3.830   3.818 -0.5068 -0.0758 -0.2196
  124MOL    O7829844   2.991   3.757   3.881 -0.6127  0.4106  0.2487
  124MOL    C7929845   2.939   3.636   3.920 -0.3279  0.3462 -0.4963
  124MOL    H8029846   3.127   3.949   3.695 -0.2868 -0.4258  0.7369
  124MOL    H8129847   3.068   4.107   3.672 -0.0293  0.0804  0.7852
  124MOL    H8229848   2.857   4.059   3.807 -0.8068 -1.7578 -2.0633
  124MOL    H8329849   2.853   3.633   3.988 -1.0932  0.6221 -1.4386
  124MOL    H8429850   3.020   3.571   3.953  0.7975  1.6176 -0.6914
  124MOL    H8529851   2.897   3.591   3.830  0.1647  0.2573 -0.6822
  124MOL    C8629852   3.018   4.057   3.939  0.8076  0.2592 -0.3301
  124MOL    C8729853   2.950   4.147   4.038 -0.6269 -0.1271 -0.0541
  124MOL    C8829854   2.840   4.090   4.134  0.4389  0.0600  0.2306
  124MOL    O8929855   2.727   4.140   4.149 -0.1082 -0.2128  0.2325
  124MOL    O9029856   2.882   3.978   4.202 -0.1062 -0.1992 -0.0236
  124MOL    C9129857   2.788   3.899   4.275  0.0814  0.3788  0.5620
  124MOL    H9229858   3.058   3.975   3.998 -1.9239 -0.1833  0.9968
  124MOL    H9329859   3.109   4.102   3.899  2.8444 -2.5433  1.0481
  124MOL    H9429860   2.887   4.218   3.984  0.2532 -0.2366 -1.2505
  124MOL    H9529861   2.765   3.948   4.370 -0.3856 -1.7505  1.5827
  124MOL    H9629862   2.826   3.798   4.291 -2.4138 -0.4824  1.3204
  124MOL    H9729863   2.701   3.866   4.219  1.0334 -3.7321  1.3264
  124MOL    C9829864   3.052   4.231   4.111  0.3940  0.0522 -0.1951
  124MOL    C9929865   3.108   4.353   4.032 -0.0614  0.3148 -0.5064
  124MOL   C10029866   3.026   4.480   4.071  0.0566  0.1330  0.5525
  124MOL   O10129867   3.048   4.558   4.159 -0.1332  0.3057 -0.1747
  124MOL   O10229868   2.915   4.478   3.999  0.0649 -0.4813  0.4500
  124MOL   C10329869   2.807   4.571   4.027 -0.1280  0.0685  0.3948
  124MOL   H10429870   3.021   4.263   4.210  0.9648 -1.1675  0.3937
  124MOL   H10529871   3.135   4.164   4.132  0.9155 -0.0540 -2.4218
  124MOL   H10629872   3.084   4.344   3.927 -0.0755  0.3376 -0.5050
  124MOL   H10729873   2.742   4.532   4.105  0.2475  0.9801  1.1745
  124MOL   H10829874   2.756   4.578   3.930  1.1490 -0.2486 -0.3130
  124MOL   H10929875   2.843   4.670   4.053  0.0930  0.2225 -0.4629
  124MOL   C11029876   3.256   4.391   4.055  0.1370 -0.1860 -0.4467
  124MOL   C11129877   3.346   4.278   4.003 -0.1669 -0.8416  0.3476
  124MOL   C11229878   3.352   4.268   3.849  0.4355  0.0509  0.8240
  124MOL   O11329879   3.348   4.364   3.774  0.9430 -0.0310  0.2003
  124MOL   O11429880   3.356   4.141   3.807  0.0189 -0.1937 -0.3057
  124MOL   C11529881   3.382   4.101   3.673 -0.1719  0.3039 -0.1145
  124MOL   H11629882   3.280   4.483   4.003 -1.2995  0.8035  0.5953
  124MOL   H11729883   3.259   4.410   4.162 -0.9486  0.2364 -0.4830
  124MOL   H11829884   3.306   4.187   4.047 -1.5380  0.6564  2.2743
  124MOL   H11929885   3.471   4.151   3.636 -0.1480  0.5504  0.2739
  124MOL   H12029886   3.296   4.123   3.609 -1.7625 -1.5770  1.3063
  124MOL   H12129887   3.401   3.994   3.687 -0.3037  0.2771 -0.1388
  124MOL   C12229888   3.491   4.302   4.064 -0.2714 -0.2657  0.6849
  124MOL   C12329889   3.622   4.232   4.016 -0.8685  0.1531  0.4155
  124MOL   C12429890   3.745   4.306   4.078  0.3129 -0.6154  0.3366
  124MOL   O12529891   3.824   4.364   4.006 -0.8974 -0.0462  0.3819
  124MOL   O12629892   3.754   4.291   4.209 -0.3689  0.0120 -0.4329
  124MOL   C12729893   3.865   4.355   4.277 -0.6400  0.4280  0.2922
  124MOL   H12829894   3.503   4.411   4.064  0.2885 -0.2859  3.0405
  124MOL   H12929895   3.492   4.276   4.170  0.9007 -0.3922  0.6537
  124MOL   H13029896   3.639   4.238   3.909 -1.1471  0.2145  0.3744
  124MOL   H13129897   3.859   4.460   4.249  0.2864  0.1635 -0.9288
  124MOL   H13229898   3.964   4.320   4.250 -0.9726  0.1618 -0.5871
  124MOL   H13329899   3.854   4.351   4.386  0.1878 -0.0717  0.3566
  124MOL   C13429900   3.618   4.080   4.054  0.5451 -0.2639  0.6645
  124MOL   C13529901   3.699   3.986   3.973  0.0567 -0.1002 -0.0064
  124MOL   C13629902   3.849   4.024   3.953  0.7999  0.7399  0.7015
  124MOL   O13729903   3.888   4.046   3.841 -0.4131  0.2291 -0.1409
  124MOL   O13829904   3.915   4.045   4.069  0.0832  0.2697 -0.0388
  124MOL   C13929905   4.049   4.098   4.054 -0.0470 -0.3351 -0.6223
  124MOL   H14029906   3.636   4.079   4.161 -0.3811 -0.2465  0.8233
  124MOL   H14129907   3.513   4.051   4.057  1.3929 -3.7499 -0.6968
  124MOL   H14229908   3.665   3.996   3.870 -2.6150  1.5079  0.9674
  124MOL   H14329909   4.109   4.092   4.144 -0.5208 -3.4922 -0.4725
  124MOL   H14429910   4.053   4.204   4.026  1.7867  0.9254  3.9493
  124MOL   H14529911   4.108   4.042   3.982 -0.8584 -1.5639 -0.3459
  124MOL   C14629912   3.685   3.843   4.031 -0.3705  0.0565  0.9699
  124MOL   C14729913   3.550   3.779   3.983  0.1838  0.2306 -0.7873
  124MOL   C14829914   3.532   3.754   3.829 -0.3971 -0.4435 -0.4849
  124MOL   O14929915   3.625   3.732   3.761 -0.0036 -0.2510  0.8362
  124MOL   O15029916   3.402   3.761   3.799 -0.7129 -0.2499  0.3068
  124MOL   C15129917   3.353   3.711   3.679 -0.2555 -0.4776  0.2172
  124MOL   H15229918   3.764   3.776   3.997 -0.7146 -0.1064  0.4878
  124MOL   H15329919   3.686   3.838   4.140 -2.1875  1.3528  1.0800
  124MOL   H15429920   3.467   3.844   4.009 -2.4243 -2.0743 -3.0974
  124MOL   H15529921   3.245   3.711   3.668 -0.2079  3.7470 -0.8432
  124MOL   H15629922   3.389   3.613   3.646 -3.8629 -1.2724 -1.6935
  124MOL   H15729923   3.387   3.775   3.598 -1.1519 -0.8039 -0.4284
  124MOL   C15829924   3.514   3.641   4.052  0.0789 -0.2176  0.8825
  124MOL   C15929925   3.489   3.627   4.203  0.1347 -0.4610 -0.5010
  124MOL   C16029926   3.410   3.745   4.273  0.2647  0.0536 -0.3309
  124MOL   O16129927   3.462   3.805   4.368  0.0240  0.3012 -0.4721
  124MOL   O16229928   3.284   3.772   4.226  0.2358 -0.1967 -0.0686
  124MOL   C16329929   3.243   3.907   4.247 -0.8064 -0.0935  0.3601
  124MOL   H16429930   3.427   3.599   4.002 -0.4690  2.2064 -0.2679
  124MOL   H16529931   3.597   3.573   4.030 -0.1650  0.4358 -2.3109
  124MOL   H16629932   3.583   3.633   4.258 -0.1927 -0.7988  0.1062
  124MOL   H16729933   3.144   3.929   4.208  0.0491 -0.8136 -2.3451
  124MOL   H16829934   3.312   3.966   4.187 -0.6285  0.2747  0.9256
  124MOL   H16929935   3.244   3.921   4.355  1.0387  1.0653  0.2087
  124MOL   C17029936   3.421   3.487   4.238 -0.2912 -0.1332 -0.4078
  124MOL   C17129937   3.498   3.409   4.357 -0.2953 -0.0352 -0.0824
  124MOL   C17229938   3.528   3.495   4.476 -0.4219  0.2079 -0.0757
  124MOL   O17329939   3.645   3.509   4.511 -0.1212  0.5867  0.9589
  124MOL   O17429940   3.420   3.531   4.545  0.4384  0.0259 -0.4494
  124MOL   C17529941   3.427   3.618   4.656  0.4197  1.0731 -0.5331
  124MOL   H17629942   3.315   3.503   4.260 -0.2345  0.2539 -0.4092
  124MOL   H17729943   3.428   3.416   4.155 -1.0577  1.1838 -1.6333
  124MOL   H17829944   3.599   3.377   4.330 -0.7321 -1.0132 -0.5725
  124MOL   H17929945   3.341   3.615   4.724  0.4220 -1.9894 -0.5924
  124MOL   H18029946   3.440   3.722   4.628 -0.7191  1.2267 -0.5044
  124MOL   H18129947   3.514   3.596   4.718 -0.2767 -1.8963 -0.5084
  124MOL   C18229948   3.422   3.278   4.389  0.3624 -0.9656 -0.2359
  124MOL   C18329949   3.507   3.184   4.477  0.7385 -0.1015  0.1449
  124MOL   C18429950   3.412   3.123   4.580 -0.2429  0.5907 -0.0521
  124MOL   O18529951   3.405   3.002   4.596 -0.0881  0.4743 -0.3571
  124MOL   O18629952   3.338   3.209   4.656 -0.4387  0.8013  0.2293
  124MOL   C18729953   3.242   3.154   4.743  0.1836 -0.0753  0.2242
  124MOL   H18829954   3.322   3.298   4.426  0.3119 -2.4021  0.4358
  124MOL   H18929955   3.409   3.229   4.293 -2.0726 -1.3083  0.2467
  124MOL   H19029956   3.577   3.249   4.529 -0.3164 -0.5120  2.0894
  124MOL   H19129957   3.218   3.050   4.722  1.3524 -0.2528 -0.2944
  124MOL   H19229958   3.149   3.209   4.755  0.6897  0.8662 -0.0833
  124MOL   H19329959   3.278   3.139   4.845 -1.3482  2.2037  1.1418
  124MOL   C19429960   3.588   3.077   4.399  0.3472 -0.4514 -0.2664
  124MOL   C19529961   3.720   3.030   4.463 -0.7762  0.2178  0.5379
  124MOL   C19629962   3.697   2.948   4.592  0.1024  0.1639 -0.6390
  124MOL   O19729963   3.733   2.996   4.698  0.3106  0.2041  0.3857
  124MOL   O19829964   3.634   2.825   4.581  0.0375 -0.0927 -0.0247
  124MOL   C19929965   3.615   2.758   4.699  0.7098 -0.5461 -0.6540
  124MOL   H20029966   3.522   2.996   4.370  0.2866  0.4831 -2.9058
  124MOL   H20129967   3.600   3.112   4.296 -0.6835 -0.5714 -0.4369
  124MOL   H20229968   3.778   3.118   4.491  0.8264 -0.2449 -1.2457
  124MOL   H20329969   3.550   2.672   4.685  0.8105 -0.8736  0.7760
  124MOL   H20429970   3.557   2.815   4.772  0.4697  0.6317 -1.7534
  124MOL   H20529971   3.707   2.729   4.750 -1.4925 -1.6736  2.8400
  124MOL   C20629972   3.792   2.946   4.347  0.4730  0.5657 -0.8535
  124MOL   C20729973   3.939   2.914   4.385 -0.0797 -0.1218  0.2546
  124MOL   C20829974   4.013   3.044   4.417 -0.5816  0.0055  0.0677
  124MOL   O20929975   4.041   3.077   4.535 -0.3944  0.0464  0.0649
  124MOL   O21029976   4.047   3.112   4.299  0.0401  0.0683  0.2196
  124MOL   C21129977   4.105   3.234   4.309  0.4063 -0.5492  0.0228
  124MOL   H21229978   3.734   2.855   4.338  0.8459  0.4300 -1.9010
  124MOL   H21329979   3.776   2.993   4.250 -1.1678  0.2349 -0.7518
  124MOL   H21429980   3.973   2.880   4.288  2.2822 -1.9391  1.6596
  124MOL   H21529981   4.156   3.261   4.216  2.1202  0.3939  1.2062
  124MOL   H21629982   4.190   3.238   4.378  0.0773  1.3340  0.3623
  124MOL   H21729983   4.035   3.315   4.328 -1.3135 -1.7603 -0.9783
  124MOL   C21829984   3.954   2.795   4.488 -0.6439 -0.6503 -0.6377
  124MOL   C21929985   4.088   2.727   4.497 -0.2373 -0.0110 -0.2120
  124MOL   C22029986   4.105   2.644   4.627 -0.4581 -0.2715 -0.4400
  124MOL   O22129987   4.106   2.520   4.626  0.2029 -0.1487 -0.3424
  124MOL   O22229988   4.141   2.715   4.736 -0.0977 -0.2372  0.0290
  124MOL   C22329989   4.165   2.655   4.858  0.4789 -0.2006 -0.2891
  124MOL   H22429990   3.949   2.839   4.587  0.6498 -2.0649  0.0816
  124MOL   H22529991   3.864   2.735   4.474 -1.0478 -0.0076 -0.8268
  124MOL   H22629992   4.167   2.803   4.502 -0.6140  0.4916 -1.6483
  124MOL   H22729993   4.260   2.602   4.854  0.8094  0.0186  3.0958
  124MOL   H22829994   4.081   2.589   4.881 -2.0228  2.8457 -0.2242
  124MOL   H22929995   4.183   2.736   4.929  0.3914 -0.1358 -0.3426
  124MOL   C23029996   4.122   2.642   4.370  0.0477  0.8720 -0.3834
  124MOL   C23129997   4.025   2.527   4.333  0.0644 -0.9637 -0.4319
  124MOL   C23229998   4.028   2.499   4.185  0.5335 -0.2616 -0.7545
  124MOL   O23329999   3.923   2.515   4.119 -0.2443 -0.1376 -0.0238
  124MOL   O23430000   4.150   2.471   4.137  0.1418 -0.3038  0.3203
  124MOL   C23530001   4.174   2.455   4.000  0.1561  0.9165 -0.8606
  124MOL   H23630002   4.131   2.718   4.292 -1.0533  0.2335 -1.1419
  124MOL   H23730003   4.219   2.594   4.377 -0.5166  0.1314  3.8181
  124MOL   H23830004   3.928   2.575   4.345  0.4120 -0.6771  1.4363
  124MOL   H23930005   4.165   2.348   3.984 -0.8183  0.4840  2.4194
  124MOL   H24030006   4.278   2.485   3.988  1.3788 -1.1265  3.6634
  124MOL   H24130007   4.128   2.513   3.920  0.9566  0.9015 -1.3426
  124MOL   H24230008   4.028   2.437   4.395  2.4082 -0.0797  0.8213
  125MOL     C130009   3.117   4.841   1.124  0.5391 -0.1300 -0.0095
  125MOL     C230010   3.150   4.687   1.143  0.8141  0.1213  0.2746
  125MOL     C330011   3.269   4.651   1.058 -0.0026 -0.3388  0.3990
  125MOL     O430012   3.377   4.607   1.100  0.1883  0.2907  0.1451
  125MOL     O530013   3.238   4.672   0.940 -0.5231 -0.2564  0.1772
  125MOL     C630014   3.316   4.634   0.836  0.1057 -0.2444  0.3161
  125MOL     H730015   3.025   4.881   1.168  0.7440 -0.2301  0.5113
  125MOL     H830016   3.096   4.860   1.019 -1.6867 -0.8165  0.2689
  125MOL     H930017   3.059   4.644   1.101  0.6174  1.3958 -0.6547
  125MOL    H1030018   3.406   4.579   0.867  0.4293  0.0395 -0.1171
  125MOL    H1130019   3.362   4.724   0.795 -0.4750  0.6324  1.5761
  125MOL    H1230020   3.252   4.577   0.770  0.5357  0.3303 -0.6041
  125MOL    H1330021   3.200   4.896   1.169  1.1227 -1.3138  0.3628
  125MOL    C1430022   3.161   4.656   1.289 -0.3082  0.0753  0.3004
  125MOL    C1530023   3.043   4.689   1.382  0.2237  0.2565  0.0626
  125MOL    C1630024   2.909   4.620   1.341  0.8196  0.2690  0.0900
  125MOL    O1730025   2.889   4.499   1.342 -0.7585  0.3094  0.7759
  125MOL    O1830026   2.818   4.715   1.303 -0.2758  0.0792  0.2249
  125MOL    C1930027   2.694   4.675   1.253  0.1230  0.8418 -0.0281
  125MOL    H2030028   3.194   4.552   1.294 -1.3458 -0.2733  0.0530
  125MOL    H2130029   3.245   4.720   1.312  0.3232  0.0987 -1.9111
  125MOL    H2230030   3.033   4.796   1.365  1.2264  0.4503  0.6333
  125MOL    H2330031   2.626   4.631   1.326 -2.5828  2.3939 -1.5046
  125MOL    H2430032   2.705   4.611   1.166 -0.7350  0.1807  0.3415
  125MOL    H2530033   2.624   4.755   1.227 -0.8771  0.5019  1.5310
  125MOL    C2630034   3.080   4.661   1.536  0.4538  0.0683  0.1232
  125MOL    C2730035   3.170   4.769   1.600  0.0085  0.2573  0.6265
  125MOL    C2830036   3.099   4.904   1.630  0.9242  0.0491  0.0748
  125MOL    O2930037   3.119   5.003   1.564  0.2457  0.2177 -0.1915
  125MOL    O3030038   3.016   4.894   1.739  0.3412  0.3589 -0.1812
  125MOL    C3130039   2.938   5.008   1.778 -0.2804  0.1220  0.9779
  125MOL    H3230040   2.999   4.652   1.608  1.9510  1.3164  2.0178
  125MOL    H3330041   3.126   4.563   1.552  2.1654  1.0901  1.7453
  125MOL    H3430042   3.235   4.813   1.525  0.0014  1.5379  1.3437
  125MOL    H3530043   2.994   5.101   1.788 -0.2624  0.1168  0.9192
  125MOL    H3630044   2.911   4.976   1.879 -0.3455 -0.1798  0.8680
  125MOL    H3730045   2.847   5.033   1.724  1.1449  1.9086 -0.6593
  125MOL    C3830046   3.258   4.726   1.720 -0.2280  0.4979  0.3242
  125MOL    C3930047   3.354   4.612   1.691 -0.1266 -0.4578  0.5697
  125MOL    C4030048   3.424   4.625   1.563 -0.5207 -0.1195  0.5783
  125MOL    O4130049   3.502   4.715   1.544 -0.0776  0.1171  0.2684
  125MOL    O4230050   3.396   4.536   1.471 -0.0268  0.5852  0.5239
  125MOL    C4330051   3.488   4.505   1.371 -0.1235  0.4429 -0.0790
  125MOL    H4430052   3.316   4.809   1.760  0.5228  0.3445 -0.4277
  125MOL    H4530053   3.194   4.694   1.803 -1.8841 -1.5609 -1.6813
  125MOL    H4630054   3.288   4.526   1.680 -1.4084  0.6079 -0.2176
  125MOL    H4730055   3.587   4.487   1.414 -0.9287  0.1610  1.6972
  125MOL    H4830056   3.496   4.601   1.320 -0.7549  1.4799  1.7304
  125MOL    H4930057   3.450   4.420   1.314 -2.0366 -0.2113  2.1248
  125MOL    C5030058   3.443   4.578   1.816  0.4546  0.0267  1.5476
  125MOL    C5130059   3.458   4.430   1.836  0.1705  0.1879 -1.0551
  125MOL    C5230060   3.323   4.362   1.886  0.7605  0.6755 -0.4557
  125MOL    O5330061   3.292   4.353   2.006 -0.2290 -0.1999  1.0963
  125MOL    O5430062   3.242   4.327   1.780 -0.2829 -0.3210  0.0927
  125MOL    C5530063   3.100   4.298   1.800 -0.5292 -0.2600 -0.6650
  125MOL    H5630064   3.537   4.634   1.826  0.1525  0.6486  0.9637
  125MOL    H5730065   3.395   4.623   1.902  3.1663  2.9968  1.6502
  125MOL    H5830066   3.515   4.440   1.928  0.2989  1.7787 -1.2943
  125MOL    H5930067   3.062   4.283   1.699  1.8990 -1.4725 -1.4204
  125MOL    H6030068   3.051   4.386   1.843  1.7851 -0.0193  1.5645
  125MOL    H6130069   3.088   4.214   1.869  0.6762 -0.9489 -1.2843
  125MOL    C6230070   3.542   4.352   1.732 -0.1023 -0.7132  0.0660
  125MOL    C6330071   3.636   4.242   1.788 -0.2349 -0.5822  0.0025
  125MOL    C6430072   3.747   4.306   1.866 -0.5630  0.5261 -0.4976
  125MOL    O6530073   3.749   4.294   1.991  0.6776  0.3935 -0.1187
  125MOL    O6630074   3.829   4.387   1.798  0.3664 -0.5860  0.4976
  125MOL    C6730075   3.943   4.445   1.865 -0.2759  0.1549 -0.4990
  125MOL    H6830076   3.483   4.318   1.647  0.0658  0.3588 -0.4799
  125MOL    H6930077   3.616   4.422   1.693 -2.0159  1.8354  0.9064
  125MOL    H7030078   3.667   4.188   1.699 -0.2654  1.4312 -1.2688
  125MOL    H7130079   3.979   4.524   1.798  2.0781 -1.4543 -1.2139
  125MOL    H7230080   4.027   4.376   1.873 -2.0647 -1.9618  0.6629
  125MOL    H7330081   3.916   4.482   1.963 -0.8979 -1.4436 -0.0543
  125MOL    C7430082   3.562   4.128   1.853 -0.0129  0.7435 -0.8140
  125MOL    C7530083   3.663   4.004   1.870  0.0568  0.2960 -0.6965
  125MOL    C7630084   3.622   3.907   1.978  0.5495  0.2597 -0.2296
  125MOL    O7730085   3.699   3.887   2.070  0.0439 -0.0795  0.2959
  125MOL    O7830086   3.513   3.849   1.956  0.0255  0.4477  0.3111
  125MOL    C7930087   3.457   3.752   2.048  0.4897 -0.0502  0.1870
  125MOL    H8030088   3.520   4.163   1.947  1.1772  0.2228 -0.0682
  125MOL    H8130089   3.482   4.090   1.789  1.9146 -2.5109 -1.4654
  125MOL    H8230090   3.752   4.052   1.910 -0.9888  2.8960 -1.3932
  125MOL    H8330091   3.472   3.815   2.137  0.3636  0.6350 -0.2710
  125MOL    H8430092   3.527   3.669   2.047  0.4298 -0.0907 -1.1612
  125MOL    H8530093   3.350   3.734   2.057  0.5274  0.5735  2.0994
  125MOL    C8630094   3.696   3.922   1.739 -0.2902  0.4773 -0.2194
  125MOL    C8730095   3.814   3.966   1.648 -0.0646 -0.1882 -0.1840
  125MOL    C8830096   3.949   3.965   1.706 -0.0354 -0.4531 -0.7013
  125MOL    O8930097   4.023   3.864   1.700 -0.1353  0.3524 -0.2162
  125MOL    O9030098   3.982   4.077   1.766 -0.4883  0.2773 -0.6769
  125MOL    C9130099   4.121   4.096   1.783 -0.4372  0.2645  0.3874
  125MOL    H9230100   3.724   3.820   1.766  1.8754 -0.0538 -4.0768
  125MOL    H9330101   3.600   3.900   1.692 -1.4746  0.2037  2.2260
  125MOL    H9430102   3.799   4.073   1.637 -1.7220 -0.6798 -3.0905
  125MOL    H9530103   4.158   4.051   1.875  3.6602  0.7360 -0.9167
  125MOL    H9630104   4.139   4.204   1.788  1.7993 -0.0993  0.7195
  125MOL    H9730105   4.184   4.065   1.700 -1.3055  1.2293 -0.6561
  125MOL    C9830106   3.815   3.913   1.505 -0.0087 -0.2234  0.2504
  125MOL    C9930107   3.695   3.978   1.426  0.6333  0.3372 -0.6672
  125MOL   C10030108   3.725   4.122   1.380  1.0031  0.6406 -0.3448
  125MOL   O10130109   3.653   4.215   1.421  1.0902 -0.1460 -0.1857
  125MOL   O10230110   3.834   4.134   1.304 -0.2769  0.0307 -0.3794
  125MOL   C10330111   3.859   4.267   1.258 -0.2285 -0.3194  0.2368
  125MOL   H10430112   3.915   3.921   1.462 -0.6018  0.5405 -0.9874
  125MOL   H10530113   3.806   3.806   1.522 -0.1502 -0.3118 -0.3608
  125MOL   H10630114   3.611   3.981   1.496  1.2242  0.6661  0.0344
  125MOL   H10730115   3.770   4.313   1.216  0.8081 -0.0060 -1.6420
  125MOL   H10830116   3.938   4.273   1.184  0.7899 -0.8447  1.2770
  125MOL   H10930117   3.891   4.345   1.326 -0.6382  1.0487 -1.1202
  125MOL   C11030118   3.659   3.874   1.316  0.0301 -0.3143  0.4700
  125MOL   C11130119   3.538   3.919   1.237 -0.3819  0.4837  0.1699
  125MOL   C11230120   3.580   3.912   1.095  0.6428  0.1457 -0.0191
  125MOL   O11330121   3.567   3.808   1.031 -0.0595  0.4144  0.0820
  125MOL   O11430122   3.632   4.023   1.050 -0.1035 -0.1718 -0.7554
  125MOL   C11530123   3.683   4.030   0.921 -0.3422 -0.8385 -0.4331
  125MOL   H11630124   3.751   3.863   1.258 -0.7455 -0.5834 -0.7113
  125MOL   H11730125   3.657   3.776   1.362  0.9190 -0.4412  0.2488
  125MOL   H11830126   3.515   4.025   1.251 -2.7122  0.0291  0.0767
  125MOL   H11930127   3.604   4.018   0.847 -0.7199  1.4999 -0.4445
  125MOL   H12030128   3.775   3.972   0.912  1.6632  2.0580  0.6820
  125MOL   H12130129   3.730   4.128   0.913 -0.0447 -1.0935 -1.8684
  125MOL   C12230130   3.406   3.836   1.271 -0.7412 -0.8368  0.1259
  125MOL   C12330131   3.358   3.833   1.423 -0.5067 -0.1610  0.5758
  125MOL   C12430132   3.310   3.977   1.471 -0.6364  0.5113 -0.2496
  125MOL   O12530133   3.373   4.029   1.568  0.4450  0.8636  0.5020
  125MOL   O12630134   3.201   4.033   1.403 -0.3717  0.4881  0.5625
  125MOL   C12730135   3.172   4.169   1.438  0.0410  0.4368 -0.0645
  125MOL   H12830136   3.324   3.881   1.215  0.2943 -0.1320 -0.8510
  125MOL   H12930137   3.418   3.733   1.239 -0.5433 -0.6493 -0.4078
  125MOL   H13030138   3.447   3.810   1.482 -0.0939 -0.8241 -0.2898
  125MOL   H13130139   3.196   4.186   1.543  0.8657  1.1163 -0.3567
  125MOL   H13230140   3.071   4.199   1.408 -0.4674  1.0294  2.1519
  125MOL   H13330141   3.233   4.232   1.374  2.2754  0.4159  2.0014
  125MOL   C13430142   3.261   3.732   1.459 -0.2947 -0.0082 -0.1047
  125MOL   C13530143   3.304   3.584   1.459  0.4170  0.7088  0.3181
  125MOL   C13630144   3.432   3.567   1.536 -0.7701 -0.0685  0.4234
  125MOL   O13730145   3.543   3.556   1.482 -0.0162 -0.1769 -0.5784
  125MOL   O13830146   3.410   3.567   1.675 -0.0149  0.1531  0.0820
  125MOL   C13930147   3.521   3.527   1.756  0.0358  0.4369  0.1110
  125MOL   H14030148   3.218   3.759   1.556  0.5748  2.9418 -0.4927
  125MOL   H14130149   3.180   3.738   1.387 -1.0114  1.8167  0.8117
  125MOL   H14230150   3.337   3.559   1.358  2.0822 -2.1233  1.4923
  125MOL   H14330151   3.544   3.424   1.731 -1.2967  0.1553  0.0042
  125MOL   H14430152   3.504   3.547   1.862 -2.5573  1.9508 -0.5475
  125MOL   H14530153   3.613   3.579   1.729  0.2492  0.3481  0.6647
  125MOL   C14630154   3.181   3.493   1.486 -0.3000  0.4464 -0.1499
  125MOL   C14730155   3.192   3.339   1.466  0.5271 -0.3024 -0.2029
  125MOL   C14830156   3.242   3.280   1.598 -0.2919 -0.3898  0.3697
  125MOL   O14930157   3.357   3.252   1.611 -0.0102 -0.7293 -0.1244
  125MOL   O15030158   3.150   3.265   1.691  0.1374 -0.1374 -0.5627
  125MOL   C15130159   3.196   3.227   1.824  0.8463  0.7753  0.3610
  125MOL   H15230160   3.129   3.517   1.578  0.0170 -1.2656  0.4949
  125MOL   H15330161   3.111   3.527   1.409 -0.8462  1.3343  0.7256
  125MOL   H15430162   3.265   3.309   1.391  0.6156  2.2362 -1.1623
  125MOL   H15530163   3.199   3.319   1.882 -0.9787 -0.0571  1.7955
  125MOL   H15630164   3.291   3.174   1.824  0.5060  0.1520 -0.4196
  125MOL   H15730165   3.114   3.170   1.866  2.2765 -1.0308  0.7478
  125MOL   C15830166   3.051   3.279   1.433  0.0962  0.2976  0.1016
  125MOL   C15930167   3.045   3.124   1.415 -0.3204  0.4728  0.2846
  125MOL   C16030168   2.901   3.076   1.428  0.5350 -0.4757 -0.1266
  125MOL   O16130169   2.806   3.149   1.424  0.0217 -0.3204 -0.1094
  125MOL   O16230170   2.884   2.938   1.446  0.2713 -0.1245 -0.7022
  125MOL   C16330171   2.753   2.894   1.469 -0.6097  0.1768 -0.5102
  125MOL   H16430172   2.974   3.318   1.500 -0.5262  1.9939 -1.5479
  125MOL   H16530173   3.012   3.325   1.343 -0.3052  3.4795  1.8146
  125MOL   H16630174   3.095   3.079   1.501 -0.6348  2.0731  1.3270
  125MOL   H16730175   2.681   2.923   1.392 -2.5488 -1.7684  0.5027
  125MOL   H16830176   2.713   2.931   1.563 -0.4718  1.8345 -1.0925
  125MOL   H16930177   2.740   2.786   1.480 -1.8349  0.5663  2.1695
  125MOL   C17030178   3.125   3.066   1.294  0.7558 -1.3946 -0.4625
  125MOL   C17130179   3.272   3.026   1.309 -0.3102 -0.6250 -0.5929
  125MOL   C17230180   3.298   2.910   1.409  0.7873  0.2486  0.8519
  125MOL   O17330181   3.369   2.919   1.511  0.1166  0.3338  0.7144
  125MOL   O17430182   3.219   2.805   1.386 -0.5578 -0.4156 -0.2960
  125MOL   C17530183   3.221   2.702   1.484  1.0732  0.8790  0.1404
  125MOL   H17630184   3.064   2.984   1.257  1.0993 -2.5680  1.4689
  125MOL   H17730185   3.115   3.152   1.228 -0.8482 -0.0819  1.4347
  125MOL   H17830186   3.320   3.113   1.354 -0.6721 -1.0713  0.6705
  125MOL   H17930187   3.152   2.627   1.446  1.4670 -1.1035  3.2345
  125MOL   H18030188   3.203   2.732   1.587 -0.9905  0.5066 -0.0797
  125MOL   H18130189   3.318   2.656   1.467  0.9382  0.6024  0.1167
  125MOL   C18230190   3.336   3.007   1.165  0.6277 -0.5629 -0.2920
  125MOL   C18330191   3.480   2.940   1.146  0.5704 -0.3741 -0.1310
  125MOL   C18430192   3.472   2.784   1.133 -0.1785 -0.3761 -0.3126
  125MOL   O18530193   3.414   2.734   1.040 -0.2384  0.0787 -0.4235
  125MOL   O18630194   3.534   2.716   1.220 -0.5795 -0.0898 -0.2666
  125MOL   C18730195   3.547   2.573   1.205 -0.0859 -0.2658  0.1356
  125MOL   H18830196   3.263   2.953   1.104  1.5670 -0.9328 -1.0979
  125MOL   H18930197   3.359   3.108   1.131 -0.9179  0.2811  1.1048
  125MOL   H19030198   3.543   2.963   1.232 -1.0048 -0.2014  0.9830
  125MOL   H19130199   3.452   2.520   1.205  0.6777 -1.6844 -0.0748
  125MOL   H19230200   3.608   2.529   1.284  1.3097  1.0775 -0.1687
  125MOL   H19330201   3.598   2.558   1.109 -0.8795 -0.5960 -0.2372
  125MOL   C19430202   3.550   2.996   1.019 -0.9808 -0.0738 -0.3800
  125MOL   C19530203   3.688   2.939   0.975  0.2891 -0.0252 -0.1469
  125MOL   C19630204   3.729   2.987   0.833 -0.0234 -0.0823 -0.9281
  125MOL   O19730205   3.836   3.050   0.818  0.0003  0.4035  0.4512
  125MOL   O19830206   3.647   2.932   0.738 -0.6806  0.3310 -0.0600
  125MOL   C19930207   3.674   2.987   0.607 -0.1292 -0.3430  0.2403
  125MOL   H20030208   3.475   2.989   0.940 -0.0122 -1.0284 -1.2190
  125MOL   H20130209   3.558   3.104   1.030 -3.7175  0.3263 -1.7277
  125MOL   H20230210   3.674   2.834   0.948  0.8511  0.1076 -0.9818
  125MOL   H20330211   3.677   2.909   0.532  0.9163  1.8291 -2.0638
  125MOL   H20430212   3.779   3.015   0.597 -0.3743  0.2853 -0.6662
  125MOL   H20530213   3.599   3.063   0.584 -0.8029 -1.4718 -1.3513
  125MOL   C20630214   3.799   2.952   1.082 -0.4974 -0.2982 -0.0979
  125MOL   C20730215   3.922   2.860   1.077 -0.2739  0.4894 -0.3006
  125MOL   C20830216   4.036   2.917   1.160  0.6283 -0.3920 -0.1238
  125MOL   O20930217   4.030   3.019   1.231  0.1863  0.7136  0.0848
  125MOL   O21030218   4.146   2.845   1.137  0.3776 -0.3171  0.0752
  125MOL   C21130219   4.266   2.869   1.211  0.3113  0.2194 -0.1872
  125MOL   H21230220   3.839   3.053   1.071 -2.2637  0.3283 -1.0101
  125MOL   H21330221   3.764   2.947   1.185  0.5835  0.1873  0.3054
  125MOL   H21430222   3.959   2.871   0.976  0.5563  2.7804  0.2177
  125MOL   H21530223   4.340   2.904   1.140 -0.4548 -0.7711 -1.4952
  125MOL   H21630224   4.314   2.781   1.254  2.3904  0.9413 -0.9646
  125MOL   H21730225   4.243   2.930   1.298  2.8557 -1.9990  2.1190
  125MOL   C21830226   3.882   2.710   1.104  0.7041  0.3413 -0.6380
  125MOL   C21930227   3.981   2.602   1.126 -0.7652  0.5712 -0.5146
  125MOL   C22030228   3.908   2.481   1.191 -0.2873  0.1018 -0.4938
  125MOL   O22130229   3.828   2.411   1.134 -0.4389 -0.0689  0.0882
  125MOL   O22230230   3.939   2.457   1.323  0.8116 -0.6456 -0.0119
  125MOL   C22330231   3.862   2.369   1.404  0.5052 -0.1929 -0.4944
  125MOL   H22430232   3.812   2.712   1.188 -0.4794 -1.2637 -1.5379
  125MOL   H22530233   3.827   2.670   1.018  1.6386 -2.4030 -0.0072
  125MOL   H22630234   4.051   2.623   1.208 -0.1454  0.5552 -1.0334
  125MOL   H22730235   3.871   2.390   1.511  3.3575 -0.9480 -0.5647
  125MOL   H22830236   3.887   2.265   1.386  1.6691 -0.3123  1.5924
  125MOL   H22930237   3.756   2.387   1.385  0.2529 -0.8066  0.2956
  125MOL   C23030238   4.053   2.554   0.994 -0.5526 -0.4904  0.2546
  125MOL   C23130239   4.123   2.417   0.994 -0.4727 -0.0763 -0.4361
  125MOL   C23230240   4.222   2.382   0.880 -0.5241  0.4207 -0.0777
  125MOL   O23330241   4.286   2.467   0.823 -0.4093  0.2933 -0.3618
  125MOL   O23430242   4.211   2.247   0.858  0.1493 -0.1850  0.1220
  125MOL   C23530243   4.287   2.194   0.747  0.2680 -0.8673  0.1983
  125MOL   H23630244   3.989   2.552   0.906  0.7248  1.9548 -0.8015
  125MOL   H23730245   4.116   2.636   0.958 -0.7656 -1.4008 -2.2431
  125MOL   H23830246   4.047   2.340   1.006 -0.4862  0.2820  2.0055
  125MOL   H23930247   4.250   2.249   0.660 -1.5658 -0.8766  0.9525
  125MOL   H24030248   4.261   2.088   0.739 -0.6843 -0.5461 -1.1659
  125MOL   H24130249   4.393   2.199   0.772  0.2473 -1.7321  0.5043
  125MOL   H24230250   4.183   2.415   1.086 -0.5085  1.1863 -0.3823
  126MOL     C130251   4.662   1.693   7.665 -0.1329 -0.2180  0.1671
  126MOL     C230252   4.766   1.595   7.725 -0.7439 -0.2834 -0.2906
  126MOL     C330253   4.879   1.557   7.628 -1.0196  0.5031 -0.6149
  126MOL     O430254   4.907   1.636   7.539 -0.1433 -0.0720 -0.6454
  126MOL     O530255   4.950   1.447   7.661 -0.0267 -0.3312  0.2652
  126MOL     C630256   5.049   1.406   7.572 -0.0746 -0.6531 -0.2167
  126MOL     H730257   4.689   1.798   7.680  0.2780 -0.5395  1.7541
  126MOL     H830258   4.558   1.682   7.696  0.2799  0.2773  1.7749
  126MOL     H930259   4.710   1.502   7.735  0.1361 -0.8576 -0.6869
  126MOL    H1030260   5.139   1.468   7.570 -1.8690  2.0214 -1.8844
  126MOL    H1130261   5.005   1.389   7.474  0.6607  0.8959 -0.8414
  126MOL    H1230262   5.078   1.303   7.593  0.4844 -0.0465  2.1558
  126MOL    H1330263   4.663   1.670   7.559  0.0298  1.0462 -0.1210
  126MOL    C1430264   4.832   1.654   7.856  0.0707 -0.1380  0.5646
  126MOL    C1530265   4.737   1.694   0.038  0.3046  0.4939  0.2719
  126MOL    C1630266   4.675   1.572   0.110  0.2742 -0.4887  1.1068
  126MOL    O1730267   4.550   1.542   0.116 -0.5720  0.1436 -0.0203
  126MOL    O1830268   4.767   1.508   0.181 -0.1566 -0.0876  0.3251
  126MOL    C1930269   4.720   1.414   0.277 -0.2527  0.1783 -0.5921
  126MOL    H2030270   4.908   1.586   7.894 -1.0916 -2.0230 -0.4051
  126MOL    H2130271   4.874   1.750   7.829 -0.3294  0.4953  2.1378
  126MOL    H2230272   4.646   1.740   7.931 -0.5972 -0.1459  1.5459
  126MOL    H2330273   4.804   1.361   0.321  0.1411 -0.2816 -1.8752
  126MOL    H2430274   4.650   1.340   0.239  0.7368 -0.1607 -1.7537
  126MOL    H2530275   4.668   1.467   0.357 -0.7788  1.5765 -1.8324
  126MOL    C2630276   4.797   1.791   0.144 -1.1721 -0.6128 -0.5791
  126MOL    C2730277   4.812   1.938   0.073 -0.2078  0.2742 -0.0268
  126MOL    C2830278   4.674   2.005   0.055  0.4825  0.1896  0.0934
  126MOL    O2930279   4.573   1.962   0.116 -0.2669 -0.4675 -0.6285
  126MOL    O3030280   4.681   2.099   7.894  0.4303 -0.2284 -0.3436
  126MOL    C3130281   4.566   2.181   7.880  0.3455 -0.5379  0.1670
  126MOL    H3230282   4.739   1.804   0.235 -1.5901  1.2517 -1.0813
  126MOL    H3330283   4.895   1.757   0.175 -0.2537  0.6386 -1.9988
  126MOL    H3430284   4.853   1.927   7.906 -0.7045  0.1311 -0.2163
  126MOL    H3530285   4.548   2.242   0.035 -1.3005 -3.6971  2.1295
  126MOL    H3630286   4.475   2.123   7.868 -0.3937  0.4545  0.8952
  126MOL    H3730287   4.580   2.254   7.800  0.3817 -0.0797  0.5898
  126MOL    C3830288   4.902   2.025   0.162  0.0197  0.1640  0.2393
  126MOL    C3930289   5.049   2.058   0.103 -0.0031 -0.4373  0.1826
  126MOL    C4030290   5.049   2.155   7.915 -1.0051  0.1487  0.2938
  126MOL    O4130291   5.061   2.107   7.801 -0.0361 -0.5587 -0.7312
  126MOL    O4230292   5.018   2.286   0.009  0.0517 -0.5258  0.2480
  126MOL    C4330293   5.052   2.382   7.847  0.6131  0.2510 -0.0699
  126MOL    H4430294   4.854   2.123   0.172 -2.2500 -0.9883  0.8687
  126MOL    H4530295   4.904   1.983   0.262  1.0214 -1.3202 -0.3887
  126MOL    H4630296   5.091   1.959   0.086  0.6209 -0.3651  1.2163
  126MOL    H4730297   5.145   2.361   7.794  0.5460  1.6671 -0.7669
  126MOL    H4830298   5.086   2.466   7.908  0.6542 -1.6348  2.6051
  126MOL    H4930299   4.967   2.420   7.790 -0.7350 -2.0903  0.3142
  126MOL    C5030300   5.146   2.110   0.208  0.2522 -0.1386  0.4372
  126MOL    C5130301   5.297   2.117   0.164  0.5040 -0.7829  0.1199
  126MOL    C5230302   5.343   2.266   0.173  0.2622 -0.4060 -0.5419
  126MOL    O5330303   5.352   2.334   0.072 -0.4679  0.4665 -0.3212
  126MOL    O5430304   5.383   2.306   0.304 -0.1600  0.2021 -0.0049
  126MOL    C5530305   5.413   2.439   0.328  0.0891  0.3823 -0.0098
  126MOL    H5630306   5.107   2.199   0.256  0.3760  1.7666 -2.8360
  126MOL    H5730307   5.135   2.046   0.295 -0.1319 -0.1107  0.4099
  126MOL    H5830308   5.308   2.096   0.058  0.3693  1.9128 -0.4811
  126MOL    H5930309   5.460   2.478   0.238 -0.0208  0.2934 -0.1078
  126MOL    H6030310   5.481   2.449   0.412  1.7674 -0.1087 -1.2867
  126MOL    H6130311   5.327   2.502   0.352 -0.4319 -0.5646  0.6524
  126MOL    C6230312   5.383   2.013   0.239  0.2723 -0.4222  0.4785
  126MOL    C6330313   5.356   1.861   0.239  0.2057  0.1161 -0.5408
  126MOL    C6430314   5.381   1.808   0.100  0.5784 -0.1103 -0.8497
  126MOL    O6530315   5.477   1.741   0.073 -0.7041  0.7955  0.8130
  126MOL    O6630316   5.279   1.838   0.018  0.2194  0.8113 -0.1097
  126MOL    C6730317   5.297   1.791   7.819 -0.2251  0.1673  0.6352
  126MOL    H6830318   5.481   2.019   0.191  0.6453 -0.8816  1.1716
  126MOL    H6930319   5.396   2.046   0.342  0.4822  0.2651  0.2314
  126MOL    H7030320   5.248   1.847   0.245  0.0386  1.1245 -1.0193
  126MOL    H7130321   5.396   1.750   7.800 -0.4459  0.1632 -0.5903
  126MOL    H7230322   5.293   1.878   7.753  0.1295 -1.5488 -1.7398
  126MOL    H7330323   5.218   1.727   7.782 -0.2414  0.3749  0.3054
  126MOL    C7430324   5.438   1.783   0.348 -0.1328 -0.5366  0.2013
  126MOL    C7530325   5.352   1.780   0.487  0.1349  0.1573  0.3367
  126MOL    C7630326   5.216   1.703   0.483  0.4754  0.9649 -0.0984
  126MOL    O7730327   5.119   1.764   0.529  0.3517  0.1180  0.1239
  126MOL    O7830328   5.224   1.572   0.443  0.2235  0.4636  0.8335
  126MOL    C7930329   5.104   1.495   0.451 -0.0136  0.6064  0.2864
  126MOL    H8030330   5.451   1.682   0.310 -1.0423 -1.0242  1.1499
  126MOL    H8130331   5.533   1.830   0.371  1.0528 -2.4785 -0.6239
  126MOL    H8230332   5.327   1.886   0.499 -0.2044  0.1996 -0.7108
  126MOL    H8330333   5.016   1.543   0.406  0.0079  0.5571  0.1908
  126MOL    H8430334   5.076   1.467   0.552  0.6998  0.4881  0.4488
  126MOL    H8530335   5.130   1.403   0.398  2.4373  0.2122  2.1256
  126MOL    C8630336   5.435   1.739   0.610 -0.2143 -0.1936  0.1094
  126MOL    C8730337   5.524   1.844   0.673  0.1856  0.1605 -0.5351
  126MOL    C8830338   5.447   1.953   0.744  0.5978  1.2150  0.7553
  126MOL    O8930339   5.468   2.064   0.704  0.4021  0.4128  0.2902
  126MOL    O9030340   5.368   1.907   0.839  0.4205 -0.1110 -0.5232
  126MOL    C9130341   5.324   1.989   0.943  0.4289  0.5511 -0.4051
  126MOL    H9230342   5.367   1.688   0.679 -1.6786  1.8636  0.2455
  126MOL    H9330343   5.498   1.655   0.581  1.3970  1.1157 -0.2205
  126MOL    H9430344   5.587   1.897   0.602  1.5621 -2.7279 -1.5330
  126MOL    H9530345   5.221   1.966   0.972  0.3759  0.2153 -0.8494
  126MOL    H9630346   5.328   2.090   0.901  0.1464  1.4265  1.5778
  126MOL    H9730347   5.377   1.972   1.036  0.2516 -1.2407 -0.6179
  126MOL    C9830348   5.618   1.777   0.774  0.1621  0.5840  0.1111
  126MOL    C9930349   5.736   1.866   0.811  0.5140  0.4027 -0.0615
  126MOL   C10030350   5.793   1.816   0.948  0.1723  0.2533  0.7648
  126MOL   O10130351   5.775   1.882   1.051  0.1891 -0.1197  0.5697
  126MOL   O10230352   5.847   1.696   0.946  0.2022  0.3783 -0.1429
  126MOL   C10330353   5.927   1.652   1.054  0.5429  0.4866  0.5054
  126MOL   H10430354   5.556   1.753   0.860 -0.8268 -2.7800 -1.4459
  126MOL   H10530355   5.657   1.684   0.733 -0.9899 -0.1792  0.7335
  126MOL   H10630356   5.691   1.961   0.838 -0.3580  0.0399 -0.2046
  126MOL   H10730357   5.863   1.617   1.135  2.9497  0.6389  2.5364
  126MOL   H10830358   5.998   1.726   1.092 -0.2331  1.6980 -0.3427
  126MOL   H10930359   6.001   1.576   1.028  1.7210  1.6224  0.4397
  126MOL   C11030360   5.844   1.876   0.701  0.1476  0.5263 -0.3012
  126MOL   C11130361   5.941   1.999   0.702  0.5210  0.4763  0.4538
  126MOL   C11230362   5.872   2.139   0.710 -0.4970 -0.4414 -0.4263
  126MOL   O11330363   5.910   2.229   0.787 -0.3925  0.0650 -0.3948
  126MOL   O11430364   5.774   2.156   0.618  0.3907 -0.0829  0.1286
  126MOL   C11530365   5.683   2.265   0.627 -0.0982 -0.4520  0.7429
  126MOL   H11630366   5.903   1.785   0.695 -0.3035  0.2191 -0.1093
  126MOL   H11730367   5.796   1.876   0.603 -0.6663 -0.7982  0.0762
  126MOL   H11830368   5.991   2.000   0.605 -1.2107  0.4243 -0.4652
  126MOL   H11930369   5.633   2.249   0.722  0.6155  0.7201  1.3297
  126MOL   H12030370   5.615   2.255   0.542  1.2055  0.4587 -0.4393
  126MOL   H12130371   5.730   2.364   0.625 -0.0111 -0.4974 -1.4082
  126MOL   C12230372   6.047   1.987   0.808  0.1592  0.3412 -0.5877
  126MOL   C12330373   6.183   2.061   0.775  0.0468 -0.5012 -0.5346
  126MOL   C12430374   6.275   2.066   0.896 -0.3056  0.4104  0.2463
  126MOL   O12530375   6.258   1.993   0.996  0.2207  0.5710 -0.0715
  126MOL   O12630376   6.370   2.158   0.886  0.2725 -0.2930  0.0233
  126MOL   C12730377   6.460   2.185   0.991  0.3113  0.2889  0.1357
  126MOL   H12830378   6.013   2.035   0.900 -0.3712 -1.7101  0.3239
  126MOL   H12930379   6.062   1.888   0.849  2.0863  0.0402 -1.9341
  126MOL   H13030380   6.161   2.167   0.764  0.1787 -0.1307  2.4210
  126MOL   H13130381   6.400   2.189   1.081 -1.3826 -1.1867 -0.8988
  126MOL   H13230382   6.517   2.278   0.982 -0.6345  0.9013  0.4620
  126MOL   H13330383   6.522   2.096   0.996 -0.8164 -0.6074 -1.4317
  126MOL   C13430384   6.259   2.011   0.647 -0.2876 -0.0586  0.4270
  126MOL   C13530385   6.259   1.852   0.633 -0.0520  0.7245  0.9877
  126MOL   C13630386   6.232   1.806   0.486  0.2872  0.0514  0.3177
  126MOL   O13730387   6.136   1.728   0.467 -0.4569  0.2973  0.0895
  126MOL   O13830388   6.318   1.858   0.392 -0.1159  0.8113 -0.0534
  126MOL   C13930389   6.304   1.815   0.257 -0.2206  0.3513 -0.1803
  126MOL   H14030390   6.216   2.063   0.562 -0.8559 -2.3349 -0.7371
  126MOL   H14130391   6.361   2.047   0.656 -0.0478 -0.6988  0.3299
  126MOL   H14230392   6.179   1.811   0.695  0.7739 -0.5995  1.2051
  126MOL   H14330393   6.203   1.831   0.218 -0.7722 -1.4149  0.4632
  126MOL   H14430394   6.311   1.707   0.251 -4.0883  0.0540 -0.9313
  126MOL   H14530395   6.367   1.858   0.179  4.2345 -1.8153  2.0673
  126MOL   C14630396   6.386   1.784   0.692 -0.6995  0.6090  0.4147
  126MOL   C14730397   6.377   1.625   0.675  0.0887  0.1204  0.2204
  126MOL   C14830398   6.519   1.566   0.702  0.2391  0.3917 -0.2126
  126MOL   O14930399   6.611   1.633   0.751  0.3652 -0.3150  0.1482
  126MOL   O15030400   6.533   1.450   0.656  0.0219  0.7607 -0.4700
  126MOL   C15130401   6.656   1.392   0.626 -0.1770  0.6632 -0.2698
  126MOL   H15230402   6.471   1.822   0.635 -3.8181  2.6738 -3.0902
  126MOL   H15330403   6.391   1.805   0.799  1.7861 -0.0611  0.4587
  126MOL   H15430404   6.361   1.599   0.570  3.4518  0.8146 -0.5296
  126MOL   H15530405   6.687   1.415   0.524  2.8966 -0.3715  0.3758
  126MOL   H15630406   6.642   1.285   0.642 -1.5838  0.7624 -0.7395
  126MOL   H15730407   6.734   1.417   0.697  1.0299 -0.7232 -1.0894
  126MOL   C15830408   6.262   1.558   0.761  0.1601  0.9430 -0.2645
  126MOL   C15930409   6.162   1.477   0.671 -0.3079 -0.0151 -0.3385
  126MOL   C16030410   6.235   1.360   0.601  0.2023 -0.0617  0.2959
  126MOL   O16130411   6.231   1.355   0.478  0.1570  0.3796  0.2238
  126MOL   O16230412   6.289   1.267   0.682  0.3787 -0.2330 -0.7933
  126MOL   C16330413   6.342   1.154   0.623  0.2947 -0.9219 -0.5755
  126MOL   H16430414   6.315   1.490   0.827  1.6469 -0.9115 -3.2156
  126MOL   H16530415   6.214   1.635   0.821  0.9523  0.8606  0.4746
  126MOL   H16630416   6.119   1.532   0.587  0.9682 -0.1649 -1.0981
  126MOL   H16730417   6.271   1.093   0.566  1.2319 -3.9983  1.4574
  126MOL   H16830418   6.377   1.093   0.705 -0.6757  0.9264  1.2523
  126MOL   H16930419   6.417   1.181   0.548  0.5037 -0.8224 -0.3303
  126MOL   C17030420   6.038   1.430   0.757  0.4886 -0.8410  0.5162
  126MOL   C17130421   5.935   1.337   0.688 -0.6911 -0.2342 -0.1207
  126MOL   C17230422   5.841   1.282   0.796  0.0339  0.0767 -0.1975
  126MOL   O17330423   5.854   1.163   0.836  0.1460  0.9504 -0.3773
  126MOL   O17430424   5.746   1.362   0.840  0.3098  0.2409  0.2630
  126MOL   C17530425   5.664   1.316   0.944 -0.6203  0.4487  0.6083
  126MOL   H17630426   6.076   1.368   0.839  2.7600 -0.2219 -0.0191
  126MOL   H17730427   5.995   1.522   0.797  1.3086 -0.3780  0.3332
  126MOL   H17830428   5.997   1.254   0.655  1.4050  1.5708 -0.8574
  126MOL   H17930429   5.602   1.392   0.991 -2.7426 -0.6964 -0.2759
  126MOL   H18030430   5.723   1.254   1.013  0.4469  1.6281  0.7803
  126MOL   H18130431   5.589   1.251   0.899  0.2383 -0.8835  1.0552
  126MOL   C18230432   5.864   1.405   0.567 -0.2229 -0.2479 -0.4240
  126MOL   C18330433   5.815   1.303   0.456 -0.4584  0.2643 -0.0263
  126MOL   C18430434   5.685   1.234   0.506  0.3978 -0.0425 -0.0713
  126MOL   O18530435   5.586   1.300   0.539  0.2118  0.0144 -0.7184
  126MOL   O18630436   5.692   1.099   0.505  0.4617  0.2161  0.4908
  126MOL   C18730437   5.590   1.011   0.559 -0.4775  0.0332  0.2304
  126MOL   H18830438   5.768   1.451   0.590 -0.7436 -0.4174 -2.2152
  126MOL   H18930439   5.919   1.490   0.526 -1.2954  2.3332  3.1843
  126MOL   H19030440   5.894   1.233   0.430 -0.9399 -0.9890  1.7472
  126MOL   H19130441   5.495   1.028   0.510  0.9683  0.8879 -2.3627
  126MOL   H19230442   5.581   1.030   0.666  2.9819 -1.3524  0.8560
  126MOL   H19330443   5.630   0.911   0.542  2.5285  1.0461  1.0522
  126MOL   C19430444   5.777   1.380   0.325  0.8084 -1.0523 -0.4837
  126MOL   C19530445   5.773   1.292   0.198 -0.4211  0.1058  0.1207
  126MOL   C19630446   5.633   1.235   0.169  0.3855  0.3151  0.5577
  126MOL   O19730447   5.611   1.115   0.160 -0.3696  0.2249 -0.0696
  126MOL   O19830448   5.543   1.330   0.171 -0.1466 -0.0822  0.2621
  126MOL   C19930449   5.402   1.299   0.155 -0.1237  0.5450  0.7525
  126MOL   H20030450   5.702   1.460   0.329  0.8988 -1.0249  0.8880
  126MOL   H20130451   5.860   1.447   0.301  1.3253 -2.4576 -2.7511
  126MOL   H20230452   5.839   1.209   0.224 -0.4212 -0.0911 -0.5196
  126MOL   H20330453   5.346   1.393   0.157 -1.4657 -0.2364  0.2221
  126MOL   H20430454   5.376   1.220   0.225 -1.1408  1.2491  1.1791
  126MOL   H20530455   5.392   1.255   0.056  2.9984 -0.6464  0.9245
  126MOL   C20630456   5.822   1.377   0.076  0.0744 -0.1110  0.0434
  126MOL   C20730457   5.852   1.296   7.881  0.2726  0.3200  0.0505
  126MOL   C20830458   5.814   1.384   7.762  0.5421 -0.4653 -0.0743
  126MOL   O20930459   5.898   1.456   7.701  0.7464  0.3939 -0.0854
  126MOL   O21030460   5.689   1.372   7.724  0.1035 -0.4246 -0.7098
  126MOL   C21130461   5.644   1.462   7.625  0.8105  0.1692 -0.2633
  126MOL   H21230462   5.751   1.455   0.052 -0.4572  0.1433  2.3054
  126MOL   H21330463   5.919   1.421   0.102  0.7970 -1.2351 -0.6715
  126MOL   H21430464   5.780   1.215   7.869  2.9074 -2.0997 -0.0179
  126MOL   H21530465   5.699   1.447   7.531  1.2869 -2.3817  0.3915
  126MOL   H21630466   5.658   1.566   7.653  1.1789  0.9093 -2.9943
  126MOL   H21730467   5.540   1.450   7.594  0.9394 -0.9985 -0.2593
  126MOL   C21830468   5.985   1.220   7.887  0.4223 -0.2006 -0.2484
  126MOL   C21930469   5.985   1.091   7.805  0.2993 -0.0490  0.1431
  126MOL   C22030470   6.129   1.040   7.775  0.4652 -0.3946 -0.2119
  126MOL   O22130471   6.215   1.074   7.854 -0.0805  0.0371  0.7893
  126MOL   O22230472   6.140   0.960   7.669 -0.0259  0.3700  0.1733
  126MOL   C22330473   6.270   0.925   7.633  0.2949  0.1847  0.5046
  126MOL   H22430474   6.062   1.286   7.847 -1.2091  1.3057 -0.9833
  126MOL   H22530475   6.010   1.200   0.058  1.2306  0.4446 -0.3135
  126MOL   H22630476   5.944   1.106   7.705 -0.1969 -2.0819  0.0204
  126MOL   H22730477   6.270   0.833   7.575  0.9979 -0.6343  1.7808
  126MOL   H22830478   6.331   0.890   7.716 -0.6962  0.9462  1.5609
  126MOL   H22930479   6.333   1.004   7.592  2.1037 -1.1112  0.7562
  126MOL   C23030480   5.904   0.982   7.885 -0.1170 -0.6591  0.4898
  126MOL   C23130481   5.895   0.849   7.808  0.0796  0.4841  0.8102
  126MOL   C23230482   5.804   0.868   7.678 -0.3912  0.0102 -0.8372
  126MOL   O23330483   5.696   0.924   7.681 -0.2783 -0.0404  0.1117
  126MOL   O23430484   5.865   0.821   7.569  0.5779  0.3472 -0.0621
  126MOL   C23530485   5.807   0.841   7.445  0.1546  0.3578 -0.2982
  126MOL   H23630486   5.948   0.959   0.049  1.4410  0.1166 -0.0199
  126MOL   H23730487   5.810   1.030   7.912 -1.3527 -2.1655 -1.0448
  126MOL   H23830488   5.838   0.774   7.863  0.2309  0.4254  0.8848
  126MOL   H23930489   5.871   0.819   7.360 -2.0566  0.2496 -1.9767
  126MOL   H24030490   5.771   0.944   7.442  2.4633  1.1782 -1.2821
  126MOL   H24130491   5.715   0.783   7.441  1.0160 -0.9605 -1.6430
  126MOL   H24230492   5.991   0.803   7.788 -1.2840 -2.2418  0.2925
  127MOL     C130493   2.916   0.615   0.437 -0.0914 -0.1136  0.4123
  127MOL     C230494   2.917   0.772   0.462  0.3923 -0.1007 -0.1494
  127MOL     C330495   2.990   0.860   0.355 -0.2958  0.4194  0.0185
  127MOL     O430496   3.014   0.817   0.240  0.4092 -0.1136  0.0967
  127MOL     O530497   3.026   0.977   0.408  0.4809  0.1380 -0.5058
  127MOL     C630498   3.077   1.080   0.332  0.6177 -0.5662 -0.3915
  127MOL     H730499   2.917   0.556   0.528 -1.4231 -2.2723 -0.9264
  127MOL     H830500   3.002   0.595   0.373 -1.9900 -0.9837 -1.9483
  127MOL     H930501   2.976   0.793   0.551  2.3827 -2.3408 -0.8923
  127MOL    H1030502   3.173   1.105   0.375  0.2663  1.6624 -0.8530
  127MOL    H1130503   3.016   1.170   0.326  0.5395 -0.6799 -1.2555
  127MOL    H1230504   3.090   1.075   0.224  2.7653 -0.9867 -0.1223
  127MOL    H1330505   2.824   0.581   0.389  0.4478 -2.8407  1.2683
  127MOL    C1430506   2.768   0.817   0.472 -0.3726  0.6959  0.0099
  127MOL    C1530507   2.747   0.944   0.559 -0.2608  0.4760  0.0077
  127MOL    C1630508   2.604   0.993   0.562 -0.1759  0.4430 -0.8647
  127MOL    O1730509   2.511   0.922   0.527 -0.3600 -0.3076 -0.3884
  127MOL    O1830510   2.590   1.119   0.615 -0.2951  0.0768  0.1720
  127MOL    C1930511   2.460   1.182   0.605  0.2636  0.8120 -0.5326
  127MOL    H2030512   2.733   0.844   0.372  0.7833 -2.0871 -1.2188
  127MOL    H2130513   2.697   0.739   0.500  0.5432 -0.5739 -1.1253
  127MOL    H2230514   2.794   1.023   0.498  0.0634  0.0758 -0.2655
  127MOL    H2330515   2.390   1.152   0.682 -0.0979  1.8980 -0.4251
  127MOL    H2430516   2.415   1.170   0.507 -0.9524  2.3722 -0.1809
  127MOL    H2530517   2.480   1.288   0.625  1.9861  0.6694 -1.3759
  127MOL    C2630518   2.812   0.941   0.699  0.2410  0.2892 -0.6516
  127MOL    C2730519   2.935   1.026   0.734  0.1195  0.3425  0.0308
  127MOL    C2830520   2.899   1.179   0.709  0.4539  0.8560 -0.6519
  127MOL    O2930521   2.959   1.247   0.630  0.4161  0.0497  0.5099
  127MOL    O3030522   2.803   1.214   0.794 -0.1518  0.2122  0.1249
  127MOL    C3130523   2.751   1.344   0.784 -0.0294  0.5029 -0.3500
  127MOL    H3230524   2.733   0.951   0.773 -0.3945  1.6401 -1.4853
  127MOL    H3330525   2.838   0.838   0.724  0.3993  0.3495 -0.5715
  127MOL    H3430526   3.011   0.991   0.665  0.3068 -0.8224  0.8151
  127MOL    H3530527   2.694   1.359   0.692 -0.0668 -1.7698 -0.7174
  127MOL    H3630528   2.822   1.424   0.805 -0.0406 -0.2182  2.5970
  127MOL    H3730529   2.676   1.353   0.861  1.5640  1.4537  1.1347
  127MOL    C3830530   2.979   0.996   0.884  0.1993  0.0320  0.3897
  127MOL    C3930531   3.114   1.059   0.921  0.0839 -0.4412  0.0834
  127MOL    C4030532   3.111   1.168   1.025 -0.6536  0.0530  0.8766
  127MOL    O4130533   3.094   1.145   1.150 -0.3314 -0.1396  0.4293
  127MOL    O4230534   3.114   1.293   0.979  0.4014 -0.4623 -0.4168
  127MOL    C4330535   3.121   1.406   1.067  0.5086 -0.2575  0.7084
  127MOL    H4430536   2.910   1.030   0.961 -0.9468 -2.3739  0.4912
  127MOL    H4530537   2.983   0.890   0.910  0.8857  0.2605  1.2120
  127MOL    H4630538   3.150   1.107   0.830  0.9672 -1.9262 -0.3804
  127MOL    H4730539   3.172   1.372   1.157 -2.2833 -0.8751  2.1269
  127MOL    H4830540   3.022   1.437   1.102  0.3538  0.4097 -0.3092
  127MOL    H4930541   3.169   1.493   1.022 -0.7642 -0.3271 -0.8516
  127MOL    C5030542   3.192   0.939   0.974 -1.7690  0.7993  0.1711
  127MOL    C5130543   3.247   0.832   0.875  0.4218  0.6092  0.9018
  127MOL    C5230544   3.359   0.888   0.786 -0.2887  0.2280  0.4889
  127MOL    O5330545   3.462   0.945   0.826 -0.1203 -0.0095 -0.4717
  127MOL    O5430546   3.325   0.868   0.649 -0.0500  0.6763  0.4845
  127MOL    C5530547   3.399   0.927   0.548 -0.1442 -0.4845 -0.3175
  127MOL    H5630548   3.282   0.977   1.022 -0.5052 -1.8928  0.0091
  127MOL    H5730549   3.148   0.884   1.057 -0.4723 -0.9199 -0.2588
  127MOL    H5830550   3.167   0.814   0.803  0.8954  0.0724  0.4985
  127MOL    H5930551   3.503   0.951   0.572 -0.6784  1.5322  0.0731
  127MOL    H6030552   3.352   1.014   0.502  0.4811  0.0950  0.1378
  127MOL    H6130553   3.393   0.852   0.469  0.4753 -1.7205  0.7873
  127MOL    C6230554   3.293   0.693   0.928 -0.1624 -0.3636  0.1635
  127MOL    C6330555   3.193   0.611   1.004  0.3752 -0.8043  0.2668
  127MOL    C6430556   3.078   0.570   0.909 -0.0551 -1.2480  0.4580
  127MOL    O6530557   3.089   0.565   0.788 -0.2351  0.5092 -0.4813
  127MOL    O6630558   2.964   0.540   0.976 -0.2688 -0.4222 -0.6989
  127MOL    C6730559   2.857   0.489   0.893 -0.3748  0.1433 -0.0919
  127MOL    H6830560   3.331   0.634   0.845  0.6168 -0.3367  0.4920
  127MOL    H6930561   3.379   0.710   0.994  0.4633 -2.0238 -0.1953
  127MOL    H7030562   3.137   0.681   1.067  2.8080  2.1225 -0.7069
  127MOL    H7130563   2.896   0.423   0.816 -1.1896 -1.0217  0.4717
  127MOL    H7230564   2.804   0.573   0.848  0.0335 -0.9120 -2.5984
  127MOL    H7330565   2.799   0.432   0.966  2.1854 -4.0609 -1.1427
  127MOL    C7430566   3.244   0.493   1.092 -0.2631  0.2383 -0.4534
  127MOL    C7530567   3.324   0.540   1.214 -0.0735  0.5873 -0.4857
  127MOL    C7630568   3.263   0.653   1.296  0.4534  0.0045 -0.5237
  127MOL    O7730569   3.175   0.638   1.379 -0.4759  0.2964 -0.2905
  127MOL    O7830570   3.324   0.773   1.253  1.2587  0.4175 -0.0453
  127MOL    C7930571   3.262   0.885   1.316 -0.8306  0.0462 -0.1841
  127MOL    H8030572   3.151   0.448   1.128 -0.5924 -0.5548 -2.2353
  127MOL    H8130573   3.301   0.422   1.033 -1.6506 -1.6835  0.4440
  127MOL    H8230574   3.420   0.581   1.184 -1.2404  3.8641  0.0376
  127MOL    H8330575   3.327   0.968   1.287  0.6565 -0.9670  0.1945
  127MOL    H8430576   3.273   0.876   1.424 -0.2165  0.0183 -0.2444
  127MOL    H8530577   3.162   0.899   1.276 -1.5820 -0.8605  1.3483
  127MOL    C8630578   3.359   0.425   1.313  0.0886  0.2846  0.3893
  127MOL    C8730579   3.414   0.290   1.254 -0.3701 -0.8110 -0.1142
  127MOL    C8830580   3.551   0.308   1.186  0.8772  0.7588 -0.1425
  127MOL    O8930581   3.637   0.398   1.218  0.0268 -0.4610  0.6187
  127MOL    O9030582   3.573   0.209   1.099  0.1436  0.8376  0.2080
  127MOL    C9130583   3.692   0.206   1.021  0.0962  0.8131 -0.1759
  127MOL    H9230584   3.424   0.469   1.389 -0.5639  0.2243  0.9920
  127MOL    H9330585   3.269   0.409   1.372  0.4038  1.8851  1.3584
  127MOL    H9430586   3.347   0.268   1.170 -0.5723  0.4936 -0.3105
  127MOL    H9530587   3.731   0.105   1.017 -0.8830  0.3182  2.1262
  127MOL    H9630588   3.779   0.257   1.064  0.9393 -2.1866  1.8521
  127MOL    H9730589   3.683   0.251   0.922 -0.2745  3.8523  1.1647
  127MOL    C9830590   3.407   0.169   1.343 -1.1017 -0.2665 -0.0528
  127MOL    C9930591   3.468   0.183   1.482  0.7777 -0.8716  0.3336
  127MOL   C10030592   3.369   0.263   1.572 -0.4412  0.0411  0.2014
  127MOL   O10130593   3.415   0.347   1.648 -0.2590 -0.1556 -0.4122
  127MOL   O10230594   3.238   0.225   1.568  0.3288 -0.1543 -0.1000
  127MOL   C10330595   3.140   0.281   1.650  0.3666 -0.0237 -0.8760
  127MOL   H10430596   3.303   0.140   1.359 -1.0774  0.1781  0.9183
  127MOL   H10530597   3.452   0.087   1.287  2.0878  2.3795 -1.4773
  127MOL   H10630598   3.560   0.238   1.465  0.4898 -0.6372 -0.5072
  127MOL   H10730599   3.054   0.218   1.675  0.1831  0.2462 -0.8293
  127MOL   H10830600   3.109   0.379   1.615 -1.1257  0.1278  0.8259
  127MOL   H10930601   3.178   0.299   1.750 -2.1478 -1.6499  0.4492
  127MOL   C11030602   3.517   0.055   1.553  0.2461 -0.2109  0.9476
  127MOL   C11130603   3.407   7.901   1.620 -0.2038  0.1333 -0.3461
  127MOL   C11230604   3.314   7.824   1.524 -1.1376  0.0673  0.3134
  127MOL   O11330605   3.195   7.856   1.519 -0.4507 -0.2390 -0.6598
  127MOL   O11430606   3.378   7.739   1.435  0.6226 -0.0251  0.1039
  127MOL   C11530607   3.294   7.658   1.361 -0.9267 -0.0724 -0.1995
  127MOL   H11630608   3.576   7.923   1.489  1.2737 -0.1481  1.8242
  127MOL   H11730609   3.589   0.090   1.627  0.9604  0.0165  0.1406
  127MOL   H11830610   3.336   0.034   1.671  1.4747  1.4472  0.3515
  127MOL   H11930611   3.341   7.624   1.268 -1.7080  0.2667 -0.7312
  127MOL   H12030612   3.213   7.719   1.320 -0.7326  0.2683 -0.0757
  127MOL   H12130613   3.257   7.568   1.410 -1.3547  1.7654  2.9286
  127MOL   C12230614   3.472   7.803   1.731 -0.4952  0.4018  0.1484
  127MOL   C12330615   3.443   7.857   1.876 -0.0212  0.1349  0.2067
  127MOL   C12430616   3.501   0.062   1.914  0.0832 -0.1744 -0.1096
  127MOL   O12530617   3.620   0.076   1.941  0.4887 -0.1416 -0.1228
  127MOL   O12630618   3.410   0.160   1.927 -0.3047 -0.3492 -0.0874
  127MOL   C12730619   3.446   0.303   1.956 -0.4451 -0.2231  0.1589
  127MOL   H12830620   3.434   7.703   1.710 -1.3891  0.6638  0.4879
  127MOL   H12930621   3.577   7.789   1.707 -0.8910 -2.2358 -0.1872
  127MOL   H13030622   3.492   7.792   1.948 -0.7942  0.0696  0.6707
  127MOL   H13130623   3.479   0.308   2.060  2.0680 -0.5431 -0.5810
  127MOL   H13230624   3.359   0.364   1.934  1.2358  1.4746 -2.0322
  127MOL   H13330625   3.531   0.341   1.898 -1.7107  1.1835 -0.8072
  127MOL   C13430626   3.291   7.839   1.910 -0.1684  0.2316 -0.0952
  127MOL   C13530627   3.255   7.799   2.054 -0.0735 -0.0169 -0.0300
  127MOL   C13630628   3.261   7.914   2.155 -0.5776  0.5045 -0.7732
  127MOL   O13730629   3.337   7.905   2.251  0.4313 -0.4389  0.4549
  127MOL   O13830630   3.160   0.072   2.147 -0.0062 -0.1627  0.5153
  127MOL   C13930631   3.182   0.190   2.224  0.3174 -0.1234 -0.1703
  127MOL   H14030632   3.231   7.918   1.864  0.2286  1.7094  1.8363
  127MOL   H14130633   3.280   7.739   1.870  0.9290 -0.6426  1.7059
  127MOL   H14230634   3.333   7.729   2.082 -2.1575 -2.1900  0.4969
  127MOL   H14330635   3.144   0.274   2.165  4.2038  3.1868  1.8270
  127MOL   H14430636   3.285   0.211   2.253 -0.4810  2.2477  1.1416
  127MOL   H14530637   3.138   0.195   2.323 -4.1079  0.8641 -2.0236
  127MOL   C14630638   3.114   7.730   2.049  0.2861  0.1160 -0.2860
  127MOL   C14730639   3.062   7.673   2.185  0.0107 -0.4910  1.3208
  127MOL   C14830640   2.912   7.642   2.162  0.8147  0.2462 -0.3869
  127MOL   O14930641   2.826   7.695   2.233  0.1931 -0.8261 -0.1899
  127MOL   O15030642   2.886   7.545   2.070 -0.3242  0.2735  0.3773
  127MOL   C15130643   2.758   7.502   2.041  0.0633  1.0458  0.2617
  127MOL   H15230644   3.045   7.804   2.011  1.2828 -0.0916 -2.5696
  127MOL   H15330645   3.125   7.649   1.977  1.6050  0.8911 -0.9934
  127MOL   H15430646   3.063   7.755   2.256 -0.7545  3.0127 -2.5013
  127MOL   H15530647   2.705   7.469   2.131 -1.0685  0.9879 -0.4199
  127MOL   H15630648   2.761   7.417   1.973 -0.2149  1.3127 -0.0847
  127MOL   H15730649   2.703   7.585   1.996  0.0847 -0.4599 -2.6636
  127MOL   C15830650   3.148   7.549   2.232  0.3185  0.0606 -0.2038
  127MOL   C15930651   3.157   7.533   2.381 -0.2590  0.2281  0.1167
  127MOL   C16030652   3.019   7.524   2.447  0.0656 -0.0573 -0.2526
  127MOL   O16130653   2.966   7.617   2.504  0.2637  0.2110 -0.0569
  127MOL   O16230654   2.966   7.401   2.429  0.7189  0.2003  0.4505
  127MOL   C16330655   2.828   7.379   2.472  0.1513 -0.5875  0.4871
  127MOL   H16430656   3.101   7.459   2.192 -2.0385  1.8294 -1.4948
  127MOL   H16530657   3.249   7.551   2.190  0.6707 -0.8845  0.5771
  127MOL   H16630658   3.204   7.622   2.423  1.4242 -0.8609  0.5603
  127MOL   H16730659   2.817   7.392   2.580  0.3159 -0.4933  0.4926
  127MOL   H16830660   2.814   7.273   2.451  0.0333 -0.8339  1.7308
  127MOL   H16930661   2.758   7.451   2.429 -0.7058 -1.7522 -0.1086
  127MOL   C17030662   3.241   7.410   2.425 -0.6369 -0.3376 -0.4439
  127MOL   C17130663   3.399   7.433   2.406  0.5499  0.1633  0.9073
  127MOL   C17230664   3.469   7.481   2.534  0.1325 -0.2558 -0.0442
  127MOL   O17330665   3.565   7.426   2.582  0.2546 -0.2093  0.0727
  127MOL   O17430666   3.419   7.591   2.588 -0.0775 -0.3425 -0.8601
  127MOL   C17530667   3.481   7.641   2.708  0.2495 -0.8046 -0.4989
  127MOL   H17630668   3.216   7.395   2.530 -0.1989  0.5824 -0.2026
  127MOL   H17730669   3.209   7.321   2.370  1.4009 -1.4179  0.0674
  127MOL   H17830670   3.435   7.502   2.330  1.9203 -0.0981  1.3202
  127MOL   H17930671   3.585   7.667   2.694 -0.1275  1.0532  0.0229
  127MOL   H18030672   3.464   7.574   2.793 -1.2538  1.6716  1.2289
  127MOL   H18130673   3.426   7.731   2.737  0.3612 -0.9711  0.2329
  127MOL   C18230674   3.464   7.305   2.350  0.5253  0.1336 -0.3788
  127MOL   C18330675   3.406   7.270   2.208 -0.3452  0.2795 -0.1460
  127MOL   C18430676   3.466   7.365   2.099 -0.4034  0.2513  0.1701
  127MOL   O18530677   3.534   7.462   2.131 -0.2892 -0.1221  0.3947
  127MOL   O18630678   3.448   7.327   1.979 -0.3021  0.9131 -0.4644
  127MOL   C18730679   3.497   7.397   1.870 -0.3059 -0.4725  0.3345
  127MOL   H18830680   3.572   7.312   2.336  0.4613  0.8092 -0.5572
  127MOL   H18930681   3.456   7.217   2.414  0.9193  0.4323  0.0861
  127MOL   H19030682   3.299   7.288   2.200 -0.1454  1.1248 -1.0954
  127MOL   H19130683   3.479   7.344   1.776  0.2459 -3.1087  1.6497
  127MOL   H19230684   3.606   7.390   1.877 -0.1898  0.0353 -0.7575
  127MOL   H19330685   3.464   7.500   1.870  1.6588  0.1867 -0.7276
  127MOL   C19430686   3.437   7.126   2.171 -0.6905  0.3547 -0.4096
  127MOL   C19530687   3.366   7.016   2.254 -0.3517  0.2174  0.0421
  127MOL   C19630688   3.217   7.013   2.266 -0.3797  0.2656 -0.1543
  127MOL   O19730689   3.167   6.931   2.340  0.8611  0.5311 -0.7136
  127MOL   O19830690   3.148   7.101   2.192 -0.1616  0.0074 -0.2295
  127MOL   C19930691   3.008   7.089   2.162  0.1678 -0.0078 -1.0018
  127MOL   H20030692   3.412   7.106   2.067 -1.6133 -2.9676  0.3582
  127MOL   H20130693   3.545   7.112   2.177 -0.9513 -0.9723  1.6078
  127MOL   H20230694   3.388   7.043   2.357 -0.2771  0.3716 -0.0141
  127MOL   H20330695   2.999   6.990   2.116 -2.0824 -0.4612  0.3483
  127MOL   H20430696   2.987   7.165   2.087 -0.1600  0.4302 -0.4708
  127MOL   H20530697   2.953   7.097   2.256  1.3984  0.0207 -0.2667
  127MOL   C20630698   3.432   6.875   2.236 -0.2793 -0.2393  0.4618
  127MOL   C20730699   3.356   6.770   2.141  0.6620  0.1121  1.0232
  127MOL   C20830700   3.306   6.832   2.006 -0.3540  0.1999  0.0138
  127MOL   O20930701   3.183   6.847   1.984 -0.2861  0.5743 -0.4891
  127MOL   O21030702   3.402   6.872   1.926  0.0408  0.3357 -0.4393
  127MOL   C21130703   3.365   6.930   1.804  0.5225 -0.2628  0.4190
  127MOL   H21230704   3.531   6.881   2.191 -0.0947 -0.7290  0.7965
  127MOL   H21330705   3.456   6.814   2.324  1.1748  1.0064  0.9395
  127MOL   H21430706   3.264   6.743   2.190  0.6757 -2.3010 -0.2225
  127MOL   H21530707   3.370   6.857   1.724  2.2202 -0.3712  0.6025
  127MOL   H21630708   3.424   7.009   1.758  1.4318 -1.4292 -0.4389
  127MOL   H21730709   3.267   6.978   1.805  1.7894  2.4414 -0.4484
  127MOL   C21830710   3.442   6.648   2.110 -0.0778 -0.7233  0.4936
  127MOL   C21930711   3.399   6.546   2.000  0.0842  0.0799  0.3012
  127MOL   C22030712   3.511   6.443   1.977  0.0954  0.3942 -0.6079
  127MOL   O22130713   3.599   6.427   2.064  0.5044  0.4062  0.4441
  127MOL   O22230714   3.506   6.377   1.865 -0.5631  0.0823  0.3470
  127MOL   C22330715   3.614   6.291   1.817 -0.0307  0.3081  0.0897
  127MOL   H22430716   3.541   6.669   2.067 -1.0451 -0.3434 -1.6329
  127MOL   H22530717   3.461   6.593   2.202  0.7643 -1.6195 -0.2033
  127MOL   H22630718   3.384   6.585   1.900  0.2460 -0.6411 -0.0077
  127MOL   H22730719   3.681   6.354   1.758 -1.4935  2.3610  0.5751
  127MOL   H22830720   3.575   6.215   1.748  2.2532 -1.0355  0.2256
  127MOL   H22930721   3.664   6.248   1.903 -0.5597 -1.4696 -0.4479
  127MOL   C23030722   3.272   6.464   2.035  0.0395  0.5553  0.2238
  127MOL   C23130723   3.144   6.495   1.958 -0.7914 -1.1065  0.7712
  127MOL   C23230724   3.160   6.501   1.809  0.5241  0.5770  0.3667
  127MOL   O23330725   3.173   6.603   1.746 -0.0482 -0.4721  0.3094
  127MOL   O23430726   3.165   6.375   1.751  0.0759  0.3321  0.7680
  127MOL   C23530727   3.174   6.361   1.611 -0.0797  0.4784  0.6341
  127MOL   H23630728   3.279   6.356   2.024 -3.9045  0.4058 -1.6595
  127MOL   H23730729   3.247   6.467   2.142 -0.4375 -1.7948  0.1979
  127MOL   H23830730   3.113   6.594   1.994  0.5456 -0.0704 -0.8757
  127MOL   H23930731   3.222   6.266   1.586 -1.5833  0.1714 -1.1089
  127MOL   H24030732   3.241   6.439   1.575 -0.8983  0.2029 -1.5559
  127MOL   H24130733   3.075   6.360   1.565  0.0207 -0.3443  0.4247
  127MOL   H24230734   3.073   6.418   1.987 -1.0073 -1.1281  0.1693
  128MOL     C130735   1.703   5.173   0.689 -0.0570 -0.1340  0.5476
  128MOL     C230736   1.664   5.062   0.782  0.1795  0.0616 -0.5901
  128MOL     C330737   1.577   5.115   0.895  0.5294 -0.8733  0.2195
  128MOL     O430738   1.620   5.133   1.008 -0.4070  0.1893  0.6745
  128MOL     O530739   1.453   5.153   0.853 -0.2223 -0.2365 -0.2060
  128MOL     C630740   1.358   5.204   0.944 -0.0956  0.0117  0.6149
  128MOL     H730741   1.781   5.238   0.729 -0.3249 -0.0246  0.8963
  128MOL     H830742   1.617   5.240   0.682 -0.2907 -0.3435  1.4081
  128MOL     H930743   1.752   5.015   0.824 -0.2560  0.3422  0.6404
  128MOL    H1030744   1.280   5.254   0.887 -0.0251 -0.9843 -0.3472
  128MOL    H1130745   1.397   5.279   1.014 -0.5379  2.4316 -1.6521
  128MOL    H1230746   1.315   5.126   1.007 -0.0421  0.8942  1.7669
  128MOL    H1330747   1.740   5.139   0.592 -0.9325  1.1264 -0.2377
  128MOL    C1430748   1.593   4.941   0.714  0.0518  0.5117  0.5388
  128MOL    C1530749   1.579   4.829   0.816  0.1957  0.2366 -0.3829
  128MOL    C1630750   1.433   4.788   0.837 -0.1274  0.1073 -0.3080
  128MOL    O1730751   1.370   4.832   0.935 -0.5891 -0.1480  0.4549
  128MOL    O1830752   1.385   4.701   0.743  0.0524 -0.1044 -0.3536
  128MOL    C1930753   1.251   4.656   0.750 -0.1317 -0.1970 -0.2284
  128MOL    H2030754   1.497   4.963   0.668  0.0390 -0.4204  0.1164
  128MOL    H2130755   1.653   4.908   0.629 -1.8760 -2.3015  0.2021
  128MOL    H2230756   1.603   4.863   0.917 -2.4217  3.5563 -0.8025
  128MOL    H2330757   1.237   4.596   0.840  0.0605  1.4697  0.9520
  128MOL    H2430758   1.223   4.604   0.659 -0.4732  0.3566 -0.4376
  128MOL    H2530759   1.180   4.738   0.759  2.5260  2.0621  1.5304
  128MOL    C2630760   1.668   4.701   0.785  0.2392  0.4583  0.2842
  128MOL    C2730761   1.810   4.705   0.850  0.4691 -0.2128  0.1114
  128MOL    C2830762   1.813   4.736   1.006 -0.3200 -0.2594  0.8297
  128MOL    O2930763   1.862   4.838   1.055 -0.0620  0.0903 -0.0167
  128MOL    O3030764   1.748   4.641   1.072 -0.0222 -0.0152 -0.2179
  128MOL    C3130765   1.782   4.632   1.208 -0.2414  0.1330 -0.2088
  128MOL    H3230766   1.627   4.605   0.816  0.5125 -0.5594 -2.3530
  128MOL    H3330767   1.680   4.689   0.677 -0.2358 -2.2717  0.4957
  128MOL    H3430768   1.851   4.791   0.797 -1.0848  0.5105  0.0507
  128MOL    H3530769   1.789   4.725   1.264 -0.0101  0.0610 -0.1188
  128MOL    H3630770   1.871   4.570   1.218 -0.3926 -0.0684 -0.1083
  128MOL    H3730771   1.695   4.583   1.252 -3.0208  3.0235 -2.2746
  128MOL    C3830772   1.885   4.584   0.795 -0.1177 -0.3414  0.4175
  128MOL    C3930773   2.032   4.574   0.844  0.7230 -0.2618  0.5510
  128MOL    C4030774   2.084   4.445   0.786 -0.4712  0.8130 -0.6021
  128MOL    O4130775   2.117   4.426   0.668 -0.5058 -0.4153 -0.2157
  128MOL    O4230776   2.096   4.356   0.887 -0.2624 -0.6593  0.1626
  128MOL    C4330777   2.175   4.239   0.864 -0.3405 -0.4275 -0.0006
  128MOL    H4430778   1.837   4.492   0.825 -0.4439 -0.4596 -0.4513
  128MOL    H4530779   1.880   4.575   0.686  1.8728  1.5616  0.1155
  128MOL    H4630780   2.029   4.563   0.953  1.3439 -2.1054  0.4078
  128MOL    H4730781   2.111   4.163   0.820  0.9253 -1.9784  0.7661
  128MOL    H4830782   2.219   4.199   0.955 -1.8543  1.0016  1.3909
  128MOL    H4930783   2.247   4.260   0.785 -2.2197 -3.3709 -2.5891
  128MOL    C5030784   2.116   4.694   0.801 -0.3655  0.7481 -0.3038
  128MOL    C5130785   2.251   4.704   0.866 -0.1091  0.5241 -0.2151
  128MOL    C5230786   2.355   4.600   0.830 -0.6858 -0.4620  0.3541
  128MOL    O5330787   2.422   4.539   0.916 -0.0564  0.1487 -0.6360
  128MOL    O5430788   2.372   4.598   0.697 -0.2412  1.2939 -0.5810
  128MOL    C5530789   2.495   4.549   0.648 -0.1566 -0.7603  0.1732
  128MOL    H5630790   2.125   4.706   0.693  1.4111 -1.3378 -0.4069
  128MOL    H5730791   2.069   4.785   0.839 -0.7705  0.1926  0.5391
  128MOL    H5830792   2.231   4.693   0.973  0.0633  2.1456  0.0038
  128MOL    H5930793   2.575   4.604   0.698 -0.7787  0.2936  0.0335
  128MOL    H6030794   2.505   4.549   0.539  0.7746 -1.6760  0.2486
  128MOL    H6130795   2.519   4.445   0.671 -0.3096 -1.2278 -1.6473
  128MOL    C6230796   2.319   4.843   0.843  0.4802 -0.2709  0.0464
  128MOL    C6330797   2.410   4.884   0.969  0.0457  0.5601 -0.1390
  128MOL    C6430798   2.538   4.955   0.943 -0.2745  0.6391 -0.3778
  128MOL    O6530799   2.544   5.041   0.857 -0.2645  0.1250 -0.1065
  128MOL    O6630800   2.634   4.906   1.015 -0.0194 -0.4740  0.0285
  128MOL    C6730801   2.765   4.960   1.015 -0.0911  0.3756  0.0018
  128MOL    H6830802   2.382   4.844   0.754 -0.7831  1.9563 -0.8643
  128MOL    H6930803   2.236   4.910   0.821  0.9537 -0.1710 -1.5085
  128MOL    H7030804   2.428   4.790   1.022 -0.2437 -0.5175 -1.8926
  128MOL    H7130805   2.793   5.002   1.111  0.6186 -0.7225  0.2835
  128MOL    H7230806   2.774   5.039   0.939 -0.6295  2.1218  1.7078
  128MOL    H7330807   2.836   4.881   0.991 -0.7107  0.6797 -3.0239
  128MOL    C7430808   2.319   4.949   1.074  0.5616 -0.0838  0.4438
  128MOL    C7530809   2.311   5.106   1.078  0.1044  0.8669  0.7003
  128MOL    C7630810   2.168   5.163   1.099  0.1953 -0.4034 -0.1914
  128MOL    O7730811   2.148   5.241   1.192 -0.4773 -0.3000  0.6541
  128MOL    O7830812   2.081   5.124   1.006 -0.5089  0.3025  0.1920
  128MOL    C7930813   1.946   5.155   1.019  0.3447  0.4826  0.1058
  128MOL    H8030814   2.219   4.915   1.049  0.8101 -0.4970  0.0034
  128MOL    H8130815   2.340   4.922   1.178 -0.5564  0.9725  0.9611
  128MOL    H8230816   2.322   5.149   0.979  1.5995 -2.0783 -0.4659
  128MOL    H8330817   1.918   5.178   0.916  0.9883 -0.5527 -0.3093
  128MOL    H8430818   1.939   5.241   1.087  4.3928  0.5368  0.5705
  128MOL    H8530819   1.884   5.072   1.052  0.7288  1.3932  3.3389
  128MOL    C8630820   2.422   5.177   1.159 -0.5436 -0.1265  0.4965
  128MOL    C8730821   2.420   5.150   1.312  0.8031 -0.1182 -0.5234
  128MOL    C8830822   2.534   5.065   1.369  0.0856  0.0098 -0.2175
  128MOL    O8930823   2.511   4.961   1.421 -0.8038  0.0862 -0.4461
  128MOL    O9030824   2.655   5.133   1.364 -0.1436  0.1420 -0.3860
  128MOL    C9130825   2.757   5.094   1.454 -0.1435 -0.7064  0.3412
  128MOL    H9230826   2.520   5.147   1.121  0.1679  1.3420  1.1202
  128MOL    H9330827   2.410   5.282   1.131  0.2267  0.1079  1.0333
  128MOL    H9430828   2.331   5.089   1.328  0.0737  1.3881  1.3579
  128MOL    H9530829   2.744   4.998   1.504  1.0269  0.6598  3.4264
  128MOL    H9630830   2.768   5.166   1.535  1.8795  2.2169 -2.4325
  128MOL    H9730831   2.846   5.085   1.392 -0.3736 -0.9958  0.0514
  128MOL    C9830832   2.391   5.285   1.390 -0.1467  0.4931  0.9692
  128MOL    C9930833   2.379   5.269   1.544 -0.3274 -0.3169 -0.2468
  128MOL   C10030834   2.390   5.401   1.615  0.6697  0.5189  0.0299
  128MOL   O10130835   2.291   5.468   1.642  0.0546  0.1772  0.3868
  128MOL   O10230836   2.514   5.440   1.628 -0.2236  0.2148 -0.5656
  128MOL   C10330837   2.547   5.552   1.704 -0.0696  0.2581 -0.5709
  128MOL   H10430838   2.473   5.354   1.371  2.1907 -1.2515  4.2303
  128MOL   H10530839   2.306   5.335   1.344 -0.1869 -0.2122  0.2610
  128MOL   H10630840   2.469   5.222   1.583  0.9611  2.7549  0.6195
  128MOL   H10730841   2.619   5.610   1.646 -0.4072 -0.4896 -1.7651
  128MOL   H10830842   2.603   5.525   1.793  0.4449  1.6625 -0.4696
  128MOL   H10930843   2.460   5.610   1.736  0.2437  1.0987 -1.2204
  128MOL   C11030844   2.255   5.177   1.580 -0.5055  0.3635 -0.5852
  128MOL   C11130845   2.244   5.140   1.728 -0.1900  0.2634  0.0455
  128MOL   C11230846   2.097   5.115   1.752  0.0682  0.0362  0.6208
  128MOL   O11330847   2.042   5.167   1.847  0.0364 -0.5851  0.5285
  128MOL   O11430848   2.045   5.016   1.677  0.7919  0.4746 -0.5645
  128MOL   C11530849   1.914   4.972   1.699  0.4087  0.3658  0.0421
  128MOL   H11630850   2.174   5.246   1.555 -0.9767 -0.7324 -2.1069
  128MOL   H11730851   2.245   5.084   1.525  0.8652 -0.3656  0.3734
  128MOL   H11830852   2.270   5.228   1.787 -0.9486  0.2297  0.4390
  128MOL   H11930853   1.896   4.873   1.655 -0.1656  1.3906 -2.1005
  128MOL   H12030854   1.845   5.029   1.637  1.4658  0.3655 -1.1408
  128MOL   H12130855   1.878   4.982   1.801 -0.1589 -1.7233  0.0810
  128MOL   C12230856   2.330   5.013   1.772 -0.0214  0.0911 -0.0755
  128MOL   C12330857   2.412   5.035   1.898 -0.1543  0.0859 -0.0551
  128MOL   C12430858   2.463   4.900   1.960  0.1637  0.4327 -0.2937
  128MOL   O12530859   2.579   4.884   1.994  0.2610  0.8033  0.2906
  128MOL   O12630860   2.361   4.815   1.988 -0.0718  0.2717 -0.6385
  128MOL   C12730861   2.389   4.696   2.063 -0.8439  0.6529 -0.4181
  128MOL   H12830862   2.265   4.927   1.788 -0.6464  0.2957 -1.4140
  128MOL   H12930863   2.400   4.982   1.695 -1.1152  0.7230 -1.3558
  128MOL   H13030864   2.344   5.088   1.965  1.2435  2.1413 -0.2202
  128MOL   H13130865   2.448   4.626   2.005 -0.6408  1.1230 -0.7771
  128MOL   H13230866   2.284   4.669   2.081 -0.1684 -0.1201  2.7175
  128MOL   H13330867   2.441   4.718   2.156  2.2401  0.7643 -2.1233
  128MOL   C13430868   2.535   5.122   1.872 -0.3277 -0.3528 -0.4586
  128MOL   C13530869   2.570   5.214   1.997  0.6050  0.4573  0.7819
  128MOL   C13630870   2.718   5.246   1.998  0.1886 -0.1922 -0.0439
  128MOL   O13730871   2.790   5.228   2.101 -0.2549 -0.4398  0.2937
  128MOL   O13830872   2.756   5.314   1.895  1.0324  0.0153  0.0196
  128MOL   C13930873   2.894   5.344   1.900 -0.6404  0.2756 -0.0179
  128MOL   H14030874   2.620   5.068   1.829  0.7656  1.7942 -1.0423
  128MOL   H14130875   2.504   5.182   1.786 -0.0962 -1.7748 -1.5642
  128MOL   H14230876   2.539   5.156   2.083 -3.0413 -1.3542 -1.6183
  128MOL   H14330877   2.952   5.254   1.920 -2.4119 -0.7901  0.4343
  128MOL   H14430878   2.909   5.426   1.969  1.0770  0.2513 -0.3475
  128MOL   H14530879   2.917   5.393   1.805 -1.8039 -0.0272 -0.4720
  128MOL   C14630880   2.484   5.340   1.996  0.3383  0.3012 -0.6610
  128MOL   C14730881   2.412   5.360   2.136  0.2575 -0.6256 -0.5520
  128MOL   C14830882   2.414   5.505   2.177  0.1174  0.0951 -0.3554
  128MOL   O14930883   2.508   5.550   2.247 -0.1622  0.0575 -0.3586
  128MOL   O15030884   2.313   5.575   2.127  0.3871 -0.4880  0.8104
  128MOL   C15130885   2.293   5.709   2.156  0.3585 -0.6811 -0.0324
  128MOL   H15230886   2.546   5.427   1.975 -0.6657  1.2299  0.1138
  128MOL   H15330887   2.410   5.339   1.916  0.4959  2.6530 -0.8570
  128MOL   H15430888   2.464   5.326   2.225 -0.8986  1.5752  0.9948
  128MOL   H15530889   2.380   5.759   2.198 -1.4409  1.6012  1.0982
  128MOL   H15630890   2.209   5.712   2.226 -1.9247  0.5965 -2.7144
  128MOL   H15730891   2.265   5.753   2.060 -0.5392 -0.2312  0.4308
  128MOL   C15830892   2.276   5.293   2.159  0.4043  0.9805  0.0133
  128MOL   C15930893   2.184   5.332   2.284  0.0126 -0.4014  0.6160
  128MOL   C16030894   2.030   5.316   2.265 -0.0760 -0.0812 -0.3978
  128MOL   O16130895   1.958   5.412   2.290  0.6310  0.5350  0.6805
  128MOL   O16230896   2.000   5.191   2.229  0.3901 -0.1919  0.6113
  128MOL   C16330897   1.864   5.153   2.210  0.3336  0.3245 -0.1838
  128MOL   H16430898   2.221   5.299   2.066  0.0856  0.7738  0.1859
  128MOL   H16530899   2.307   5.189   2.166  0.7847  0.8386 -3.2905
  128MOL   H16630900   2.201   5.440   2.291  3.4172 -0.9266  1.3600
  128MOL   H16730901   1.802   5.180   2.295 -0.3906  1.7772 -1.1526
  128MOL   H16830902   1.853   5.045   2.208  0.6917  0.1881  2.6101
  128MOL   H16930903   1.822   5.192   2.118  1.0630 -0.8450 -1.0234
  128MOL   C17030904   2.244   5.278   2.419 -0.5129 -0.1857 -0.4352
  128MOL   C17130905   2.168   5.316   2.551  0.7396 -0.4020  0.2441
  128MOL   C17230906   2.158   5.193   2.640  0.0521  0.5593 -0.1120
  128MOL   O17330907   2.053   5.145   2.687 -0.6685  0.0917  0.0197
  128MOL   O17430908   2.280   5.150   2.670  0.0417 -0.1828 -0.1017
  128MOL   C17530909   2.301   5.074   2.790  0.4613  0.0405 -0.7950
  128MOL   H17630910   2.244   5.172   2.394  2.3227 -0.8046  1.9450
  128MOL   H17730911   2.350   5.300   2.429 -0.3667 -1.8866  2.2972
  128MOL   H17830912   2.066   5.347   2.528  0.6494 -0.6881  0.2569
  128MOL   H17930913   2.285   5.126   2.884  3.1635 -1.4473  0.5369
  128MOL   H18030914   2.401   5.030   2.786  0.7251  0.7016 -1.8054
  128MOL   H18130915   2.225   4.997   2.795  1.2878 -0.8943 -2.1145
  128MOL   C18230916   2.247   5.425   2.633  0.2499  0.4295  0.0831
  128MOL   C18330917   2.247   5.570   2.587  0.6341 -1.3483 -0.2998
  128MOL   C18430918   2.108   5.621   2.565 -0.7823  0.1339 -0.3331
  128MOL   O18530919   2.020   5.597   2.644  0.3773  0.0072  0.8439
  128MOL   O18630920   2.097   5.682   2.452 -0.0346 -0.2289 -0.3502
  128MOL   C18730921   1.969   5.729   2.404 -0.3054 -0.6534  0.6671
  128MOL   H18830922   2.212   5.421   2.736  0.6718  1.7709  0.2825
  128MOL   H18930923   2.348   5.386   2.639 -0.6145 -1.7688  1.2086
  128MOL   H19030924   2.293   5.578   2.488 -0.2439 -1.4147 -0.7175
  128MOL   H19130925   1.936   5.691   2.307 -1.9602 -0.1632  1.0098
  128MOL   H19230926   1.965   5.838   2.394  1.6621 -0.7132 -1.2370
  128MOL   H19330927   1.891   5.720   2.480 -0.2929  0.0618  0.7679
  128MOL   C19430928   2.318   5.668   2.687 -0.0484  0.3904  0.0857
  128MOL   C19530929   2.459   5.699   2.639 -0.4417 -0.2020  0.5565
  128MOL   C19630930   2.488   5.830   2.565 -0.0899  0.0733  1.0510
  128MOL   O19730931   2.403   5.874   2.492 -0.2620 -0.4755 -0.5687
  128MOL   O19830932   2.615   5.876   2.579  0.2222 -0.3661  0.3584
  128MOL   C19930933   2.665   5.993   2.517  0.1695 -0.2576  0.6407
  128MOL   H20030934   2.257   5.758   2.695  0.2101  0.5291  0.4727
  128MOL   H20130935   2.317   5.619   2.784 -0.1097 -0.8443 -0.5184
  128MOL   H20230936   2.484   5.619   2.571 -2.5338 -0.6844  0.3338
  128MOL   H20330937   2.609   6.018   2.427 -0.2074 -1.3400  0.5686
  128MOL   H20430938   2.765   5.964   2.487 -0.3166  0.0875 -1.3694
  128MOL   H20530939   2.668   6.084   2.578  1.5081 -0.0414  0.2588
  128MOL   C20630940   2.558   5.675   2.759 -0.1133  1.1511  0.5249
  128MOL   C20730941   2.569   5.791   2.867  0.0140  0.6087  0.0033
  128MOL   C20830942   2.446   5.807   2.955 -0.4929  0.3718 -0.6697
  128MOL   O20930943   2.429   5.746   3.060  0.3337  0.2744 -0.8392
  128MOL   O21030944   2.353   5.893   2.901 -0.3258  0.2222 -0.0825
  128MOL   C21130945   2.244   5.940   2.979 -0.5236 -0.4630  0.8144
  128MOL   H21230946   2.541   5.578   2.806 -0.4888  0.1372 -1.6679
  128MOL   H21330947   2.658   5.658   2.720 -0.9547 -3.5285  0.1008
  128MOL   H21430948   2.565   5.876   2.800 -3.9677  0.8588  0.4698
  128MOL   H21530949   2.190   6.020   2.930  1.7559 -1.1952 -3.2141
  128MOL   H21630950   2.277   5.985   3.072 -0.5247  0.2978  0.4472
  128MOL   H21730951   2.177   5.855   2.989 -0.8240 -0.6336 -2.2140
  128MOL   C21830952   2.694   5.789   2.956  0.1825 -0.9326  0.9260
  128MOL   C21930953   2.747   5.916   3.025 -0.7713  0.4300  0.1165
  128MOL   C22030954   2.855   5.885   3.133  0.5799 -0.5739  0.2536
  128MOL   O22130955   2.912   5.773   3.129  0.2454  0.6323 -0.5016
  128MOL   O22230956   2.875   5.985   3.222  1.0711 -0.4725  0.1352
  128MOL   C22330957   2.958   5.951   3.324  0.5827  0.5698  1.1716
  128MOL   H22430958   2.684   5.704   3.023 -3.6100 -1.4790 -0.2226
  128MOL   H22530959   2.773   5.753   2.891  0.6666 -0.3089  1.1600
  128MOL   H22630960   2.669   5.955   3.090 -0.0550 -1.3551  2.1099
  128MOL   H22730961   2.968   6.038   3.388  1.7245  1.3173  0.0092
  128MOL   H22830962   3.054   5.918   3.282 -0.3035  0.1383 -0.5590
  128MOL   H22930963   2.913   5.866   3.375  0.3823 -1.5789 -2.3627
  128MOL   C23030964   2.795   6.024   2.924  0.8884 -0.5722 -0.7702
  128MOL   C23130965   2.755   6.171   2.962 -0.0183 -0.5146  0.4397
  128MOL   C23230966   2.603   6.185   2.943 -0.2117 -0.4813 -0.7771
  128MOL   O23330967   2.537   6.212   3.038 -0.4793 -0.3597 -0.2279
  128MOL   O23430968   2.556   6.168   2.815  0.0809 -0.4637 -0.7703
  128MOL   C23530969   2.417   6.202   2.787  0.6588  0.1988 -0.3113
  128MOL   H23630970   2.904   6.021   2.932  0.8523  1.5195  1.2407
  128MOL   H23730971   2.755   5.992   2.828 -1.8174  0.9862 -0.2283
  128MOL   H23830972   2.803   6.249   2.902 -2.7686  1.0269  0.1753
  128MOL   H23930973   2.351   6.169   2.867  0.5639 -1.5063 -1.0750
  128MOL   H24030974   2.389   6.148   2.696 -1.2958  0.4192  0.1340
  128MOL   H24130975   2.388   6.305   2.766  0.8886  0.2391 -0.4373
  128MOL   H24230976   2.789   6.194   3.063 -1.1807  0.6084  0.5894
  129MOL     C130977   1.271   2.620   6.725 -0.1543  1.0747  0.5090
  129MOL     C230978   1.169   2.503   6.726 -0.9103 -0.2933  0.5580
  129MOL     C330979   1.021   2.552   6.697  1.0480  0.5176 -0.3876
  129MOL     O430980   0.941   2.557   6.789  0.2995 -0.1802  0.0741
  129MOL     O530981   0.987   2.604   6.576 -0.1171  0.6624 -0.3091
  129MOL     C630982   0.857   2.643   6.561 -0.3974 -0.0950  0.1776
  129MOL     H730983   1.376   2.591   6.731 -0.2715  0.8362  1.5373
  129MOL     H830984   1.248   2.686   6.808 -1.4503 -1.2466  2.0375
  129MOL     H930985   1.161   2.472   6.830 -0.5287 -2.3050 -0.0043
  129MOL    H1030986   0.776   2.571   6.550 -1.8157  1.5109 -0.0387
  129MOL    H1130987   0.840   2.714   6.480  0.0289 -0.8181 -0.5573
  129MOL    H1230988   0.833   2.709   6.644 -0.4716 -2.9482  2.4947
  129MOL    H1330989   1.251   2.680   6.636 -1.8461 -1.4151 -0.8485
  129MOL    C1430990   1.203   2.388   6.629 -0.4877  0.6652  0.1696
  129MOL    C1530991   1.108   2.262   6.626 -0.6891  0.3958 -0.7718
  129MOL    C1630992   1.033   2.244   6.492  0.1672 -0.1052  0.1857
  129MOL    O1730993   0.914   2.241   6.488  0.2178  0.0986  0.6126
  129MOL    O1830994   1.116   2.227   6.389 -0.5924  0.0323 -0.1579
  129MOL    C1930995   1.067   2.201   6.257  0.3808  0.9320 -0.8203
  129MOL    H2030996   1.210   2.440   6.533  0.2053 -0.0901 -0.1894
  129MOL    H2130997   1.306   2.356   6.642 -1.0397 -1.7483 -1.0203
  129MOL    H2230998   1.023   2.288   6.688  0.5723  1.5790  0.4915
  129MOL    H2330999   1.025   2.100   6.251 -2.2896  1.9904 -0.6710
  129MOL    H2431000   1.142   2.209   6.179  0.5860 -0.4786 -0.7817
  129MOL    H2531001   0.982   2.263   6.227  0.2402  0.3259 -1.7157
  129MOL    C2631002   1.174   2.126   6.670 -0.1934 -0.2587 -1.0232
  129MOL    C2731003   1.073   2.028   6.749  0.1564 -0.1086  0.0059
  129MOL    C2831004   0.956   1.965   6.662 -0.6683 -0.5853  0.4943
  129MOL    O2931005   0.842   1.987   6.696 -0.2982 -0.3861  0.0270
  129MOL    O3031006   0.994   1.898   6.552 -0.4553 -0.5890 -0.3651
  129MOL    C3131007   0.890   1.836   6.476 -0.5724  0.6626 -0.6898
  129MOL    H3231008   1.217   2.077   6.582  1.2445  1.5966 -1.3798
  129MOL    H3331009   1.255   2.142   6.742 -3.2784 -1.8006  2.9897
  129MOL    H3431010   1.024   2.096   6.819  0.0336  0.3069 -0.4803
  129MOL    H3531011   0.827   1.907   6.424 -0.3206  0.4999 -1.2129
  129MOL    H3631012   0.835   1.757   6.528  0.4374  0.3067 -0.1344
  129MOL    H3731013   0.948   1.783   6.401 -1.1949 -0.6188 -0.2785
  129MOL    C3831014   1.153   1.907   6.821 -1.0211  0.1878 -0.4611
  129MOL    C3931015   1.142   1.903   6.977 -0.5114  0.0774  1.6334
  129MOL    C4031016   1.012   1.840   7.020  0.5838  0.1844 -0.2960
  129MOL    O4131017   1.005   1.732   7.079  0.3478  0.6656 -0.3422
  129MOL    O4231018   0.910   1.929   6.987  0.3163 -0.2446 -0.1408
  129MOL    C4331019   0.779   1.886   7.017  0.1241  0.1481  0.2310
  129MOL    H4431020   1.118   1.809   6.787 -1.2636 -0.2431  0.9797
  129MOL    H4531021   1.258   1.909   6.792 -1.2600 -1.3464 -1.5024
  129MOL    H4631022   1.149   2.006   7.011  0.6499  1.0536 -1.4883
  129MOL    H4731023   0.745   1.810   6.947 -0.2229  0.0952  0.4529
  129MOL    H4831024   0.725   1.977   6.993  2.1325  1.4801  0.5790
  129MOL    H4931025   0.778   1.855   7.122  0.0748  0.0215  0.1943
  129MOL    C5031026   1.264   1.829   7.039  0.4175  0.6413 -0.6122
  129MOL    C5131027   1.272   1.834   7.193  0.2904  0.1752 -0.2012
  129MOL    C5231028   1.383   1.732   7.247  0.3482 -0.5204  0.8324
  129MOL    O5331029   1.504   1.754   7.228  0.4972  0.0336  0.3627
  129MOL    O5431030   1.325   1.646   7.335  0.2827  0.4342 -0.1316
  129MOL    C5531031   1.397   1.579   7.434 -0.3697 -0.2740  0.0788
  129MOL    H5631032   1.270   1.727   7.002  1.5971 -0.1919  1.7711
  129MOL    H5731033   1.358   1.871   7.003  0.7573  1.5382  1.2574
  129MOL    H5831034   1.183   1.791   7.239 -0.0629 -0.1176 -1.1500
  129MOL    H5931035   1.446   1.659   7.490 -1.7576 -0.3446  1.4546
  129MOL    H6031036   1.478   1.513   7.404  0.0160 -0.4216  1.4147
  129MOL    H6131037   1.330   1.525   7.501 -2.7453  3.0155  0.4620
  129MOL    C6231038   1.308   1.974   7.252  0.2340  0.1486  0.0097
  129MOL    C6331039   1.269   1.990   7.404 -0.2955  0.0214  0.2588
  129MOL    C6431040   1.350   2.110   7.462 -0.6295 -0.1870  0.3897
  129MOL    O6531041   1.410   2.194   7.396  0.1944  0.5457  0.4034
  129MOL    O6631042   1.331   2.106   7.589  0.4391 -0.1760 -0.3786
  129MOL    C6731043   1.374   2.214   7.667 -0.1582  0.8692 -0.2564
  129MOL    H6831044   1.415   1.990   7.237  0.2974  0.6604  0.9781
  129MOL    H6931045   1.256   2.052   7.197 -1.5668 -1.0690 -0.0542
  129MOL    H7031046   1.317   1.906   7.454  1.2607  0.0847 -1.0876
  129MOL    H7131047   1.483   2.214   7.666 -0.1555  0.9377 -0.0682
  129MOL    H7231048   1.341   2.213   7.771 -0.5084 -3.7344 -0.3120
  129MOL    H7331049   1.345   2.308   7.621 -1.0856  1.1324  0.8410
  129MOL    C7431050   1.121   2.010   7.426  0.5368  0.5947  1.0760
  129MOL    C7531051   1.050   1.997   7.560 -0.3194 -0.5298  0.0075
  129MOL    C7631052   0.898   2.017   7.536 -0.5947 -0.2283 -0.2150
  129MOL    O7731053   0.854   2.130   7.561 -0.6851 -0.1790  0.7089
  129MOL    O7831054   0.843   1.904   7.488  0.8860 -0.4229 -0.0224
  129MOL    C7931055   0.707   1.901   7.443 -0.2600 -0.0553  0.3794
  129MOL    H8031056   1.085   2.098   7.373  1.5253 -0.1537 -0.9150
  129MOL    H8131057   1.072   1.932   7.368 -0.2735  1.5451  0.4618
  129MOL    H8231058   1.083   2.077   7.626 -0.6459 -0.2570 -0.1603
  129MOL    H8331059   0.671   1.992   7.395 -1.1203 -1.0589 -0.9521
  129MOL    H8431060   0.639   1.889   7.528  1.1363 -2.0781  1.2329
  129MOL    H8531061   0.695   1.811   7.382  2.0851  0.8834 -1.5632
  129MOL    C8631062   1.094   1.871   7.627  0.0693 -0.1267 -0.0359
  129MOL    C8731063   1.010   1.811   7.739 -0.3948  0.6461 -0.2800
  129MOL    C8831064   1.066   1.676   7.778 -0.1000 -0.0877 -0.2683
  129MOL    O8931065   1.017   1.573   7.736 -0.2311 -0.1750 -0.2977
  129MOL    O9031066   1.172   1.696   7.857 -0.2486 -0.6011 -0.4692
  129MOL    C9131067   1.214   1.592   0.012 -0.8812 -0.2691 -0.1819
  129MOL    H9231068   1.105   1.794   7.551 -0.0956  0.7935 -0.9924
  129MOL    H9331069   1.199   1.882   7.657 -0.1667 -0.7868  1.0860
  129MOL    H9431070   0.917   1.783   7.690 -1.0767  0.8066  0.9196
  129MOL    H9531071   1.154   1.500   0.014  3.4380 -3.2093  1.2448
  129MOL    H9631072   1.234   1.625   0.114 -0.4947  1.6468 -0.8622
  129MOL    H9731073   1.308   1.546   7.914 -1.6250 -0.3591 -2.3973
  129MOL    C9831074   0.989   1.911   7.856  0.2019  0.7698  0.6052
  129MOL    C9931075   0.838   1.935   7.898  0.3355  0.1916  0.5274
  129MOL   C10031076   0.765   1.802   7.903  0.3674  0.3063 -0.1846
  129MOL   O10131077   0.779   1.734   0.072  0.1965  0.7347 -0.3133
  129MOL   O10231078   0.686   1.779   7.803 -0.0236  0.3969  0.1033
  129MOL   C10331079   0.622   1.655   7.777  0.2182  0.5669  0.3272
  129MOL   H10431080   1.037   1.867   0.011 -0.4983 -0.1749  0.5261
  129MOL   H10531081   1.026   2.013   7.842 -0.7147  0.8870 -1.1397
  129MOL   H10631082   0.798   1.998   7.818  1.4138 -0.7386 -0.7715
  129MOL   H10731083   0.708   1.590   7.758 -1.0633 -1.2239  0.5602
  129MOL   H10831084   0.564   1.655   7.685  1.1303  2.8819 -0.2773
  129MOL   H10931085   0.562   1.620   7.861 -1.0085 -2.6483 -1.7845
  129MOL   C11031086   0.806   2.020   0.089  0.4730  0.6784  0.3834
  129MOL   C11131087   0.874   2.155   0.092 -0.3510  0.5683 -0.2259
  129MOL   C11231088   0.823   2.263   7.929  0.5186  0.7870  0.6172
  129MOL   O11331089   0.892   2.353   7.887 -0.2262 -0.5365 -0.0793
  129MOL   O11431090   0.697   2.246   7.910 -0.0195 -0.0548  0.0958
  129MOL   C11531091   0.630   2.326   7.810  0.2489 -0.2288  0.1009
  129MOL   H11631092   0.698   2.025   0.098  0.0374 -0.3057 -3.4278
  129MOL   H11731093   0.844   1.956   0.168  1.6298 -0.3242 -0.9387
  129MOL   H11831094   0.975   2.138   0.055  0.3384  2.0277  0.9376
  129MOL   H11931095   0.528   2.342   7.846 -0.0334 -0.9592 -0.3543
  129MOL   H12031096   0.628   2.271   7.716 -0.1243 -1.0042  0.5595
  129MOL   H12131097   0.680   2.421   7.793 -1.0808  0.1621 -1.7325
  129MOL   C12231098   0.891   2.212   0.232 -0.1268 -0.1960  0.4957
  129MOL   C12331099   1.010   2.146   0.308  0.5518 -0.0240  0.9485
  129MOL   C12431100   1.149   2.180   0.249 -0.0691 -0.2928 -0.0852
  129MOL   O12531101   1.199   2.105   0.172  0.1590  0.7234 -0.1986
  129MOL   O12631102   1.206   2.301   0.287 -0.0367 -0.7602  0.6010
  129MOL   C12731103   1.314   2.353   0.203  0.2793 -0.3438 -0.1690
  129MOL   H12831104   0.907   2.316   0.260 -2.2714 -0.4351  2.8252
  129MOL   H12931105   0.795   2.189   0.278 -2.2690  2.3968 -2.4636
  129MOL   H13031106   1.006   2.039   0.291  0.3855  0.0374  0.5965
  129MOL   H13131107   1.357   2.436   0.259 -3.6133  1.0048  1.0513
  129MOL   H13231108   1.271   2.376   0.106  0.3713  1.8721  0.2955
  129MOL   H13331109   1.391   2.278   0.190  0.6700 -0.0574  0.4654
  129MOL   C13431110   1.010   2.171   0.459  0.9567 -0.2102 -0.8768
  129MOL   C13531111   1.112   2.087   0.543 -0.3560 -0.0481 -0.3685
  129MOL   C13631112   1.122   2.145   0.683  0.3511  0.8214  0.0929
  129MOL   O13731113   1.022   2.196   0.743  0.1402  0.1632  0.1841
  129MOL   O13831114   1.244   2.134   0.727  0.2218  0.7238 -0.1449
  129MOL   C13931115   1.277   2.202   0.838 -0.3414  0.2708  0.0498
  129MOL   H14031116   1.022   2.277   0.481  1.1498 -0.3219 -0.4146
  129MOL   H14131117   0.910   2.142   0.491  1.4434  2.2458  3.3561
  129MOL   H14231118   1.209   2.100   0.496  1.7029  0.9589  3.9108
  129MOL   H14331119   1.228   2.182   0.933 -1.5692  0.2000 -0.5846
  129MOL   H14431120   1.269   2.309   0.819  0.9672  0.1532 -1.3249
  129MOL   H14531121   1.383   2.178   0.840 -0.6199 -1.0148  0.0793
  129MOL   C14631122   1.072   1.935   0.555  0.2119 -0.0734 -0.2667
  129MOL   C14731123   1.188   1.842   0.601  0.7387  0.5401  0.4362
  129MOL   C14831124   1.123   1.709   0.646 -0.3829  0.1834  0.1862
  129MOL   O14931125   1.121   1.608   0.570  0.4010  0.6334 -0.3217
  129MOL   O15031126   1.059   1.719   0.766 -0.0601 -0.0940 -0.4296
  129MOL   C15131127   1.013   1.594   0.821  0.3737 -0.1238 -0.4914
  129MOL   H15231128   0.985   1.917   0.619 -0.2970  4.5404  0.4981
  129MOL   H15331129   1.038   1.908   0.454  2.4464 -0.7007 -0.8864
  129MOL   H15431130   1.227   1.886   0.692  1.0066 -0.1649  0.6661
  129MOL   H15531131   1.091   1.542   0.876  0.2952 -2.6495 -2.6287
  129MOL   H15631132   0.961   1.518   0.763  0.8778 -1.5406  0.8784
  129MOL   H15731133   0.933   1.628   0.886 -0.2689 -0.0129 -1.3347
  129MOL   C15831134   1.306   1.834   0.503  0.3413  0.1295  0.3381
  129MOL   C15931135   1.421   1.735   0.544  0.0203 -0.6127 -0.0520
  129MOL   C16031136   1.519   1.713   0.427 -0.3797 -0.4812  0.4205
  129MOL   O16131137   1.633   1.754   0.428  0.3378 -0.2108  0.7523
  129MOL   O16231138   1.456   1.654   0.323 -0.8252 -0.6157  0.0432
  129MOL   C16331139   1.523   1.646   0.202 -0.1776 -0.8341  0.6619
  129MOL   H16431140   1.274   1.820   0.400  1.8393  0.4339 -0.1690
  129MOL   H16531141   1.351   1.933   0.500  1.4374 -0.3552  0.6450
  129MOL   H16631142   1.374   1.638   0.562 -0.4501 -0.5889 -1.0882
  129MOL   H16731143   1.631   1.652   0.219 -0.0575 -0.4533 -0.2513
  129MOL   H16831144   1.489   1.723   0.133 -1.7458 -0.4926  1.7884
  129MOL   H16931145   1.502   1.553   0.150  0.3006 -0.5448 -0.0501
  129MOL   C17031146   1.487   1.764   0.682 -0.2289 -0.9880  0.9411
  129MOL   C17131147   1.489   1.910   0.743 -0.4765 -0.4612 -0.0679
  129MOL   C17231148   1.446   1.915   0.890 -0.4657  0.3790 -0.9777
  129MOL   O17331149   1.507   1.976   0.976  0.5224 -0.2897 -0.2774
  129MOL   O17431150   1.333   1.851   0.904 -0.4706 -0.2394  0.5106
  129MOL   C17531151   1.288   1.835   1.040 -0.2858 -0.0561  0.5733
  129MOL   H17631152   1.441   1.695   0.753 -0.7584  0.1746  1.7498
  129MOL   H17731153   1.589   1.727   0.689 -0.0823 -0.0170  4.8518
  129MOL   H17831154   1.429   1.990   0.700 -0.3989  0.8606  2.1890
  129MOL   H17931155   1.360   1.780   1.101  0.5354  0.4206  0.0380
  129MOL   H18031156   1.199   1.774   1.055  1.7948 -3.5012 -0.3666
  129MOL   H18131157   1.269   1.932   1.085  3.6003  2.0409 -2.0395
  129MOL   C18231158   1.628   1.976   0.709  0.0554 -0.8155  0.8640
  129MOL   C18331159   1.619   2.049   0.572  0.3476  0.4237  0.0142
  129MOL   C18431160   1.555   2.187   0.583 -0.6303  0.3309 -0.2235
  129MOL   O18531161   1.452   2.207   0.518 -0.0725  0.2604 -0.2954
  129MOL   O18631162   1.620   2.268   0.668  0.3447  0.1934 -0.9221
  129MOL   C18731163   1.574   2.395   0.688 -0.5456 -0.6956 -0.3275
  129MOL   H18831164   1.669   2.040   0.788  2.3714 -0.2456 -0.7413
  129MOL   H18931165   1.717   1.912   0.703 -0.3863 -1.4340  0.9312
  129MOL   H19031166   1.556   1.983   0.511  0.2799 -0.2969  0.8518
  129MOL   H19131167   1.553   2.436   0.589  3.5176 -1.8087 -1.7911
  129MOL   H19231168   1.652   2.450   0.740 -1.0050 -1.2312  0.9599
  129MOL   H19331169   1.484   2.401   0.748 -0.6670 -1.0339 -0.4704
  129MOL   C19431170   1.760   2.060   0.504  0.1498  0.3629  0.3700
  129MOL   C19531171   1.774   2.114   0.360 -0.0049  0.2348 -0.0592
  129MOL   C19631172   1.922   2.089   0.330  0.1046 -0.4977  0.0105
  129MOL   O19731173   1.958   1.983   0.285 -0.1440  0.1853  0.0162
  129MOL   O19831174   1.992   2.195   0.349  0.0696  0.0799  0.3499
  129MOL   C19931175   2.130   2.196   0.299 -0.1858 -0.1042 -0.2372
  129MOL   H20031176   1.814   2.141   0.554 -1.4048  2.6218 -1.4717
  129MOL   H20131177   1.815   1.967   0.514  1.5757  1.2098  0.5695
  129MOL   H20231178   1.759   2.222   0.362  0.9909  0.3585  0.9458
  129MOL   H20331179   2.182   2.291   0.289 -1.1863  0.5142  0.3795
  129MOL   H20431180   2.131   2.171   0.193  1.1211  0.8338 -0.4542
  129MOL   H20531181   2.189   2.127   0.359 -0.0044 -0.6109 -0.9996
  129MOL   C20631182   1.674   2.047   0.254  0.0368 -0.0299 -0.1611
  129MOL   C20731183   1.703   2.068   0.104 -0.4733 -0.0426 -0.0860
  129MOL   C20831184   1.602   1.986   0.023  0.0523 -0.2100 -0.5116
  129MOL   O20931185   1.640   1.885   7.895  0.4255  0.0028  0.2288
  129MOL   O21031186   1.470   2.032   0.024  0.1146 -0.2559  0.3200
  129MOL   C21131187   1.367   1.954   7.899 -0.7711 -0.3516 -0.3544
  129MOL   H21231188   1.661   1.941   0.272  0.4619 -0.1578 -0.5819
  129MOL   H21331189   1.574   2.084   0.275  0.1689  0.2123  0.0526
  129MOL   H21431190   1.804   2.032   0.082 -1.4054 -2.4134 -0.5979
  129MOL   H21531191   1.339   1.859   0.012 -2.2605  0.1849 -0.1355
  129MOL   H21631192   1.391   1.940   7.794  0.1635 -0.5884 -0.1139
  129MOL   H21731193   1.278   2.015   7.888 -1.5948 -1.4010  0.3532
  129MOL   C21831194   1.689   2.216   0.054 -0.4802 -0.4797  0.3503
  129MOL   C21931195   1.822   2.281   0.006  0.2730 -0.0535 -0.0841
  129MOL   C22031196   1.872   2.211   7.818 -0.1322 -0.8421 -0.3122
  129MOL   O22131197   1.846   2.233   7.697 -0.2223  0.1926  0.3076
  129MOL   O22231198   1.945   2.103   7.848 -0.1026  0.9758 -0.1553
  129MOL   C22331199   1.989   2.005   7.747  0.1219  0.3341  0.0625
  129MOL   H22431200   1.618   2.219   7.904  0.9261  4.8356 -0.8375
  129MOL   H22531201   1.645   2.268   0.139 -0.5634 -2.0194  1.2837
  129MOL   H22631202   1.895   2.271   0.087 -0.7422  2.2367  1.1587
  129MOL   H22731203   2.078   2.036   7.692  1.2241 -1.2980  0.8771
  129MOL   H22831204   1.919   1.969   7.672  0.8099 -0.3368 -0.2606
  129MOL   H22931205   2.007   1.913   7.802 -0.8918 -0.7273 -1.3429
  129MOL   C23031206   1.804   2.432   7.928  0.5299 -0.2091  0.3353
  129MOL   C23131207   1.936   2.518   7.918 -0.0345 -0.1030 -0.8151
  129MOL   C23231208   1.990   2.537   7.775  0.4356  0.4603  1.5872
  129MOL   O23331209   2.101   2.512   7.743 -0.2022 -0.0270 -0.9618
  129MOL   O23431210   1.892   2.586   7.695 -0.2508  0.5656 -0.0888
  129MOL   C23531211   1.915   2.631   7.556  0.3433 -0.0174 -0.6902
  129MOL   H23631212   1.740   2.434   7.840  1.0849 -0.7451 -0.0847
  129MOL   H23731213   1.743   2.470   0.077  0.7876 -2.7748  1.7907
  129MOL   H23831214   2.022   2.501   0.050 -0.3949  0.9584 -0.0361
  129MOL   H23931215   1.993   2.706   7.548  0.2364  0.3567  1.4442
  129MOL   H24031216   1.821   2.678   7.528  0.2325 -0.0720 -0.4197
  129MOL   H24131217   1.932   2.547   7.489 -0.6832 -2.1867  1.6419
  129MOL   H24231218   1.908   2.618   0.019 -0.2120 -0.7872  1.1289
  130MOL     C131219   6.220   6.725   3.609 -0.2467  0.3999  0.2996
  130MOL     C231220   6.082   6.761   3.663 -0.7423 -0.3159  0.8854
  130MOL     C331221   5.971   6.670   3.611  0.0260  0.6647  0.3007
  130MOL     O431222   5.911   6.593   3.689 -0.1804  0.6426 -0.3653
  130MOL     O531223   5.960   6.666   3.472  0.2316 -0.5189 -0.5251
  130MOL     C631224   5.858   6.589   3.418  0.2250 -0.6054  0.4853
  130MOL     H731225   6.291   6.803   3.636 -1.9164  2.4477 -1.0123
  130MOL     H831226   6.224   6.700   3.503 -1.8044  0.3791  0.2263
  130MOL     H931227   6.056   6.860   3.625 -1.9295 -0.8785  0.1857
  130MOL    H1031228   5.761   6.640   3.420 -0.8219 -2.5580  1.5054
  130MOL    H1131229   5.840   6.498   3.475 -1.8896 -0.0936  0.6854
  130MOL    H1231230   5.875   6.571   3.312 -0.0285  2.4241 -0.1199
  130MOL    H1331231   6.265   6.641   3.660  0.7330  0.7714  0.0598
  130MOL    C1431232   6.092   6.772   3.816  0.2357 -0.1887 -0.4692
  130MOL    C1531233   5.968   6.834   3.889 -0.2177  0.1492 -0.1896
  130MOL    C1631234   5.958   6.778   4.036 -0.3431 -0.0013 -0.5617
  130MOL    O1731235   5.860   6.721   4.086 -0.7473  0.0913  0.0498
  130MOL    O1831236   6.076   6.802   4.105  0.4376  0.1391 -0.0543
  130MOL    C1931237   6.083   6.815   4.247  0.1894  0.6192 -0.2919
  130MOL    H2031238   6.119   6.679   3.867  0.2007  0.2384  0.3369
  130MOL    H2131239   6.187   6.821   3.834  0.7153 -1.3908  0.3176
  130MOL    H2231240   5.882   6.795   3.835  0.8459 -0.1467 -1.6770
  130MOL    H2331241   6.009   6.884   4.289  0.3659 -0.7235  2.2999
  130MOL    H2431242   6.183   6.832   4.288  0.3233 -1.2687  0.2066
  130MOL    H2531243   6.056   6.719   4.290  0.9675  0.0395 -1.0945
  130MOL    C2631244   5.962   6.992   3.883  0.6014  0.8503 -0.2784
  130MOL    C2731245   5.869   7.056   3.785 -0.8432  0.1007  0.2201
  130MOL    C2831246   5.723   7.000   3.807 -0.1469  0.1271  0.0672
  130MOL    O2931247   5.660   6.941   3.722  0.2348  0.3118 -0.5259
  130MOL    O3031248   5.686   7.032   3.935  0.2880  0.4355 -0.4434
  130MOL    C3131249   5.574   6.963   3.990 -0.8444 -0.7599  0.0601
  130MOL    H3231250   5.948   7.035   3.982 -1.7637  1.1660 -0.7379
  130MOL    H3331251   6.055   7.023   3.836 -1.3449  1.2053 -4.0438
  130MOL    H3431252   5.901   7.016   3.689  0.3191  0.8163  0.2986
  130MOL    H3531253   5.559   6.996   4.092 -0.8373 -2.6053  0.6791
  130MOL    H3631254   5.591   6.857   4.008 -1.5487 -0.3019  3.7906
  130MOL    H3731255   5.482   6.976   3.933  0.2014 -0.3561 -1.5832
  130MOL    C3831256   5.867   7.210   3.789 -0.2052  0.0934 -0.1139
  130MOL    C3931257   5.992   7.279   3.741 -0.0478 -0.0137 -0.1601
  130MOL    C4031258   6.044   7.223   3.608  0.2851 -0.3422  0.6799
  130MOL    O4131259   6.160   7.181   3.596  0.1599 -0.1741 -0.0965
  130MOL    O4231260   5.962   7.224   3.503 -0.5007 -0.1705  0.1220
  130MOL    C4331261   6.017   7.188   3.375  0.2732 -0.3236  0.5751
  130MOL    H4431262   5.792   7.237   3.715 -0.7147 -3.3090 -0.9256
  130MOL    H4531263   5.838   7.246   3.888 -0.3371 -0.2245 -0.0341
  130MOL    H4631264   6.069   7.256   3.816  1.5168  0.6497 -1.5344
  130MOL    H4731265   6.057   7.087   3.367  0.9157 -0.2026  2.1076
  130MOL    H4831266   6.093   7.266   3.365 -0.6094  0.5008  0.1590
  130MOL    H4931267   5.939   7.213   3.303  0.0307 -0.1029  0.9127
  130MOL    C5031268   5.965   7.430   3.743  0.5390  0.3653  0.2933
  130MOL    C5131269   6.097   7.506   3.756 -0.7187 -0.0883 -0.1103
  130MOL    C5231270   6.134   7.589   3.627  1.1171 -0.2396 -0.3925
  130MOL    O5331271   6.196   7.690   3.641  0.1955 -0.3114  0.3428
  130MOL    O5431272   6.121   7.520   3.511  0.4589 -0.3484 -0.3859
  130MOL    C5531273   6.128   7.581   3.388 -0.0272  0.4282  0.3836
  130MOL    H5631274   5.910   7.464   3.655  2.9426  2.5480 -0.4077
  130MOL    H5731275   5.900   7.463   3.824  3.5318  1.6580  2.2654
  130MOL    H5831276   6.177   7.432   3.761 -2.5593 -1.9981  2.3371
  130MOL    H5931277   6.228   7.592   3.347 -0.0794  2.7343  0.8170
  130MOL    H6031278   6.083   7.678   3.413 -1.2644 -0.3202  1.1403
  130MOL    H6131279   6.075   7.522   3.314  1.5858 -1.2721  0.5478
  130MOL    C6231280   6.105   7.595   3.887  0.1540  0.4708 -0.3273
  130MOL    C6331281   6.127   7.510   4.024 -0.4155  0.4954 -0.2565
  130MOL    C6431282   6.259   7.428   4.030 -0.4927 -0.5299 -0.2084
  130MOL    O6531283   6.269   7.311   3.995 -0.0980 -0.2582  0.0418
  130MOL    O6631284   6.359   7.503   4.076  0.5419 -0.4533  0.3763
  130MOL    C6731285   6.491   7.464   4.064  0.0344  0.5001  0.3442
  130MOL    H6831286   6.195   7.657   3.895 -0.3654  1.1643  0.2226
  130MOL    H6931287   6.025   7.666   3.907 -0.4316 -0.1592 -0.4116
  130MOL    H7031288   6.048   7.435   4.035  1.1437 -1.0944  0.3460
  130MOL    H7131289   6.511   7.360   4.088 -1.2704 -0.5730 -2.9364
  130MOL    H7231290   6.547   7.536   4.124  0.9052  0.9946 -1.0371
  130MOL    H7331291   6.517   7.464   3.958  1.0328  2.2224  0.5661
  130MOL    C7431292   6.104   7.602   4.155 -0.0752 -0.1340  0.0476
  130MOL    C7531293   5.963   7.647   4.197  0.1848 -0.1302 -0.1472
  130MOL    C7631294   5.860   7.524   4.232  0.0322 -0.4261  0.1265
  130MOL    O7731295   5.909   7.426   4.282 -0.6578  0.5123 -0.1844
  130MOL    O7831296   5.731   7.548   4.208 -0.6446  0.6054 -0.7782
  130MOL    C7931297   5.644   7.447   4.246 -0.1277 -0.1102 -0.8810
  130MOL    H8031298   6.147   7.554   4.244  1.9783  1.7946  0.1603
  130MOL    H8131299   6.173   7.686   4.141  0.6859 -0.8860 -0.7844
  130MOL    H8231300   5.933   7.707   4.111 -0.5677 -2.0387 -1.2563
  130MOL    H8331301   5.649   7.414   4.350 -0.4893 -0.5090 -0.9894
  130MOL    H8431302   5.655   7.358   4.185 -1.6125 -0.5785 -0.4771
  130MOL    H8531303   5.541   7.483   4.246 -0.2162 -0.3004  0.7622
  130MOL    C8631304   5.977   7.745   4.317  1.1295  0.1294 -0.4056
  130MOL    C8731305   5.846   7.825   4.358 -0.1166 -0.4703  0.1906
  130MOL    C8831306   5.862   7.912   4.487  0.3440 -0.7075  0.4181
  130MOL    O8931307   5.776   7.916   4.574 -0.0007  0.4002 -0.5775
  130MOL    O9031308   5.969   0.060   4.475 -0.5574  0.2495 -0.4292
  130MOL    C9131309   6.016   0.132   4.584  0.4817  0.1908 -0.3753
  130MOL    H9231310   6.011   7.684   4.401  0.2415 -0.8485 -0.7471
  130MOL    H9331311   6.055   7.817   4.291  2.4833 -1.1202  0.1579
  130MOL    H9431312   5.780   7.740   4.376  2.5538 -2.3367  1.5125
  130MOL    H9531313   5.940   0.200   4.622 -1.6988 -2.7377  0.7122
  130MOL    H9631314   6.090   0.201   4.543  0.7114 -0.3417 -0.8757
  130MOL    H9731315   6.057   0.066   4.660 -0.3805 -2.8345 -2.4196
  130MOL    C9831316   5.787   7.910   4.247 -0.6371 -0.1168 -0.3784
  130MOL    C9931317   5.643   0.035   4.264  0.4397 -0.5535 -0.2576
  130MOL   C10031318   5.631   0.180   4.204  0.0986  0.0617 -0.2670
  130MOL   O10131319   5.556   0.257   4.259  0.3810 -0.2172  0.2603
  130MOL   O10231320   5.688   0.201   4.088  0.0464 -0.1251 -0.6616
  130MOL   C10331321   5.708   0.336   4.046 -0.2082  0.2239 -0.4359
  130MOL   H10431322   5.861   0.057   4.236  1.4303 -1.9516 -0.0749
  130MOL   H10531323   5.798   7.849   4.158  1.9419 -0.8966  0.4029
  130MOL   H10631324   5.614   0.042   4.369  1.4046 -1.6871  0.0950
  130MOL   H10731325   5.793   0.338   3.978 -1.6022  1.1116 -2.2355
  130MOL   H10831326   5.743   0.397   4.129 -0.6361 -1.0611  0.7056
  130MOL   H10931327   5.629   0.386   3.989  0.4115 -0.5049 -1.9581
  130MOL   C11031328   5.537   7.880   4.193  0.1940 -0.9914  0.5082
  130MOL   C11131329   5.386   7.877   4.228  0.4207 -0.3006  0.6166
  130MOL   C11231330   5.305   7.785   4.143 -0.2627 -0.4958  0.2779
  130MOL   O11331331   5.208   7.826   4.076 -0.3441 -0.3189  0.1610
  130MOL   O11431332   5.347   7.656   4.150  0.0615 -0.4386 -0.2175
  130MOL   C11531333   5.271   7.551   4.099  0.1411  0.0452  0.4990
  130MOL   H11631334   5.551   7.894   4.086 -0.8794  2.0229  0.7198
  130MOL   H11731335   5.568   7.775   4.197  0.6944 -0.8410  0.6432
  130MOL   H11831336   5.351   0.042   4.195 -1.7679 -0.5885  1.9173
  130MOL   H11931337   5.296   7.524   3.997  1.7716  0.0879  0.8773
  130MOL   H12031338   5.164   7.572   4.108 -0.1131 -0.1098 -1.9239
  130MOL   H12131339   5.288   7.460   4.157 -0.7837 -1.3246 -1.3464
  130MOL   C12231340   5.355   7.861   4.383 -0.2686 -0.3607  0.8546
  130MOL   C12331341   5.237   0.011   4.415 -0.5688 -0.1798 -0.4757
  130MOL   C12431342   5.101   7.883   4.390 -0.1943 -0.5507 -1.5325
  130MOL   O12531343   5.087   7.759   4.395 -0.5930  0.3198  0.6175
  130MOL   O12631344   5.002   0.037   4.373 -0.1285  0.4347  0.2411
  130MOL   C12731345   4.865   7.919   4.350 -0.3455  0.1469  0.6403
  130MOL   H12831346   5.340   7.755   4.400  1.9752 -1.2224 -2.0663
  130MOL   H12931347   5.443   7.884   4.442  1.0593  0.2093 -1.2826
  130MOL   H13031348   5.242   0.097   4.349  0.9241  0.3710  0.3328
  130MOL   H13131349   4.863   7.879   4.248 -0.0403  0.1548  0.6284
  130MOL   H13231350   4.784   0.054   4.379 -0.0923  0.9267 -0.4264
  130MOL   H13331351   4.842   7.828   4.404 -0.7093  0.6766  1.3903
  130MOL   C13431352   5.232   0.063   4.563 -0.2560 -0.4690 -0.1646
  130MOL   C13531353   5.304   0.203   4.580  0.0173 -0.1174  0.5801
  130MOL   C13631354   5.239   0.308   4.482 -0.3397 -0.1035 -0.5649
  130MOL   O13731355   5.302   0.363   4.394  0.5454 -0.5325 -0.4094
  130MOL   O13831356   5.102   0.328   4.515  0.1528  0.4379  0.1784
  130MOL   C13931357   5.018   0.410   4.439  0.1449  0.9006 -0.4068
  130MOL   H14031358   5.133   0.078   4.605 -0.1863  0.3346 -0.2757
  130MOL   H14131359   5.278   7.923   4.630  1.0773 -0.3395 -0.8983
  130MOL   H14231360   5.410   0.190   4.562  0.3649  0.1524  2.3639
  130MOL   H14331361   4.915   0.394   4.472  0.8396 -0.4344  1.1625
  130MOL   H14431362   5.018   0.387   4.332  6.1275 -0.4114 -0.3075
  130MOL   H14531363   5.029   0.517   4.458 -2.0821  0.7834  1.7737
  130MOL   C14631364   5.294   0.267   4.722 -0.8982 -0.6581 -0.5064
  130MOL   C14731365   5.359   0.173   4.835 -0.1097 -0.6739 -0.1943
  130MOL   C14831366   5.503   0.149   4.803  0.0025  0.0935  0.4453
  130MOL   O14931367   5.558   0.044   4.808 -0.3963  0.5029 -0.1869
  130MOL   O15031368   5.562   0.266   4.774  0.2742  0.3466  0.2089
  130MOL   C15131369   5.693   0.278   4.727 -0.6894 -0.6545  0.7144
  130MOL   H15231370   5.317   0.373   4.725 -2.6943 -0.2703  0.0257
  130MOL   H15331371   5.192   0.258   4.761 -0.9216  0.6244 -0.2723
  130MOL   H15431372   5.311   0.077   4.815 -0.9745 -0.0402 -1.2590
  130MOL   H15531373   5.734   0.378   4.740  0.5260 -0.9956 -0.3744
  130MOL   H15631374   5.688   0.257   4.620  1.1183 -2.5055  0.9548
  130MOL   H15731375   5.757   0.198   4.764  0.5172  0.5786  1.3019
  130MOL   C15831376   5.326   0.222   4.985 -0.0730  0.0310 -0.0163
  130MOL   C15931377   5.297   0.110   5.088  0.2433  0.2161  0.0087
  130MOL   C16031378   5.425   0.031   5.130 -0.4583 -0.7861  0.1772
  130MOL   O16131379   5.513   0.086   5.194 -0.5386 -0.3958 -0.1148
  130MOL   O16231380   5.416   7.836   5.082  0.0752 -0.1365  0.5119
  130MOL   C16331381   5.525   7.754   5.094 -0.5910 -0.1438  0.3266
  130MOL   H16431382   5.408   0.289   5.011 -0.6921  0.1415  1.6522
  130MOL   H16531383   5.237   0.285   4.985 -0.7047 -0.8496 -0.6726
  130MOL   H16631384   5.231   0.040   5.037  1.2415  0.6238 -1.8784
  130MOL   H16731385   5.503   7.652   5.063  2.0091 -0.3252 -1.1131
  130MOL   H16831386   5.552   7.748   5.200  0.6200  0.8630  0.0899
  130MOL   H16931387   5.611   7.796   5.041  0.4240  0.1751  2.1729
  130MOL   C17031388   5.223   0.183   5.209 -0.1574  0.1249 -0.1600
  130MOL   C17131389   5.159   0.089   5.303 -0.4484 -0.3831 -0.7203
  130MOL   C17231390   5.088   0.159   5.417 -0.5008  0.0867 -1.1078
  130MOL   O17331391   5.053   0.277   5.405 -0.7033 -0.2327 -0.3706
  130MOL   O17431392   5.083   0.083   5.528 -0.3092 -0.4754  0.2536
  130MOL   C17531393   4.987   0.120   5.629 -0.6624  0.0696 -0.4860
  130MOL   H17631394   5.285   0.248   5.271  0.5917 -0.1073 -0.6643
  130MOL   H17731395   5.143   0.247   5.171 -1.4685 -1.5581 -0.2708
  130MOL   H17831396   5.243   0.041   5.354 -0.3663  1.5056  0.9965
  130MOL   H17931397   5.025   0.197   5.695  0.1326 -0.6067 -0.1348
  130MOL   H18031398   5.004   0.033   5.693 -1.0129  1.3622  1.3797
  130MOL   H18131399   4.891   0.128   5.579 -0.1771 -2.4356 -1.9579
  130MOL   C18231400   5.073   7.902   5.243 -0.3411 -0.8229  0.6599
  130MOL   C18331401   4.953   0.025   5.160 -0.0131 -0.3596  0.9583
  130MOL   C18431402   4.977   0.025   5.007 -0.0297 -0.1696 -0.0415
  130MOL   O18531403   4.983   0.129   4.943 -0.2749 -0.0468  0.0729
  130MOL   O18631404   4.982   7.840   4.961  0.3980 -0.2312  0.5201
  130MOL   C18731405   4.999   7.819   4.821 -0.3914 -0.0383  0.7571
  130MOL   H18831406   5.139   7.844   5.179  1.6693  0.7466  1.2540
  130MOL   H18931407   5.040   7.833   5.321  0.0908 -1.1286  0.5772
  130MOL   H19031408   4.947   0.133   5.175  3.0005  0.0062 -0.1450
  130MOL   H19131409   4.923   7.863   4.757 -0.1174 -0.1092  0.3829
  130MOL   H19231410   5.013   7.719   4.782 -1.6903 -0.2208  0.7478
  130MOL   H19331411   5.096   7.861   4.792  1.6762 -3.6421  2.0540
  130MOL   C19431412   4.818   7.894   5.201 -0.1288 -0.6101 -0.0718
  130MOL   C19531413   4.763   0.004   5.339  0.3339  0.2254 -0.4088
  130MOL   C19631414   4.718   0.154   5.344  0.3626  0.2842 -0.4685
  130MOL   O19731415   4.708   0.219   5.241 -0.2272 -1.0472  0.4418
  130MOL   O19831416   4.692   0.185   5.467  0.2969 -0.3639 -0.6522
  130MOL   C19931417   4.673   0.321   5.490  0.5376 -0.1417  0.5465
  130MOL   H20031418   4.740   7.923   5.130 -0.4372 -2.0216 -0.3233
  130MOL   H20131419   4.822   7.785   5.205 -0.2209 -0.5669  1.3459
  130MOL   H20231420   4.849   7.923   5.405  0.1549 -2.5383 -0.6759
  130MOL   H20331421   4.585   0.355   5.435 -0.4035 -2.6322  0.4371
  130MOL   H20431422   4.763   0.378   5.468  0.7586 -0.9405 -0.6831
  130MOL   H20531423   4.647   0.333   5.595  0.0233 -1.4785  0.5911
  130MOL   C20631424   4.645   7.843   5.386 -0.3986 -0.0412  0.1341
  130MOL   C20731425   4.687   7.718   5.463 -0.4379 -0.1267  0.4429
  130MOL   C20831426   4.731   7.762   5.604 -0.4531  0.0702  0.5879
  130MOL   O20931427   4.845   7.754   5.636  0.1140 -0.4293 -0.2061
  130MOL   O21031428   4.631   7.799   5.673 -0.6437  0.2427  0.1128
  130MOL   C21131429   4.653   7.843   5.804  0.2486  0.0123 -0.7499
  130MOL   H21231430   4.567   7.894   5.443  1.3312  0.3663  2.1664
  130MOL   H21331431   4.585   7.797   5.307 -1.8146 -1.8295  2.1985
  130MOL   H21431432   4.776   7.675   5.415 -0.6124 -1.2549  1.1143
  130MOL   H21531433   4.558   7.876   5.846  0.6646 -1.7167  1.6616
  130MOL   H21631434   4.716   7.930   5.821  0.1249 -0.4718  2.4215
  130MOL   H21731435   4.690   7.765   5.871  1.3166  0.0840 -1.2431
  130MOL   C21831436   4.576   7.611   5.457  0.0679 -0.3327  0.4776
  130MOL   C21931437   4.591   7.507   5.344  0.0974 -0.0893  0.1986
  130MOL   C22031438   4.707   7.409   5.376 -0.0935 -0.2249  0.0877
  130MOL   O22131439   4.807   7.396   5.298  0.1223 -0.3176 -0.3472
  130MOL   O22231440   4.692   7.338   5.495 -0.2041 -0.2729  0.3160
  130MOL   C22331441   4.782   7.240   5.529  0.1601  0.0395 -0.1983
  130MOL   H22431442   4.570   7.558   5.551  1.6638 -1.4368 -0.0211
  130MOL   H22531443   4.484   7.669   5.445  1.5278  1.7010 -1.5970
  130MOL   H22631444   4.620   7.554   5.250  1.3412 -0.0820  0.5774
  130MOL   H22731445   4.781   7.167   5.448 -0.4238  1.3947 -1.4353
  130MOL   H22831446   4.759   7.199   5.628  1.0119  0.0352  0.0052
  130MOL   H22931447   4.882   7.282   5.541 -0.4718  1.3445  0.4738
  130MOL   C23031448   4.457   7.428   5.326  0.7996 -0.0023 -0.6539
  130MOL   C23131449   4.460   7.304   5.234 -0.4436 -0.1571  0.1035
  130MOL   C23231450   4.325   7.235   5.215  0.1003  0.1537  0.3700
  130MOL   O23331451   4.262   7.201   5.315 -0.5019  0.2283 -0.0016
  130MOL   O23431452   4.307   7.206   5.085  0.0892  0.4428  0.0144
  130MOL   C23531453   4.201   7.133   5.045  0.2638 -1.1928 -0.6406
  130MOL   H23631454   4.396   7.400   5.412 -0.3864 -0.8246 -1.7392
  130MOL   H23731455   4.396   7.505   5.279  1.4599  1.4393  0.7837
  130MOL   H23831456   4.527   7.230   5.278 -2.7327 -1.9364  0.6542
  130MOL   H23931457   4.109   7.187   5.068  2.2370  2.0235  0.0124
  130MOL   H24031458   4.199   7.036   5.096 -0.9582 -1.0546 -0.4006
  130MOL   H24131459   4.202   7.111   4.938  1.2128 -0.9375 -0.6826
  130MOL   H24231460   4.517   7.333   5.146 -0.7673  1.3842  0.3906
  131MOL     C131461   1.574   4.890   3.094 -0.4266 -0.7940 -0.5666
  131MOL     C231462   1.506   4.757   3.062  0.4747 -0.0575  0.5188
  131MOL     C331463   1.360   4.779   3.026  0.0215 -0.0091 -0.4079
  131MOL     O431464   1.330   4.884   2.975 -0.1067  0.2119 -0.1097
  131MOL     O531465   1.276   4.684   3.052  0.0568  0.3785 -0.3335
  131MOL     C631466   1.141   4.707   3.018  0.8505 -0.0747 -0.0726
  131MOL     H731467   1.653   4.878   3.168 -1.6929 -1.4167  0.6939
  131MOL     H831468   1.498   4.955   3.137  0.2227 -0.4985  0.1521
  131MOL     H931469   1.501   4.699   3.154  0.4463 -1.8238 -0.5689
  131MOL    H1031470   1.119   4.752   2.921 -1.8083 -1.4875 -0.1742
  131MOL    H1131471   1.094   4.773   3.091 -0.5414 -2.2959  1.0824
  131MOL    H1231472   1.093   4.610   3.020  0.3211  0.0851 -3.1573
  131MOL    H1331473   1.612   4.936   3.003 -0.4318  1.9481  0.7699
  131MOL    C1431474   1.589   4.679   2.955  0.7374 -0.0809 -0.2902
  131MOL    C1531475   1.745   4.663   2.993  0.1404  0.1057 -0.4525
  131MOL    C1631476   1.764   4.561   3.110  0.3094  0.1561 -0.4114
  131MOL    O1731477   1.680   4.484   3.151 -0.1584  0.1987 -0.4210
  131MOL    O1831478   1.890   4.549   3.150 -0.0339 -0.2796 -0.1931
  131MOL    C1931479   1.930   4.429   3.211  0.0089 -0.6211 -0.6337
  131MOL    H2031480   1.538   4.583   2.949 -0.8090  0.7620 -0.7901
  131MOL    H2131481   1.574   4.735   2.863 -0.9830 -0.5073 -0.2845
  131MOL    H2231482   1.781   4.761   3.023 -1.8640  1.2263 -1.6256
  131MOL    H2331483   2.037   4.432   3.234 -0.8693 -0.8759  3.9982
  131MOL    H2431484   1.911   4.333   3.162 -0.1798 -0.6165 -0.5676
  131MOL    H2531485   1.884   4.431   3.310 -0.2591  1.3965 -0.7883
  131MOL    C2631486   1.828   4.618   2.875 -0.8670  0.2771  0.7497
  131MOL    C2731487   1.919   4.733   2.832 -0.5083 -0.6031 -0.5680
  131MOL    C2831488   2.053   4.735   2.910  0.1543  0.1298 -1.0869
  131MOL    O2931489   2.089   4.834   2.973 -0.1462  0.5370 -0.0886
  131MOL    O3031490   2.125   4.628   2.883 -0.7036  0.1785 -0.1602
  131MOL    C3131491   2.252   4.613   2.933 -0.9596  0.3430  0.0709
  131MOL    H3231492   1.889   4.535   2.911  1.3299  0.7158 -1.7358
  131MOL    H3331493   1.767   4.581   2.792 -0.1616 -0.1483  0.4132
  131MOL    H3431494   1.875   4.828   2.861  1.5651 -0.4684  2.3273
  131MOL    H3531495   2.255   4.644   3.038  0.6541 -1.5908  0.6263
  131MOL    H3631496   2.327   4.674   2.882  0.3978 -1.3637 -0.0375
  131MOL    H3731497   2.274   4.507   2.919 -0.6119  0.4017  0.1559
  131MOL    C3831498   1.947   4.719   2.681 -0.0578 -0.1193  0.0513
  131MOL    C3931499   1.827   4.735   2.576 -0.0289 -0.2114 -0.3085
  131MOL    C4031500   1.774   4.878   2.586  0.2296 -0.1406 -0.6660
  131MOL    O4131501   1.807   4.970   2.514 -0.3186 -0.0044 -0.1140
  131MOL    O4231502   1.686   4.888   2.692  0.2029 -0.5607 -0.5763
  131MOL    C4331503   1.610   5.002   2.712  0.4901 -0.8434  0.4612
  131MOL    H4431504   2.028   4.789   2.658  2.3403 -1.6622  3.4945
  131MOL    H4531505   1.989   4.620   2.668 -1.6822 -0.6643 -1.2858
  131MOL    H4631506   1.740   4.675   2.602 -1.3914  1.9799  0.3494
  131MOL    H4731507   1.521   4.995   2.650 -0.2213 -1.0182  1.4985
  131MOL    H4831508   1.658   5.091   2.671 -2.6347  1.1057  0.8937
  131MOL    H4931509   1.576   5.010   2.815  0.3788 -2.7670  0.6040
  131MOL    C5031510   1.890   4.704   2.436  0.4847  0.4186 -0.1665
  131MOL    C5131511   1.793   4.718   2.316  0.0119 -0.0246 -0.0414
  131MOL    C5231512   1.871   4.687   2.186 -0.3088  0.5853  0.0025
  131MOL    O5331513   1.900   4.573   2.145  0.2970  0.1420 -0.5551
  131MOL    O5431514   1.916   4.804   2.130  0.4374  0.0699 -0.3031
  131MOL    C5531515   2.012   4.808   2.020  0.2507  0.0480 -0.0946
  131MOL    H5631516   1.974   4.772   2.424  0.5042  0.6022  1.0118
  131MOL    H5731517   1.930   4.603   2.444 -2.3681 -0.7631 -0.1495
  131MOL    H5831518   1.755   4.820   2.305 -1.4135 -0.3515  1.4999
  131MOL    H5931519   2.043   4.910   1.997  4.2551 -0.9624  0.4668
  131MOL    H6031520   1.970   4.761   1.931 -2.3235  0.3276  0.9065
  131MOL    H6131521   2.101   4.747   2.032  0.1348  0.1288  1.1700
  131MOL    C6231522   1.666   4.624   2.331 -0.0395  0.2657 -0.0245
  131MOL    C6331523   1.580   4.598   2.208 -0.1296 -0.1055  0.7708
  131MOL    C6431524   1.543   4.441   2.199 -0.7959  0.2496  0.2740
  131MOL    O6531525   1.572   4.372   2.103 -0.0082  0.4396 -0.2512
  131MOL    O6631526   1.467   4.405   2.298 -0.7954 -0.0497  0.0162
  131MOL    C6731527   1.437   4.271   2.322  0.2904 -0.3217  0.2282
  131MOL    H6831528   1.716   4.530   2.354 -1.9065 -1.3495 -2.2792
  131MOL    H6931529   1.609   4.658   2.418  2.4755  1.7671  1.0853
  131MOL    H7031530   1.633   4.619   2.115 -1.9152 -2.3131 -0.8071
  131MOL    H7131531   1.382   4.231   2.237 -0.3078  0.2427  0.3415
  131MOL    H7231532   1.376   4.265   2.412 -0.2841 -0.0075 -0.1369
  131MOL    H7331533   1.527   4.210   2.325  0.7607  0.1760 -2.5150
  131MOL    C7431534   1.453   4.693   2.190  0.0971 -0.7554 -0.5433
  131MOL    C7531535   1.471   4.837   2.138  0.1795  0.2101 -0.2276
  131MOL    C7631536   1.548   4.840   2.012 -0.4287 -0.0815  0.2822
  131MOL    O7731537   1.666   4.871   1.999 -0.2008  0.2315  0.2873
  131MOL    O7831538   1.470   4.811   1.900 -0.6189  0.2905  0.0424
  131MOL    C7931539   1.523   4.818   1.768  0.5113 -0.2891  0.5758
  131MOL    H8031540   1.388   4.644   2.117 -0.6612 -1.2915  0.4804
  131MOL    H8131541   1.400   4.700   2.285  0.4830  0.5863 -0.4290
  131MOL    H8231542   1.541   4.894   2.200  1.2979  2.1841 -3.2137
  131MOL    H8331543   1.456   4.752   1.714  0.9319 -1.3294  1.3088
  131MOL    H8431544   1.626   4.783   1.773  0.5668 -0.3096 -0.7141
  131MOL    H8531545   1.523   4.922   1.736  2.8052 -0.3653  0.2405
  131MOL    C8631546   1.335   4.916   2.139 -0.1410  0.7277  0.3826
  131MOL    C8731547   1.269   4.933   2.275 -0.2651  0.6681 -0.2950
  131MOL    C8831548   1.374   5.002   2.368  0.4856  1.2094  0.7102
  131MOL    O8931549   1.441   4.927   2.441 -0.0125 -0.1881  0.6420
  131MOL    O9031550   1.395   5.136   2.340 -0.7441  0.4009  0.1075
  131MOL    C9131551   1.497   5.199   2.418  0.6296 -0.3035  0.1241
  131MOL    H9231552   1.339   5.010   2.085 -4.5531 -0.3628 -2.1252
  131MOL    H9331553   1.268   4.863   2.071  0.6378  1.3838 -0.9110
  131MOL    H9431554   1.243   4.835   2.314 -1.4874  1.0959 -0.0131
  131MOL    H9531555   1.471   5.207   2.523 -0.6753  1.9889 -0.3420
  131MOL    H9631556   1.521   5.297   2.375 -1.6773 -0.3225 -1.2805
  131MOL    H9731557   1.588   5.140   2.408 -1.6009 -3.9986  0.6788
  131MOL    C9831558   1.136   5.010   2.256 -0.6708  0.6209 -0.0870
  131MOL    C9931559   1.072   5.075   2.384  0.7644  0.7333  0.8316
  131MOL   C10031560   0.948   5.160   2.341  0.2577 -0.4343 -0.6920
  131MOL   O10131561   0.943   5.281   2.361 -0.1968  0.2657  0.3685
  131MOL   O10231562   0.852   5.080   2.275 -0.4422  0.2581  0.0971
  131MOL   C10331563   0.723   5.139   2.239 -0.1068 -0.2339  0.2658
  131MOL   H10431564   1.149   5.090   2.184 -2.8161  1.3302  0.2851
  131MOL   H10531565   1.069   4.934   2.216  1.3513 -0.2064 -1.9976
  131MOL   H10631566   1.158   5.132   2.420  2.2057 -2.7446  3.2496
  131MOL   H10731567   0.690   5.207   2.317  0.8862  0.5986 -0.0227
  131MOL   H10831568   0.643   5.069   2.214  1.1258 -1.6934  0.3132
  131MOL   H10931569   0.737   5.199   2.149 -4.2668 -1.9759 -1.6465
  131MOL   C11031570   1.035   4.976   2.498  0.0850  0.0650  0.6333
  131MOL   C11131571   1.031   5.055   2.632 -0.1619  0.4989  0.6372
  131MOL   C11231572   0.924   4.998   2.732 -0.1699 -0.4734 -0.1232
  131MOL   O11331573   0.848   5.076   2.795  0.2913  0.0763 -0.3069
  131MOL   O11431574   0.932   4.867   2.763 -0.5086 -0.1581 -0.4347
  131MOL   C11531575   0.838   4.809   2.856 -0.0698  0.4925  0.6438
  131MOL   H11631576   0.946   4.915   2.485  1.9545 -2.7811  0.8194
  131MOL   H11731577   1.117   4.904   2.501  0.0341 -0.0574 -0.6031
  131MOL   H11831578   0.978   5.150   2.619 -2.1623 -0.2934  2.6225
  131MOL   H11931579   0.868   4.705   2.869  0.3194  0.7344  1.7665
  131MOL   H12031580   0.738   4.821   2.815  0.5731 -0.9410 -1.4211
  131MOL   H12131581   0.832   4.865   2.950  1.2528  0.4921  0.7411
  131MOL   C12231582   1.171   5.073   2.691  0.3567 -0.3270 -0.3889
  131MOL   C12331583   1.187   5.213   2.755 -0.6001  0.3583  0.5562
  131MOL   C12431584   1.321   5.214   2.830 -0.4890  0.1084 -0.7689
  131MOL   O12531585   1.424   5.200   2.767  0.6732  0.3563  0.0639
  131MOL   O12631586   1.313   5.240   2.959  0.2517  0.0508 -0.2982
  131MOL   C12731587   1.433   5.267   3.027 -0.3971 -0.0400 -0.0796
  131MOL   H12831588   1.191   5.005   2.773  1.8020 -0.0682 -0.5067
  131MOL   H12931589   1.253   5.041   2.626  1.6989  2.0808  0.0476
  131MOL   H13031590   1.104   5.232   2.823 -0.1552  2.7718  0.4775
  131MOL   H13131591   1.467   5.364   2.991 -1.5815  0.4082 -0.0230
  131MOL   H13231592   1.516   5.199   3.008 -0.0520  0.2144  0.5032
  131MOL   H13331593   1.424   5.267   3.135 -1.0618 -2.0585 -0.1022
  131MOL   C13431594   1.192   5.318   2.634 -0.0758 -0.9309 -0.0934
  131MOL   C13531595   1.152   5.466   2.657  0.5783 -0.2159  0.4283
  131MOL   C13631596   1.002   5.472   2.694  0.3787  0.0109  0.1626
  131MOL   O13731597   0.980   5.507   2.813  0.1729  0.1821  0.7035
  131MOL   O13831598   0.920   5.437   2.591 -0.6602  0.8785 -0.3904
  131MOL   C13931599   0.778   5.427   2.619  0.1351 -0.0535 -0.1295
  131MOL   H14031600   1.290   5.309   2.587  0.3778  1.4087  0.3367
  131MOL   H14131601   1.129   5.280   2.554 -0.8158 -2.9222  1.3925
  131MOL   H14231602   1.152   5.523   2.564 -3.8501 -1.5595 -0.4929
  131MOL   H14331603   0.736   5.496   2.692 -0.6070 -0.1646 -0.4469
  131MOL   H14431604   0.752   5.324   2.640 -0.3558 -0.3770 -2.1867
  131MOL   H14531605   0.720   5.452   2.530  1.1170 -0.5414 -0.9167
  131MOL   C14631606   1.249   5.529   2.758 -0.0970 -0.1563 -1.1520
  131MOL   C14731607   1.396   5.547   2.718  0.4666 -0.4585  0.0314
  131MOL   C14831608   1.410   5.611   2.579 -0.7063 -0.1413 -0.1845
  131MOL   O14931609   1.492   5.565   2.494 -0.6865 -0.1140 -0.0182
  131MOL   O15031610   1.329   5.723   2.570 -0.1765  0.2592  0.6761
  131MOL   C15131611   1.340   5.790   2.443  0.4795  0.6271  0.1305
  131MOL   H15231612   1.218   5.632   2.779  0.5202 -0.1941 -0.0281
  131MOL   H15331613   1.249   5.479   2.855  0.0662  1.0527 -0.5158
  131MOL   H15431614   1.442   5.449   2.710  0.6334 -0.4663  1.0865
  131MOL   H15531615   1.251   5.848   2.420  0.7004  0.7155 -0.5135
  131MOL   H15631616   1.344   5.738   2.347  2.1332 -1.3062  1.2311
  131MOL   H15731617   1.433   5.846   2.448  0.6345  0.4976 -1.0067
  131MOL   C15831618   1.470   5.614   2.839  0.4038  0.1044 -0.0876
  131MOL   C15931619   1.624   5.630   2.819 -0.3567  0.7460 -0.2211
  131MOL   C16031620   1.691   5.498   2.781  0.6749  0.4531  0.1742
  131MOL   O16131621   1.682   5.402   2.858  0.7436  0.9262  0.5059
  131MOL   O16231622   1.753   5.487   2.665  0.4082 -0.2431 -0.1722
  131MOL   C16331623   1.801   5.362   2.618  0.1916  0.0591  0.0202
  131MOL   H16431624   1.416   5.706   2.861 -1.0936 -0.8523  0.3323
  131MOL   H16531625   1.440   5.555   2.926  2.3267  1.4136  1.4877
  131MOL   H16631626   1.658   5.655   2.919  1.7774  0.7855 -0.9300
  131MOL   H16731627   1.714   5.301   2.596  0.0957 -0.3860  1.5740
  131MOL   H16831628   1.862   5.328   2.702  0.1384  1.2215  0.5322
  131MOL   H16931629   1.875   5.367   2.538 -0.9053 -1.4054 -1.1077
  131MOL   C17031630   1.664   5.752   2.742  0.5664 -0.2446 -0.6962
  131MOL   C17131631   1.790   5.818   2.806  0.4335  0.3885 -0.7426
  131MOL   C17231632   1.864   5.902   2.708 -0.0037 -0.1371  0.5687
  131MOL   O17331633   1.808   5.960   2.612 -0.1906  0.7078 -0.3282
  131MOL   O17431634   1.990   5.911   2.733 -0.5713 -0.6675  0.0999
  131MOL   C17531635   2.071   5.997   2.660  0.0481  0.1071  0.0168
  131MOL   H17631636   1.676   5.739   2.635  1.1064 -1.4672 -0.4903
  131MOL   H17731637   1.588   5.828   2.759  0.8484 -0.1170  0.0379
  131MOL   H17831638   1.855   5.734   2.831 -0.4213  0.1813  0.9298
  131MOL   H17931639   2.052   6.104   2.656 -0.5110  0.0495  1.0804
  131MOL   H18031640   2.076   5.962   2.557  3.8427  0.6874 -0.0876
  131MOL   H18131641   2.171   5.985   2.702  0.4586 -0.1110 -1.0062
  131MOL   C18231642   1.748   5.908   2.928 -0.6717 -0.6481 -0.1687
  131MOL   C18331643   1.849   5.923   3.041  0.0959  0.4596  0.1796
  131MOL   C18431644   1.861   6.072   3.080 -0.5804  0.3408  0.2291
  131MOL   O18531645   1.969   6.127   3.066  0.7464 -0.1025  0.3691
  131MOL   O18631646   1.748   6.125   3.130 -0.6032 -0.0772  0.2911
  131MOL   C18731647   1.735   6.266   3.119  0.6387  0.1016  0.2784
  131MOL   H18831648   1.738   6.009   2.888  0.0259 -0.0911  1.0215
  131MOL   H18931649   1.648   5.888   2.967 -1.0477  1.4954  0.0363
  131MOL   H19031650   1.944   5.887   3.001 -0.0462  0.4792 -0.1740
  131MOL   H19131651   1.649   6.290   3.183 -0.3188 -0.3461 -0.8127
  131MOL   H19231652   1.717   6.292   3.015  0.3951 -0.0116  0.2894
  131MOL   H19331653   1.832   6.307   3.146  1.1098 -0.7005 -0.1832
  131MOL   C19431654   1.820   5.847   3.173  0.3479 -0.0850 -0.0049
  131MOL   C19531655   1.833   5.691   3.179 -0.5840 -0.2439  0.3887
  131MOL   C19631656   1.967   5.644   3.123 -0.5104  0.1111 -0.2111
  131MOL   O19731657   2.068   5.662   3.189 -0.0321 -0.4402 -0.2602
  131MOL   O19831658   1.957   5.593   3.005  0.3082 -0.3510  0.3008
  131MOL   C19931659   2.069   5.529   2.945 -0.3971 -0.6110 -0.7585
  131MOL   H20031660   1.897   5.890   3.237  0.9998  1.0867 -1.5225
  131MOL   H20131661   1.722   5.867   3.216  1.2444  3.5278  0.5357
  131MOL   H20231662   1.757   5.653   3.112 -1.4080  0.7520  0.7436
  131MOL   H20331663   2.140   5.602   2.907 -2.8661  1.2534 -1.9283
  131MOL   H20431664   2.024   5.492   2.853 -1.8735  2.9306 -1.5381
  131MOL   H20531665   2.126   5.453   3.000 -1.2015 -0.3928  0.4093
  131MOL   C20631666   1.816   5.645   3.326 -0.2356 -0.1001 -0.4043
  131MOL   C20731667   1.731   5.509   3.348 -0.4570  0.5341 -0.5338
  131MOL   C20831668   1.579   5.525   3.320 -0.3061  0.4669 -0.1947
  131MOL   O20931669   1.534   5.507   3.212  0.3196 -0.5663 -0.3347
  131MOL   O21031670   1.510   5.556   3.435 -0.2567 -0.8160 -0.1890
  131MOL   C21131671   1.366   5.554   3.443 -0.4159  0.5339  0.4671
  131MOL   H21231672   1.912   5.651   3.377 -0.0438  0.8820 -0.8688
  131MOL   H21331673   1.756   5.720   3.377  1.2403 -0.4393  1.8691
  131MOL   H21431674   1.745   5.495   3.455  3.7070 -1.3757 -1.2169
  131MOL   H21531675   1.322   5.455   3.428 -0.0678  0.5993 -1.0218
  131MOL   H21631676   1.312   5.620   3.376  1.1837  1.0998 -0.2750
  131MOL   H21731677   1.334   5.578   3.545 -1.6040  2.4473 -0.3405
  131MOL   C21831678   1.801   5.394   3.269  0.0102  0.5698 -0.0726
  131MOL   C21931679   1.733   5.258   3.290  0.2596  0.7804  0.6843
  131MOL   C22031680   1.792   5.156   3.186  0.5080  0.1380 -0.3750
  131MOL   O22131681   1.834   5.048   3.222 -0.1490  1.1363  0.1588
  131MOL   O22231682   1.783   5.196   3.058 -0.0937 -0.6556  0.1492
  131MOL   C22331683   1.847   5.116   2.961  0.0930 -0.2628 -0.6228
  131MOL   H22431684   1.798   5.419   3.163 -0.9341  4.6747  0.8337
  131MOL   H22531685   1.907   5.386   3.294 -0.0861 -1.4700 -0.2692
  131MOL   H22631686   1.632   5.276   3.255  0.7920  0.2104 -1.2202
  131MOL   H22731687   1.862   5.169   2.867  1.2640  1.6194  0.5791
  131MOL   H22831688   1.791   5.025   2.941  1.5569 -0.8745 -2.1081
  131MOL   H22931689   1.943   5.085   3.004  0.0503  1.7373  1.0058
  131MOL   C23031690   1.728   5.211   3.431 -0.0245  0.2276  0.0577
  131MOL   C23131691   1.634   5.083   3.445  0.2107  0.1838 -0.2965
  131MOL   C23231692   1.490   5.104   3.400  0.1952  0.7876 -0.1117
  131MOL   O23331693   1.432   5.209   3.401 -1.2106 -0.4051  0.3664
  131MOL   O23431694   1.433   4.995   3.372  0.2475  0.0382  0.0018
  131MOL   C23531695   1.291   4.988   3.332  0.8636 -0.0990 -0.4122
  131MOL   H23631696   1.830   5.205   3.468  0.9092  1.1748 -2.2504
  131MOL   H23731697   1.687   5.289   3.496  0.5826  0.3432  0.2996
  131MOL   H23831698   1.622   5.053   3.549  0.8015  0.3125 -0.1853
  131MOL   H23931699   1.263   4.889   3.365 -0.6262 -0.2550 -2.0414
  131MOL   H24031700   1.272   4.981   3.225  0.1972  1.9532 -0.4496
  131MOL   H24131701   1.231   5.069   3.374  0.5410 -1.3912  1.6515
  131MOL   H24231702   1.670   5.002   3.381 -0.3431 -0.2337 -0.0831
  132MOL     C131703   4.655   5.238   0.494  0.4364 -1.0310 -0.7976
  132MOL     C231704   4.581   5.135   0.402 -0.2881 -0.1761 -0.1630
  132MOL     C331705   4.433   5.157   0.401 -0.3584  1.1651  0.6442
  132MOL     O431706   4.354   5.068   0.433  0.5903  0.2994 -0.1535
  132MOL     O531707   4.390   5.261   0.333 -0.3059  0.0029 -0.1655
  132MOL     C631708   4.248   5.288   0.320  0.2992  0.0664 -0.1784
  132MOL     H731709   4.755   5.204   0.522  0.1192 -0.5632  0.9834
  132MOL     H831710   4.603   5.257   0.588  0.9209  2.0355 -1.0950
  132MOL     H931711   4.605   5.037   0.442  0.0475 -0.0066  0.0597
  132MOL    H1031712   4.188   5.207   0.280 -0.5798 -0.1669  1.5454
  132MOL    H1131713   4.231   5.371   0.252  2.6233 -1.8409 -3.1860
  132MOL    H1231714   4.199   5.301   0.416  1.2178  2.4898  0.0211
  132MOL    H1331715   4.654   5.331   0.438  1.7183 -0.7720 -0.4160
  132MOL    C1431716   4.650   5.120   0.262  0.2312 -0.6850 -0.3938
  132MOL    C1531717   4.573   5.036   0.158  0.1989  0.6591  0.2605
  132MOL    C1631718   4.647   5.058   0.021 -0.6629 -0.1449 -0.1616
  132MOL    O1731719   4.597   5.123   7.862  0.1729 -0.1470  0.0403
  132MOL    O1831720   4.769   4.998   0.011 -0.0902  0.0758  0.3950
  132MOL    C1931721   4.831   4.994   7.818  0.1281  0.5551 -0.6295
  132MOL    H2031722   4.659   5.224   0.231  1.6069 -0.6428  0.0981
  132MOL    H2131723   4.749   5.076   0.266 -0.1487 -1.6201 -1.1589
  132MOL    H2231724   4.467   5.060   0.146  0.1885  0.7513  0.5358
  132MOL    H2331725   4.895   5.080   7.799  1.5693 -0.0147  1.4413
  132MOL    H2431726   4.764   4.956   7.741  1.5785 -0.5818 -1.3710
  132MOL    H2531727   4.897   4.911   7.844  0.2848  1.4333  1.9222
  132MOL    C2631728   4.568   4.891   0.202 -0.5842 -0.0461  0.1319
  132MOL    C2731729   4.521   4.787   0.098  0.3060  0.4049 -0.2362
  132MOL    C2831730   4.500   4.657   0.183 -0.1441  0.3573  0.0180
  132MOL    O2931731   4.445   4.659   0.293  0.2716 -0.4009  0.0593
  132MOL    O3031732   4.559   4.551   0.127  0.0021  0.1438 -0.3305
  132MOL    C3131733   4.545   4.434   0.200 -0.4536 -0.6209 -0.1781
  132MOL    H3231734   4.659   4.871   0.258  0.6232  3.5844 -0.3905
  132MOL    H3331735   4.497   4.888   0.285 -1.4925  0.6641 -0.6000
  132MOL    H3431736   4.607   4.786   0.031  0.6423 -0.1247  0.2029
  132MOL    H3531737   4.625   4.420   0.274 -0.3380  0.9071 -0.0105
  132MOL    H3631738   4.553   4.351   0.130 -0.4034 -1.1012  0.3951
  132MOL    H3731739   4.444   4.427   0.240 -1.1845  2.3432 -1.3579
  132MOL    C3831740   4.394   4.825   0.019  0.3407  0.8548 -0.1729
  132MOL    C3931741   4.384   4.741   7.825 -0.3821  0.3526  0.5684
  132MOL    C4031742   4.230   4.724   7.794 -0.3919 -0.5529 -0.5341
  132MOL    O4131743   4.173   4.614   7.803  0.5664  0.5583 -0.0493
  132MOL    O4231744   4.175   4.838   7.746  0.1092  0.3614  0.2663
  132MOL    C4331745   4.039   4.847   7.708  0.1431  0.1674  0.5994
  132MOL    H4431746   4.310   4.811   0.087  0.0109 -2.4712 -1.1922
  132MOL    H4531747   4.386   4.928   7.918 -0.7122  0.3226 -1.5323
  132MOL    H4631748   4.410   4.639   7.853 -0.8739 -0.2991 -1.2684
  132MOL    H4731749   3.980   4.926   7.754  0.3319  0.1335  0.8962
  132MOL    H4831750   3.985   4.754   7.726 -1.3468  0.3420 -2.5879
  132MOL    H4931751   4.032   4.859   7.600  1.6497 -0.3111  0.4414
  132MOL    C5031752   4.473   4.791   7.707  0.2776  0.4675 -0.3313
  132MOL    C5131753   4.482   4.711   7.572 -0.3438 -0.2350  0.1681
  132MOL    C5231754   4.349   4.702   7.502 -0.7747 -0.2151  0.1132
  132MOL    O5331755   4.304   4.798   7.434 -0.2488 -0.1470 -0.1735
  132MOL    O5431756   4.312   4.581   7.494  0.7400 -0.4106  0.2902
  132MOL    C5531757   4.185   4.536   7.428 -0.2762  0.2965  0.3343
  132MOL    H5631758   4.462   4.898   7.687  0.4200  0.2107 -1.8177
  132MOL    H5731759   4.572   4.789   7.753 -0.0364 -2.3969  0.3098
  132MOL    H5831760   4.518   4.612   7.602  1.7787  0.3549 -0.3453
  132MOL    H5931761   4.143   4.449   7.478  0.3887 -0.4555 -0.4079
  132MOL    H6031762   4.205   4.513   7.323 -3.1941  0.5135 -0.3091
  132MOL    H6131763   4.116   4.620   7.439  1.7782  1.9952  0.5532
  132MOL    C6231764   4.583   4.776   7.476 -0.0664  0.2594 -0.7147
  132MOL    C6331765   4.729   4.742   7.496  0.8126 -0.3159  0.0776
  132MOL    C6431766   4.758   4.593   7.457  0.2418 -0.4160  0.1735
  132MOL    O6531767   4.719   4.542   7.352  0.8133  0.1415 -0.1957
  132MOL    O6631768   4.843   4.532   7.541  0.1660  0.5954 -0.1542
  132MOL    C6731769   4.889   4.402   7.509  0.1190 -0.0837 -0.1112
  132MOL    H6831770   4.535   4.753   7.380  1.9377 -1.5607 -1.3117
  132MOL    H6931771   4.566   4.882   7.494 -0.4222 -0.1926  1.6744
  132MOL    H7031772   4.749   4.756   7.603  3.5068  1.5264 -0.6079
  132MOL    H7131773   4.907   4.394   7.402  1.4473  0.7138  0.0456
  132MOL    H7231774   4.818   4.328   7.545  1.2484 -1.4418 -0.6225
  132MOL    H7331775   4.983   4.376   7.558  0.8122  0.8733 -0.9190
  132MOL    C7431776   4.817   4.840   7.402 -0.1399  0.9611 -0.6741
  132MOL    C7531777   4.966   4.812   7.423 -0.1733  0.1939  0.1616
  132MOL    C7631778   5.048   4.867   7.300  0.3096 -0.1461 -0.5581
  132MOL    O7731779   5.077   4.790   7.208  1.2367 -0.2887  0.2182
  132MOL    O7831780   5.064   4.996   7.299  0.3685 -0.2258 -0.0823
  132MOL    C7931781   5.139   5.054   7.197  0.6043  0.2525  0.6851
  132MOL    H8031782   4.787   4.831   7.297 -0.6974 -1.5449 -0.3254
  132MOL    H8131783   4.798   4.943   7.431 -0.5278  0.0639  2.4488
  132MOL    H8231784   4.980   4.706   7.401  1.1739  0.5022 -0.4689
  132MOL    H8331785   5.242   5.028   7.219  0.8443  0.4483 -0.1754
  132MOL    H8431786   5.124   5.161   7.202 -3.0321 -0.1158 -0.7211
  132MOL    H8531787   5.109   5.014   7.100  1.7683  0.6937  0.1363
  132MOL    C8631788   5.021   4.853   7.564 -0.3007  0.2713  0.5718
  132MOL    C8731789   5.172   4.814   7.576  0.3126  0.4933  0.2847
  132MOL    C8831790   5.269   4.934   7.552  0.1779  0.3032 -0.1435
  132MOL    O8931791   5.375   4.919   7.497 -0.6888  0.0849 -0.3287
  132MOL    O9031792   5.224   5.043   7.604  0.0413 -0.7619  0.0161
  132MOL    C9131793   5.306   5.160   7.579 -0.0702 -0.1706 -0.5391
  132MOL    H9231794   4.998   4.959   7.574  2.6594  1.0922 -0.9672
  132MOL    H9331795   4.971   4.793   7.640  0.7515 -0.4673  0.6773
  132MOL    H9431796   5.197   4.749   7.492 -0.9946  1.5114 -0.9244
  132MOL    H9531797   5.409   5.145   7.609 -0.2172 -0.7348 -0.3073
  132MOL    H9631798   5.270   5.248   7.633  0.8084 -0.0448 -0.1557
  132MOL    H9731799   5.293   5.194   7.476  2.3714  0.4425 -0.6651
  132MOL    C9831800   5.196   4.735   7.710  0.1551  0.9628 -0.3924
  132MOL    C9931801   5.156   4.587   7.705 -0.0036  0.4532  0.3562
  132MOL   C10031802   5.254   4.511   7.613  0.2125  0.9137  0.0352
  132MOL   O10131803   5.372   4.510   7.631  0.1867 -0.2535  0.0155
  132MOL   O10231804   5.192   4.447   7.514  0.3850  0.2129 -0.0906
  132MOL   C10331805   5.267   4.403   7.403 -0.1358  0.4800  0.6078
  132MOL   H10431806   5.303   4.736   7.732  0.2568 -2.7808 -0.2593
  132MOL   H10531807   5.144   4.792   7.786 -1.2156  0.9795 -1.3309
  132MOL   H10631808   5.061   4.583   7.652 -0.3517 -0.3266  1.0354
  132MOL   H10731809   5.308   4.487   7.347 -0.8326  0.4874  0.0949
  132MOL   H10831810   5.197   4.357   7.332 -0.0942  1.0044  0.2249
  132MOL   H10931811   5.345   4.329   7.421 -1.4302 -1.4338 -1.3502
  132MOL   C11031812   5.129   4.507   7.828 -0.6498 -0.4199 -0.6027
  132MOL   C11131813   5.006   4.561   7.920 -0.1414 -0.0385 -0.4226
  132MOL   C11231814   4.863   4.538   7.863 -0.1409  0.3853 -0.5648
  132MOL   O11331815   4.794   4.632   7.824  0.2874  1.1000  0.1518
  132MOL   O11431816   4.821   4.410   7.862  0.9933 -0.2735  0.2302
  132MOL   C11531817   4.698   4.375   7.799 -0.4759  0.3284 -0.3400
  132MOL   H11631818   5.113   4.403   7.801  2.1851 -0.8585 -0.6646
  132MOL   H11731819   5.226   4.509   7.877  0.5478 -2.8854 -2.7636
  132MOL   H11831820   5.005   4.669   7.931  2.0110 -0.0940  0.6464
  132MOL   H11931821   4.712   4.284   7.741  0.9159  0.4406 -0.1877
  132MOL   H12031822   4.642   4.444   7.735 -0.2676 -1.9929 -3.1555
  132MOL   H12131823   4.624   4.365   7.878 -2.4237  2.3817 -1.7967
  132MOL   C12231824   5.019   4.494   0.125  0.4541 -0.3163 -0.2856
  132MOL   C12331825   4.907   4.526   0.230  0.1412  0.1045 -0.1862
  132MOL   C12431826   4.922   4.441   0.365  0.1651  0.5462  0.1158
  132MOL   O12531827   5.005   4.353   0.368 -0.0607  0.1151 -0.0524
  132MOL   O12631828   4.825   4.465   0.457  0.2667  0.4541  0.2199
  132MOL   C12731829   4.834   4.410   0.584 -0.1645 -0.2099 -0.2054
  132MOL   H12831830   5.024   4.385   0.116  0.6794 -0.4364  1.2240
  132MOL   H12931831   5.116   4.519   0.168  0.6137 -0.4434 -0.5638
  132MOL   H13031832   4.817   4.482   0.187  1.4398 -0.6701 -2.1367
  132MOL   H13131833   4.855   4.498   0.645 -0.2554  0.1013 -0.6170
  132MOL   H13231834   4.916   4.340   0.600 -1.2004 -1.3110  0.3627
  132MOL   H13331835   4.739   4.384   0.631 -0.0471 -2.0625 -0.9381
  132MOL   C13431836   4.878   4.673   0.259  0.0047  0.4494  0.1971
  132MOL   C13531837   4.980   4.750   0.351  0.1890 -0.4116 -1.0913
  132MOL   C13631838   5.128   4.765   0.286 -0.2516 -0.1312  0.0212
  132MOL   O13731839   5.226   4.720   0.343  0.1849  1.0057 -0.2432
  132MOL   O13831840   5.122   4.824   0.163  0.8637 -0.7104 -1.0246
  132MOL   C13931841   5.246   4.870   0.107 -0.2117  0.8220 -0.0823
  132MOL   H14031842   4.864   4.728   0.166 -0.5000 -1.1718 -0.7007
  132MOL   H14131843   4.774   4.680   0.293  0.3505 -0.1112  1.3622
  132MOL   H14231844   4.996   4.688   0.439 -3.0396 -0.7769 -0.6927
  132MOL   H14331845   5.319   4.789   0.105  0.7037  1.5841  1.8420
  132MOL   H14431846   5.276   4.952   0.171  1.4142  0.0114  0.2196
  132MOL   H14531847   5.232   4.909   0.006 -0.6164  1.5451  0.2491
  132MOL   C14631848   4.934   4.895   0.394 -0.0985 -0.5102  0.0302
  132MOL   C14731849   5.021   4.972   0.502  0.0810  0.0896  0.0925
  132MOL   C14831850   5.052   5.110   0.452  0.2686 -0.2895 -0.2522
  132MOL   O14931851   4.972   5.170   0.381  0.2811  0.1040  0.2640
  132MOL   O15031852   5.170   5.158   0.491 -0.4915  0.2510  0.1484
  132MOL   C15131853   5.184   5.302   0.476  0.3786  0.3196  0.0600
  132MOL   H15231854   4.941   4.948   0.299  0.0860  0.6551  0.7000
  132MOL   H15331855   4.833   4.893   0.435 -1.8383  2.1332 -3.8189
  132MOL   H15431856   5.114   4.918   0.519  1.8278  1.6056 -3.9536
  132MOL   H15531857   5.286   5.323   0.447  0.3017  0.9776  0.2582
  132MOL   H15631858   5.155   5.356   0.567  0.0029  1.2472 -0.6062
  132MOL   H15731859   5.121   5.342   0.397  0.6505  1.8283  0.5927
  132MOL   C15831860   4.961   4.962   0.640  0.0192  0.4914 -0.1070
  132MOL   C15931861   4.949   4.823   0.705 -0.5356  0.3807  0.0677
  132MOL   C16031862   5.078   4.742   0.718 -0.3346  0.0022  0.3682
  132MOL   O16131863   5.087   4.629   0.670  0.0594 -0.3664  0.1325
  132MOL   O16231864   5.167   4.799   0.803 -0.1080  0.9530 -0.1268
  132MOL   C16331865   5.276   4.732   0.843  0.2466 -0.0871 -0.4660
  132MOL   H16431866   5.018   5.028   0.705  1.0241  0.9803 -1.4497
  132MOL   H16531867   4.861   5.005   0.644 -1.3844 -2.4720 -1.1841
  132MOL   H16631868   4.880   4.758   0.651  1.1349 -0.6394 -0.8757
  132MOL   H16731869   5.258   4.638   0.894  0.6105  0.4052  0.5816
  132MOL   H16831870   5.342   4.809   0.885 -1.4385  1.2264 -0.1717
  132MOL   H16931871   5.340   4.704   0.759  0.4554 -0.9734 -0.0152
  132MOL   C17031872   4.881   4.827   0.846 -0.1027  0.0125  0.4463
  132MOL   C17131873   4.730   4.874   0.834  0.1339 -0.2333  0.1555
  132MOL   C17231874   4.649   4.779   0.745  0.1072  0.6448  0.6477
  132MOL   O17331875   4.694   4.669   0.709  0.0541  0.1340 -0.1186
  132MOL   O17431876   4.523   4.832   0.717  0.0705  0.3917  0.0027
  132MOL   C17531877   4.430   4.758   0.641  0.6465  0.0539  0.1502
  132MOL   H17631878   4.880   4.723   0.880  3.1040  0.1726  1.1495
  132MOL   H17731879   4.927   4.892   0.920 -1.9216  1.5152  0.2816
  132MOL   H17831880   4.719   4.969   0.783 -0.3168 -0.1653  0.3754
  132MOL   H17931881   4.384   4.680   0.701  1.0287 -0.2100  0.0987
  132MOL   H18031882   4.480   4.716   0.553 -0.0863  0.9961 -0.7340
  132MOL   H18131883   4.352   4.831   0.618  1.4450  1.0836  0.6480
  132MOL   C18231884   4.659   4.891   0.977  0.7730 -0.2709 -0.1273
  132MOL   C18331885   4.699   5.015   1.055  0.8010  1.3113  0.2965
  132MOL   C18431886   4.649   5.149   0.995 -0.2079 -0.0027  0.0349
  132MOL   O18531887   4.531   5.150   0.953  0.0242 -0.1297 -0.3283
  132MOL   O18631888   4.728   5.254   1.014  0.2263  0.0704 -0.1451
  132MOL   C18731889   4.679   5.391   0.998  0.2984  0.1098 -0.3005
  132MOL   H18831890   4.551   4.892   0.966  0.5390  1.8826  2.0718
  132MOL   H18931891   4.676   4.796   1.028  2.8662  0.0662 -0.1439
  132MOL   H19031892   4.808   5.017   1.050  0.7339  0.1403 -2.0780
  132MOL   H19131893   4.746   5.473   1.028 -0.9555  0.4527  1.6770
  132MOL   H19231894   4.593   5.393   1.065  1.2227 -0.9253  0.9367
  132MOL   H19331895   4.659   5.408   0.893  0.2880 -0.7326 -0.4363
  132MOL   C19431896   4.663   5.000   1.204  0.3982  0.3691  0.4766
  132MOL   C19531897   4.744   5.086   1.303  0.2439 -0.3255 -0.8740
  132MOL   C19631898   4.691   5.228   1.323  0.0288 -0.2039  0.0173
  132MOL   O19731899   4.572   5.252   1.334 -0.2366 -0.1782  0.1057
  132MOL   O19831900   4.794   5.314   1.316  0.2009 -0.5360  0.4618
  132MOL   C19931901   4.768   5.452   1.323 -0.3178  0.3034  0.5741
  132MOL   H20031902   4.559   5.032   1.208  0.2660 -0.1811  1.5310
  132MOL   H20131903   4.658   4.894   1.229 -0.9473  0.7567  1.8568
  132MOL   H20231904   4.846   5.094   1.267  0.8022 -0.7234  0.5946
  132MOL   H20331905   4.709   5.483   1.410 -0.7623 -0.7454  0.6561
  132MOL   H20431906   4.704   5.490   1.243 -0.8449  1.7057  1.6297
  132MOL   H20531907   4.863   5.504   1.321 -0.0878 -0.1583 -0.5104
  132MOL   C20631908   4.753   5.017   1.444  0.6236  0.0930  0.3385
  132MOL   C20731909   4.820   5.087   1.570 -0.0617  0.6169  0.2596
  132MOL   C20831910   4.728   5.186   1.641  0.0629 -0.5802 -0.1067
  132MOL   O20931911   4.777   5.296   1.676 -0.0575 -0.2911  0.5114
  132MOL   O21031912   4.600   5.142   1.657  0.4437  0.3030 -0.0207
  132MOL   C21131913   4.511   5.213   1.734 -0.0866  0.7407 -0.0271
  132MOL   H21231914   4.652   4.991   1.478  0.3185  0.2143 -0.4643
  132MOL   H21331915   4.812   4.928   1.426  2.2377  0.9533  1.2894
  132MOL   H21431916   4.901   5.142   1.524  1.9805 -0.6699  2.2101
  132MOL   H21531917   4.555   5.241   1.829 -0.4028  4.0634 -0.8025
  132MOL   H21631918   4.417   5.159   1.738 -0.9560  2.2890  0.8668
  132MOL   H21731919   4.484   5.305   1.682 -1.1202 -1.3900 -3.4675
  132MOL   C21831920   4.880   4.989   1.672 -0.6795  0.4597 -0.5208
  132MOL   C21931921   5.019   4.931   1.619  0.2835 -0.9436  0.7044
  132MOL   C22031922   5.134   5.006   1.688  0.4353 -0.0651 -0.1295
  132MOL   O22131923   5.200   5.082   1.620  0.5418 -0.4802  0.2538
  132MOL   O22231924   5.151   4.978   1.823 -0.1765 -0.2189 -0.2898
  132MOL   C22331925   5.230   5.065   1.906  0.1193  0.2183 -0.0823
  132MOL   H22431926   4.886   5.036   1.770 -0.8013 -0.6587  0.0175
  132MOL   H22531927   4.795   4.921   1.678 -0.4998  0.4509  2.8335
  132MOL   H22631928   5.028   4.946   1.512 -0.3728 -0.5034  0.7069
  132MOL   H22731929   5.205   5.166   1.872  1.3564  0.0036 -1.6860
  132MOL   H22831930   5.332   5.030   1.896 -0.6320 -1.5824 -1.7202
  132MOL   H22931931   5.207   5.072   2.012 -0.4840  2.1128 -0.3213
  132MOL   C23031932   5.039   4.777   1.624  0.7451  0.4057 -0.0409
  132MOL   C23131933   4.971   4.695   1.503  0.0355  0.2323 -0.2277
  132MOL   C23231934   5.032   4.722   1.363  0.5291 -0.6491 -0.5428
  132MOL   O23331935   4.959   4.726   1.267 -0.3036  0.2574 -0.3963
  132MOL   O23431936   5.165   4.723   1.367  0.2723 -0.1184  0.0462
  132MOL   C23531937   5.241   4.734   1.245 -0.8507 -1.4117 -0.0083
  132MOL   H23631938   5.142   4.742   1.620  0.7153  0.3445 -0.3548
  132MOL   H23731939   4.990   4.729   1.708 -2.4083  0.5602 -1.6848
  132MOL   H23831940   4.863   4.709   1.501  0.3896  3.2089 -1.0224
  132MOL   H23931941   5.242   4.637   1.194  0.1505 -1.6231  0.3969
  132MOL   H24031942   5.347   4.750   1.262 -0.7372 -1.9055 -0.2360
  132MOL   H24131943   5.185   4.804   1.184  1.8322  1.5164  0.7898
  132MOL   H24231944   4.977   4.588   1.524 -0.8163  0.1396 -0.4171
  133MOL     C131945   0.743   4.251   7.235  0.3038 -0.3457  0.3447
  133MOL     C231946   0.867   4.222   7.138  1.0090 -0.8842 -0.2223
  133MOL     C331947   0.997   4.288   7.191 -0.7390 -0.1944 -0.1855
  133MOL     O431948   1.043   4.269   7.305  0.1387  0.1399  0.3858
  133MOL     O531949   1.054   4.374   7.099  0.3318  0.6080  0.0810
  133MOL     C631950   1.186   4.431   7.123  0.0868  0.4998  0.1648
  133MOL     H731951   0.745   4.357   7.262  0.1856 -0.1014 -0.5873
  133MOL     H831952   0.759   4.197   7.328  0.0984 -1.7092 -0.4050
  133MOL     H931953   0.837   4.261   7.041 -0.2305  3.2306  1.7038
  133MOL    H1031954   1.261   4.353   7.120 -0.8092 -0.4098  1.0052
  133MOL    H1131955   1.192   4.462   7.227  2.0572  0.9824 -0.0857
  133MOL    H1231956   1.202   4.515   7.054  0.1043  1.1022  0.8896
  133MOL    H1331957   0.646   4.227   7.190  0.7083  1.1815 -1.4302
  133MOL    C1431958   0.893   4.067   7.115 -0.3187  0.2973  0.0453
  133MOL    C1531959   0.780   4.001   7.032 -0.3005  0.1447 -0.2931
  133MOL    C1631960   0.764   4.061   6.893  0.3361  0.2658 -0.7161
  133MOL    O1731961   0.660   4.118   6.862  0.1572  0.0657  0.5399
  133MOL    O1831962   0.874   4.056   6.813 -0.1797  0.6271  0.2126
  133MOL    C1931963   0.855   4.078   6.671  0.7809  0.1040  0.5857
  133MOL    H2031964   0.989   4.065   7.063 -0.9081 -0.7269 -1.0183
  133MOL    H2131965   0.914   4.009   7.205 -0.1361 -0.8358 -0.7207
  133MOL    H2231966   0.679   4.014   7.071 -0.6326  1.6037 -1.6048
  133MOL    H2331967   0.763   4.025   6.646  1.1753  0.0272 -0.7620
  133MOL    H2431968   0.933   4.023   6.618 -0.2889 -0.0209 -0.9006
  133MOL    H2531969   0.851   4.185   6.652 -0.8915 -0.1170 -0.5018
  133MOL    C2631970   0.799   3.843   7.018 -0.9149 -0.8050  0.2241
  133MOL    C2731971   0.936   3.793   6.957 -0.4057 -0.2307 -0.1976
  133MOL    C2831972   1.037   3.764   7.070 -0.5608  0.2167 -0.2885
  133MOL    O2931973   1.150   3.808   7.064 -0.3438 -0.1480 -0.3570
  133MOL    O3031974   0.995   3.682   7.164 -0.0161 -0.2988 -0.7767
  133MOL    C3131975   1.056   3.693   7.287  0.0000 -0.5486  0.3585
  133MOL    H3231976   0.784   3.796   7.115 -1.9545 -0.1640  0.3804
  133MOL    H3331977   0.720   3.809   6.951 -0.5501 -0.1172 -0.5745
  133MOL    H3431978   0.994   3.880   6.923  3.3348 -2.5136  0.0241
  133MOL    H3531979   1.011   3.786   7.322  0.4435 -0.0625 -0.3345
  133MOL    H3631980   1.160   3.723   7.279 -0.2786  0.0350 -1.5872
  133MOL    H3731981   1.033   3.628   7.371 -1.1666  1.6993  1.8178
  133MOL    C3831982   0.913   3.685   6.852 -0.2069 -0.1131  0.0798
  133MOL    C3931983   0.969   3.712   6.712 -0.7345 -0.3673  0.0346
  133MOL    C4031984   1.118   3.723   6.715 -0.4687  0.3259  0.1250
  133MOL    O4131985   1.189   3.647   6.780 -0.2082 -0.0206  0.2207
  133MOL    O4231986   1.167   3.817   6.623  0.7321 -0.3963 -0.5824
  133MOL    C4331987   1.298   3.869   6.634  0.6861  0.2608  0.0476
  133MOL    H4431988   0.968   3.597   6.887 -0.0326  0.6783  1.8841
  133MOL    H4531989   0.813   3.643   6.837  0.3813 -1.3043 -0.5127
  133MOL    H4631990   0.933   3.811   6.684 -1.5865 -0.5443  0.4911
  133MOL    H4731991   1.336   3.862   6.736 -2.6850  1.0889  1.4335
  133MOL    H4831992   1.292   3.972   6.600 -3.7900  0.1177  0.1481
  133MOL    H4931993   1.370   3.816   6.572 -0.8882 -1.1037 -0.6460
  133MOL    C5031994   0.915   3.621   6.605 -0.2207  0.2796 -0.5625
  133MOL    C5131995   0.762   3.613   6.599  0.7271  0.4911 -0.2799
  133MOL    C5231996   0.692   3.741   6.588 -0.0337 -0.3499 -0.2995
  133MOL    O5331997   0.739   3.827   6.511  0.7709  0.3434  0.7595
  133MOL    O5431998   0.576   3.756   6.661 -0.6184 -0.4573 -0.4504
  133MOL    C5531999   0.477   3.863   6.632 -0.7590  0.9717  0.2986
  133MOL    H5632000   0.950   3.657   6.509  2.3209  1.6417  0.8112
  133MOL    H5732001   0.955   3.521   6.616 -2.7406 -0.9605 -2.3461
  133MOL    H5832002   0.732   3.555   6.687  0.7024  3.0918  1.4693
  133MOL    H5932003   0.527   3.949   6.588  2.9455 -0.5594  1.2693
  133MOL    H6032004   0.438   3.886   6.731  2.1734  1.4010  1.4068
  133MOL    H6132005   0.401   3.833   6.560  2.2424 -0.4508 -2.4334
  133MOL    C6232006   0.725   3.526   6.476  0.3201 -0.5424 -0.1371
  133MOL    C6332007   0.576   3.492   6.449 -0.2637  0.8900  0.3007
  133MOL    C6432008   0.562   3.438   6.307  0.1080  0.6650  0.1179
  133MOL    O6532009   0.506   3.501   6.220  0.0558 -0.3391 -0.1172
  133MOL    O6632010   0.623   3.318   6.284 -0.1057  0.3980 -0.5141
  133MOL    C6732011   0.627   3.265   6.152 -0.1118  0.2006 -0.3232
  133MOL    H6832012   0.774   3.568   6.388  1.8129  0.1860  1.0207
  133MOL    H6932013   0.778   3.431   6.479  1.0833 -0.1941 -2.0108
  133MOL    H7032014   0.529   3.591   6.443  3.2957  2.6888  0.6061
  133MOL    H7132015   0.525   3.237   6.127 -0.2414  0.8129 -0.4877
  133MOL    H7232016   0.685   3.172   6.144 -1.7111 -0.8410  0.0381
  133MOL    H7332017   0.677   3.322   6.074  1.5342  3.2240  2.8272
  133MOL    C7432018   0.519   3.409   6.563 -0.7003  0.3433  0.7300
  133MOL    C7532019   0.362   3.388   6.567 -0.0861  0.8304  0.7743
  133MOL    C7632020   0.311   3.302   6.452 -0.1345  0.1895  0.0425
  133MOL    O7732021   0.245   3.353   6.362  0.2471 -0.2056  0.3760
  133MOL    O7832022   0.357   3.184   6.452 -0.5957  0.1053  0.0366
  133MOL    C7932023   0.312   3.099   6.348 -0.0736 -0.1502 -0.1689
  133MOL    H8032024   0.576   3.316   6.563  2.3422  2.1276 -1.4240
  133MOL    H8132025   0.562   3.449   6.655  0.5864  1.2041 -0.2298
  133MOL    H8232026   0.333   3.492   6.556  0.8835  1.0687  0.3581
  133MOL    H8332027   0.355   3.000   6.366 -1.4700  0.0191  4.8634
  133MOL    H8432028   0.353   3.144   6.258  0.2383  1.4970  0.7907
  133MOL    H8532029   0.204   3.089   6.343  0.0094 -1.7645  0.8763
  133MOL    C8632030   0.311   3.345   6.708 -0.7002  0.2794  0.4246
  133MOL    C8732031   0.243   3.460   6.791  0.5457 -0.0943  1.1312
  133MOL    C8832032   0.201   3.401   6.924 -0.2061  0.4861  0.5153
  133MOL    O8932033   0.089   3.388   6.962  0.0522  0.2673  0.0785
  133MOL    O9032034   0.308   3.362   6.988 -0.1736 -0.2337  0.0073
  133MOL    C9132035   0.288   3.298   7.110  0.3141 -1.0785 -0.7501
  133MOL    H9232036   0.245   3.262   6.682  1.2318 -1.3523  0.6579
  133MOL    H9332037   0.391   3.302   6.768 -0.3327  0.7882  0.3026
  133MOL    H9432038   0.154   3.482   6.732  1.6250 -0.2321 -0.6085
  133MOL    H9532039   0.381   3.265   7.157 -0.0533  0.0733  0.8048
  133MOL    H9632040   0.220   3.213   7.099 -3.3713  1.9827 -2.6069
  133MOL    H9732041   0.236   3.364   7.179 -1.5606 -0.2900 -2.8632
  133MOL    C9832042   0.319   3.588   6.812 -0.1237 -0.1442 -0.2869
  133MOL    C9932043   0.244   3.718   6.854  0.1774  0.0296 -0.1877
  133MOL   C10032044   0.133   3.768   6.759  0.1849  0.6504 -0.2369
  133MOL   O10132045   0.154   3.870   6.694 -0.1676  0.3807  0.4375
  133MOL   O10232046   0.019   3.696   6.760  0.1254 -0.0506 -0.4705
  133MOL   C10332047   7.835   3.753   6.704  0.2201 -0.1157  0.3708
  133MOL   H10432048   0.401   3.567   6.881  1.3016 -0.7518 -2.1301
  133MOL   H10532049   0.373   3.616   6.722 -0.1447 -1.3435 -0.6911
  133MOL   H10632050   0.309   3.805   6.849  0.6240 -0.2313  1.0112
  133MOL   H10732051   7.767   3.674   6.670  1.2783  0.3550 -3.0364
  133MOL   H10832052   7.876   3.797   6.613  1.8417 -2.0483  0.1459
  133MOL   H10932053   7.791   3.826   6.772  1.3503  0.7393  0.2035
  133MOL   C11032054   0.185   3.722   6.996 -0.5071  0.5757 -0.3809
  133MOL   C11132055   0.281   3.710   7.113  0.4546  0.2916 -0.0118
  133MOL   C11232056   0.380   3.836   7.103  0.1189  0.8872 -0.6347
  133MOL   O11332057   0.496   3.838   7.065 -0.3612 -0.0319  0.6989
  133MOL   O11432058   0.316   3.949   7.137  0.1998  0.2745  0.2881
  133MOL   C11532059   0.366   4.081   7.099 -0.2472 -0.0798 -0.4564
  133MOL   H11632060   0.134   3.819   7.003 -0.3813  0.6050  0.0932
  133MOL   H11732061   0.111   3.643   7.004  0.1754 -0.0921 -0.6845
  133MOL   H11832062   0.344   3.623   7.090  1.6677  0.6045  2.0162
  133MOL   H11932063   0.469   4.076   7.064 -1.2156  0.0441 -3.4039
  133MOL   H12032064   0.357   4.148   7.185  1.3787  0.4397 -0.6816
  133MOL   H12132065   0.300   4.122   7.023  1.3105  0.6862 -1.3954
  133MOL   C12232066   0.213   3.692   7.253  0.1035  0.1369  0.7037
  133MOL   C12332067   0.286   3.624   7.365 -0.2169 -0.0104 -0.5835
  133MOL   C12432068   0.398   3.702   7.419 -0.7701 -0.5314  0.0572
  133MOL   O12532069   0.396   3.753   7.529 -0.3259  0.3888  0.0091
  133MOL   O12632070   0.508   3.702   7.337 -0.8553  0.5729 -0.1267
  133MOL   C12732071   0.624   3.779   7.368  0.3286 -0.3318 -0.1826
  133MOL   H12832072   0.175   3.788   7.287 -0.2084  0.7305 -1.2451
  133MOL   H12932073   0.118   3.642   7.238  0.6149 -0.4857 -0.6251
  133MOL   H13032074   0.333   3.533   7.327 -2.1839 -1.4039  0.2483
  133MOL   H13132075   0.688   3.779   7.280 -1.0930 -1.2108 -1.2510
  133MOL   H13232076   0.671   3.742   7.459 -0.7038  1.4579  1.1230
  133MOL   H13332077   0.586   3.880   7.382 -1.6892 -1.0742 -0.1185
  133MOL   C13432078   0.194   3.573   7.476 -0.1272 -0.5523 -0.2920
  133MOL   C13532079   0.088   3.671   7.553 -0.0984 -0.3244 -0.4815
  133MOL   C13632080   7.898   3.684   7.478 -0.5653  0.3695  0.4780
  133MOL   O13732081   7.875   3.785   7.410  0.5542 -0.5448  0.5111
  133MOL   O13832082   7.819   3.580   7.486 -0.0129  0.5009  0.1974
  133MOL   C13932083   7.683   3.586   7.438  0.0012  0.0485  0.1833
  133MOL   H14032084   0.139   3.497   7.420  0.7710 -1.7693  0.4461
  133MOL   H14132085   0.242   3.528   7.563  0.5717  0.4524 -0.1461
  133MOL   H14232086   0.128   3.772   7.560 -0.3387 -0.3966  2.7284
  133MOL   H14332087   7.637   3.666   7.494  0.4515  0.4634 -0.0296
  133MOL   H14432088   7.626   3.493   7.443 -1.0325  0.6411 -0.4123
  133MOL   H14532089   7.685   3.622   7.335  1.0661 -0.4854  0.0048
  133MOL   C14632090   0.055   3.633   7.704 -0.2280  0.0254 -0.7438
  133MOL   C14732091   0.175   3.636   7.802 -0.9864  0.5099  0.6320
  133MOL   C14832092   0.188   3.776   7.869 -0.2760  0.4223  0.9377
  133MOL   O14932093   0.109   3.872   7.843 -0.0753 -0.0858  0.2703
  133MOL   O15032094   0.286   3.784   0.033  0.2818 -0.2937 -0.0035
  133MOL   C15132095   0.287   3.887   0.124  0.0554  0.1394 -0.7643
  133MOL   H15232096   7.912   3.700   7.745  0.6112  0.6931 -0.2825
  133MOL   H15332097   0.007   3.535   7.716 -0.3929  0.2731  0.7179
  133MOL   H15432098   0.269   3.633   7.747  0.2819  0.3382  2.7547
  133MOL   H15532099   0.376   3.902   0.186 -0.9172  1.1282  0.4161
  133MOL   H15632100   0.205   3.886   0.195  1.6038 -1.8247  1.0721
  133MOL   H15732101   0.274   3.987   0.083  0.4380 -0.5666 -2.6515
  133MOL   C15832102   0.167   3.518   7.907 -0.6122 -0.4358 -0.4117
  133MOL   C15932103   0.076   3.542   0.107 -0.5799  0.2871  0.4064
  133MOL   C16032104   7.874   3.569   0.065  0.2090  0.3061 -0.1671
  133MOL   O16132105   7.816   3.666   0.109  0.7700 -0.0468  0.0814
  133MOL   O16232106   7.824   3.464   7.932  0.0868  0.0836 -0.5499
  133MOL   C16332107   7.685   3.448   7.910  0.2131 -0.3280 -0.0645
  133MOL   H16432108   0.134   3.428   7.855 -1.6224 -0.2355 -0.1288
  133MOL   H16532109   0.268   3.509   0.016 -0.8383  0.6569  0.3988
  133MOL   H16632110   0.117   3.628   0.159  2.3418 -2.6029  3.1069
  133MOL   H16732111   7.666   3.345   0.005  2.6411  0.1022  3.5470
  133MOL   H16832112   7.659   3.463   7.805 -0.1227 -0.2747  0.0255
  133MOL   H16932113   7.619   3.501   0.046  1.2858  0.0177  0.7217
  133MOL   C17032114   0.084   3.423   0.207  0.4283 -0.6482  0.1370
  133MOL   C17132115   0.163   3.455   0.330  0.5381 -0.4859  0.6315
  133MOL   C17232116   0.311   3.491   0.286  0.8213  0.3912  0.6681
  133MOL   O17332117   0.351   3.607   0.282  0.0134 -0.1722 -0.3591
  133MOL   O17432118   0.378   3.381   0.257  0.1082  0.1829  0.5062
  133MOL   C17532119   0.521   3.381   0.244  0.1066  0.7805  0.1261
  133MOL   H17632120   7.919   3.392   0.246 -0.3167 -0.2461 -1.3961
  133MOL   H17732121   0.120   3.338   0.150  0.6638  0.0633 -0.7911
  133MOL   H17832122   0.175   3.363   0.387 -0.9585 -0.9366  0.2133
  133MOL   H17932123   0.561   3.434   0.157  0.3678 -0.1852 -0.3556
  133MOL   H18032124   0.563   3.280   0.241  0.6693  0.9907  0.9250
  133MOL   H18132125   0.561   3.433   0.331  0.3591  1.2819 -0.2880
  133MOL   C18232126   0.091   3.557   0.428 -0.1162  0.0644 -0.4121
  133MOL   C18332127   0.151   3.562   0.574 -0.7473  0.4237  0.2440
  133MOL   C18432128   0.120   3.697   0.627  0.6903  0.1526  0.1485
  133MOL   O18532129   0.207   3.779   0.669 -0.1516  0.0919 -0.4816
  133MOL   O18632130   7.920   3.728   0.626  0.0780 -0.2594  0.0790
  133MOL   C18732131   7.873   3.825   0.713 -0.0590  0.3501 -0.0841
  133MOL   H18832132   0.074   3.656   0.385 -1.3879 -0.4267 -1.0723
  133MOL   H18932133   7.925   3.511   0.429 -0.4235  0.6581 -1.9779
  133MOL   H19032134   0.259   3.544   0.570 -0.3940  2.0873  1.6865
  133MOL   H19132135   7.765   3.842   0.711  0.0367  0.9244 -2.4351
  133MOL   H19232136   0.001   3.914   0.693 -2.9883  2.6897  1.0450
  133MOL   H19332137   7.888   3.800   0.818 -1.3910 -2.1216 -0.4440
  133MOL   C19432138   0.094   3.453   0.669  0.2297 -0.7261 -0.0160
  133MOL   C19532139   0.141   3.458   0.817 -0.0235 -0.3265  0.4074
  133MOL   C19632140   0.060   3.369   0.912  0.1611  0.1746  0.3605
  133MOL   O19732141   0.047   3.254   0.888 -0.2191  0.4324  0.0447
  133MOL   O19832142   0.015   3.431   1.023  0.6284 -0.0957  0.6805
  133MOL   C19932143   7.851   3.368   1.105 -0.3274 -0.8092 -0.9325
  133MOL   H20032144   7.919   3.471   0.673  0.8790  3.0865  2.2834
  133MOL   H20132145   0.097   3.355   0.621 -2.4720 -0.6572 -0.4153
  133MOL   H20232146   0.119   3.559   0.851  1.9648 -0.9970  3.8498
  133MOL   H20332147   7.800   3.436   1.173 -2.6929 -3.1554 -0.2937
  133MOL   H20432148   7.915   3.303   1.165 -0.3282  1.8353  2.0699
  133MOL   H20532149   7.769   3.316   1.056  0.3416  1.0114 -4.1064
  133MOL   C20632150   0.289   3.431   0.840 -0.5743 -0.4933  0.2729
  133MOL   C20732151   0.344   3.490   0.976 -0.7487  0.0813  0.2013
  133MOL   C20832152   0.476   3.416   1.023 -0.4192  0.5313  0.5256
  133MOL   O20932153   0.535   3.336   0.948 -0.0136  0.3365 -0.6196
  133MOL   O21032154   0.524   3.457   1.145  0.4403  0.1641  0.6412
  133MOL   C21132155   0.633   3.398   1.201 -0.0953 -0.4923 -0.2851
  133MOL   H21232156   0.307   3.324   0.830 -1.8651 -0.8731  1.7902
  133MOL   H21332157   0.355   3.463   0.760 -0.2310  1.2776  1.2366
  133MOL   H21432158   0.273   3.467   1.055 -0.2946  0.1898  0.6437
  133MOL   H21532159   0.670   3.436   1.296 -1.6763 -1.0686  0.5799
  133MOL   H21632160   0.710   3.416   1.125 -0.4093  1.9999 -0.0574
  133MOL   H21732161   0.629   3.290   1.212  3.5027 -0.8041 -1.3722
  133MOL   C21832162   0.370   3.640   0.971  0.3000  0.2077 -0.3285
  133MOL   C21932163   0.317   3.706   1.104 -0.0998  0.5963 -0.2556
  133MOL   C22032164   0.385   3.841   1.119 -0.1964  0.3730 -0.1120
  133MOL   O22132165   0.476   3.860   1.200  0.4844 -0.2676 -0.2399
  133MOL   O22232166   0.334   3.935   1.036  0.2544 -0.0064  0.4994
  133MOL   C22332167   0.392   4.067   1.040  0.8767 -0.2467  0.9701
  133MOL   H22432168   0.476   3.666   0.970 -0.0231  1.5476 -1.0063
  133MOL   H22532169   0.321   3.687   0.886 -0.9705  1.0544  0.8381
  133MOL   H22632170   0.353   3.659   1.195 -2.6773  0.4520  0.7273
  133MOL   H22732171   0.346   4.138   0.971 -1.0623 -0.6848  1.7568
  133MOL   H22832172   0.500   4.065   1.032  0.9314 -0.9822  1.7400
  133MOL   H22932173   0.359   4.101   1.138  1.7009  0.8949  0.8551
  133MOL   C23032174   0.167   3.726   1.113  0.0380 -0.8777 -0.1086
  133MOL   C23132175   0.104   3.819   1.224 -0.4349  0.0640 -0.2441
  133MOL   C23232176   7.895   3.777   1.274 -0.2645  0.3609 -0.1535
  133MOL   O23332177   7.795   3.811   1.216  0.1680 -0.3612 -0.0128
  133MOL   O23432178   7.892   3.698   1.382  0.2732 -0.2816 -0.0036
  133MOL   C23532179   7.765   3.656   1.438  1.4654  0.5866  0.5314
  133MOL   H23632180   0.125   3.751   1.016  1.2786  0.7779 -0.2354
  133MOL   H23732181   0.122   3.629   1.135 -0.9707 -0.3971 -0.0248
  133MOL   H23832182   0.109   3.921   1.185 -2.9836  0.5229  0.5935
  133MOL   H23932183   7.797   3.578   1.507 -0.4651  1.5466  2.6016
  133MOL   H24032184   7.702   3.607   1.364  1.4843  1.4284 -0.0476
  133MOL   H24132185   7.703   3.729   1.491 -0.7042 -0.9231  0.1447
  133MOL   H24232186   0.173   3.821   1.308 -1.0746  2.3078  0.2597
  134MOL     C132187   3.662   4.625   4.995  0.1720 -0.3051 -0.1553
  134MOL     C232188   3.521   4.572   4.994  0.3301  0.6859 -0.0827
  134MOL     C332189   3.517   4.424   4.949  0.0086  0.1064 -0.1538
  134MOL     O432190   3.469   4.387   4.839  0.2548  0.2629 -0.1360
  134MOL     O532191   3.581   4.339   5.036 -0.1825 -0.1038  0.3847
  134MOL     C632192   3.588   4.197   5.015 -0.4184  0.2409 -0.4708
  134MOL     H732193   3.703   4.605   4.896 -0.6788 -0.6420 -0.4423
  134MOL     H832194   3.730   4.585   5.070  1.0045 -1.6905 -1.6309
  134MOL     H932195   3.448   4.617   4.926 -0.2455  1.7312  1.2025
  134MOL    H1032196   3.683   4.167   5.060 -0.6368  2.3040  1.4559
  134MOL    H1132197   3.567   4.170   4.911 -2.8777 -0.2948  0.1342
  134MOL    H1232198   3.507   4.144   5.063  1.0465 -1.7501 -0.1425
  134MOL    H1332199   3.679   4.732   5.002  1.6429 -0.6456  2.2350
  134MOL    C1432200   3.448   4.593   5.126 -0.4311  0.0712  0.3803
  134MOL    C1532201   3.451   4.737   5.185 -0.2839 -0.2100 -0.3579
  134MOL    C1632202   3.383   4.838   5.086 -0.1451 -0.5734 -0.1919
  134MOL    O1732203   3.271   4.898   5.103 -0.3550 -0.2257 -0.4060
  134MOL    O1832204   3.460   4.862   4.978  0.2811  0.5350  0.0404
  134MOL    C1932205   3.417   4.944   4.871  0.6861 -0.4115 -0.5447
  134MOL    H2032206   3.342   4.583   5.101 -0.8594 -0.5865  2.4127
  134MOL    H2132207   3.483   4.521   5.199 -0.0798  0.2600  0.3966
  134MOL    H2232208   3.551   4.781   5.193 -0.2551 -0.1501 -1.0370
  134MOL    H2332209   3.359   4.878   4.807  0.9586  0.8621 -2.1440
  134MOL    H2432210   3.494   4.997   4.815  0.3235  0.0464 -0.6112
  134MOL    H2532211   3.339   5.013   4.903  0.8015 -0.8415  0.6616
  134MOL    C2632212   3.383   4.749   5.318 -0.3732  0.0101 -0.2954
  134MOL    C2732213   3.462   4.683   5.430 -0.4460  0.2836 -0.0850
  134MOL    C2832214   3.582   4.764   5.490  0.0975 -0.3025  0.9733
  134MOL    O2932215   3.668   4.699   5.547 -0.4745 -0.3062 -0.0007
  134MOL    O3032216   3.567   4.897   5.481 -0.0461  0.2778  0.2272
  134MOL    C3132217   3.693   4.961   5.511  0.5513  0.7011  0.3170
  134MOL    H3232218   3.354   4.852   5.340 -0.3727  0.1705 -1.0346
  134MOL    H3332219   3.290   4.692   5.312 -0.6015  0.1943  1.2428
  134MOL    H3432220   3.507   4.594   5.386  0.6008 -0.0379  1.5684
  134MOL    H3532221   3.758   4.960   5.423 -0.7953  0.4311 -0.6878
  134MOL    H3632222   3.750   4.927   5.597 -0.3976 -0.1252  0.6244
  134MOL    H3732223   3.670   5.064   5.535  2.0648  0.9272  0.8509
  134MOL    C3832224   3.371   4.639   5.547 -0.2236  0.3335 -0.7101
  134MOL    C3932225   3.299   4.752   5.629 -0.5527  0.0576 -0.3361
  134MOL    C4032226   3.157   4.775   5.583  0.1202  0.4051  0.0917
  134MOL    O4132227   3.060   4.712   5.632  0.0560 -0.1853  0.5973
  134MOL    O4232228   3.145   4.877   5.487 -0.2296 -0.1921  0.0362
  134MOL    C4332229   3.020   4.933   5.457 -0.5749 -0.2777  0.5360
  134MOL    H4432230   3.306   4.563   5.504 -2.1928  2.7457 -2.2027
  134MOL    H4532231   3.434   4.585   5.618  0.3580  0.0112 -1.4702
  134MOL    H4632232   3.347   4.846   5.600  0.3202 -0.0221  0.8130
  134MOL    H4732233   2.987   4.986   5.547  0.5338 -0.1180  0.8583
  134MOL    H4832234   2.945   4.856   5.439 -1.2108  0.0522  1.6977
  134MOL    H4932235   3.021   5.002   5.373 -1.3349 -0.1537  0.6284
  134MOL    C5032236   3.318   4.738   5.778 -0.0411 -0.4945 -0.3338
  134MOL    C5132237   3.287   4.872   5.860 -0.4919  0.4792  0.5982
  134MOL    C5232238   3.283   4.833   6.004  0.4214  0.0302 -0.1344
  134MOL    O5332239   3.181   4.843   6.074  0.4184 -0.3784  0.0288
  134MOL    O5432240   3.390   4.780   6.053  0.7830  0.4663 -0.4326
  134MOL    C5532241   3.399   4.759   6.191  0.1982  0.3009  0.2957
  134MOL    H5632242   3.245   4.663   5.808 -0.6870  0.0312 -0.5635
  134MOL    H5732243   3.422   4.710   5.791  0.2945  0.9957  0.3558
  134MOL    H5832244   3.190   4.912   5.831  0.3690  1.0020 -1.6562
  134MOL    H5932245   3.398   4.854   6.245 -1.2057 -0.7435  2.1443
  134MOL    H6032246   3.493   4.708   6.211 -0.4483 -1.3594 -0.7538
  134MOL    H6132247   3.310   4.706   6.224  0.2046 -1.7828 -2.8207
  134MOL    C6232248   3.395   4.987   5.842 -0.2108 -0.1729 -0.4622
  134MOL    C6332249   3.338   5.125   5.828  0.0779 -0.4031 -0.3003
  134MOL    C6432250   3.253   5.190   5.938  0.4461  0.2654  0.3851
  134MOL    O6532251   3.134   5.181   5.923 -0.5472 -0.0282 -0.5819
  134MOL    O6632252   3.323   5.248   6.038 -0.1677  0.0953 -0.6132
  134MOL    C6732253   3.253   5.324   6.134  0.0512  0.0244  0.5159
  134MOL    H6832254   3.468   5.000   5.922 -1.1671 -0.1189  0.4242
  134MOL    H6932255   3.458   4.964   5.757 -1.8170 -0.9830 -1.4559
  134MOL    H7032256   3.270   5.119   5.743 -0.9409 -2.5409  0.6418
  134MOL    H7132257   3.204   5.414   6.097  1.9613  1.6370  1.8142
  134MOL    H7232258   3.333   5.357   6.201 -1.3301  0.8200  1.8169
  134MOL    H7332259   3.185   5.256   6.186  0.7274 -1.0693 -0.0160
  134MOL    C7432260   3.457   5.229   5.780  0.3633  1.2834  0.2571
  134MOL    C7532261   3.423   5.333   5.665 -0.6316 -0.5393  0.0995
  134MOL    C7632262   3.394   5.269   5.528  0.0024  0.8118  0.4793
  134MOL    O7732263   3.280   5.252   5.493 -0.7610  0.2608  0.2362
  134MOL    O7832264   3.499   5.228   5.465 -0.1252 -0.0529  0.4898
  134MOL    C7932265   3.482   5.191   5.333 -0.4514  0.3298 -0.5738
  134MOL    H8032266   3.503   5.270   5.869  0.7789 -0.6264  0.9607
  134MOL    H8132267   3.537   5.163   5.745 -0.7383 -0.1818  0.4386
  134MOL    H8232268   3.512   5.390   5.641 -1.4554 -0.0288 -1.8289
  134MOL    H8332269   3.415   5.107   5.318  2.6089 -2.0563 -1.4658
  134MOL    H8432270   3.580   5.152   5.306 -1.1502 -0.6314 -1.7535
  134MOL    H8532271   3.447   5.276   5.274 -0.7394  0.3312 -0.4018
  134MOL    C8632272   3.317   5.439   5.702  0.6547 -0.9992  0.2081
  134MOL    C8732273   3.359   5.560   5.785  0.3397 -0.3677 -0.4960
  134MOL    C8832274   3.449   5.666   5.709  0.3364 -0.8389 -0.5991
  134MOL    O8932275   3.417   5.703   5.597 -0.1129  0.2908  0.0848
  134MOL    O9032276   3.557   5.701   5.777  0.3221 -0.6131 -0.0947
  134MOL    C9132277   3.675   5.760   5.738  0.2569 -0.3958 -0.0471
  134MOL    H9232278   3.260   5.462   5.612 -1.4542  0.2451  1.8058
  134MOL    H9332279   3.239   5.394   5.764  0.7141 -2.1942 -0.5649
  134MOL    H9432280   3.432   5.522   5.856 -2.2938  0.5286  2.7864
  134MOL    H9532281   3.698   5.722   5.639  1.3910  0.8501 -0.2703
  134MOL    H9632282   3.760   5.733   5.801  0.0994 -0.1907  0.2600
  134MOL    H9732283   3.674   5.869   5.742  0.4693 -0.3474 -1.2489
  134MOL    C9832284   3.260   5.631   5.876  0.2893  0.1825 -0.7732
  134MOL    C9932285   3.166   5.747   5.812 -0.5205  0.0624  0.2220
  134MOL   C10032286   3.047   5.682   5.747 -0.2176 -0.2165  0.4469
  134MOL   O10132287   3.048   5.626   5.635  0.1916 -0.5860  0.9888
  134MOL   O10232288   2.939   5.687   5.828  0.0018  0.3944 -0.6515
  134MOL   C10332289   2.809   5.636   5.787 -0.1068 -0.0033 -0.0525
  134MOL   H10432290   3.198   5.559   5.929  2.0005 -1.7569 -1.3506
  134MOL   H10532291   3.324   5.679   5.950 -2.4898  1.1384  1.0941
  134MOL   H10632292   3.213   5.795   5.725 -1.3636 -1.7854 -1.2883
  134MOL   H10732293   2.754   5.705   5.723 -0.8232 -0.6538 -0.1541
  134MOL   H10832294   2.759   5.612   5.881 -0.1804 -1.6548 -0.4960
  134MOL   H10932295   2.815   5.538   5.739 -0.0642 -0.9591  1.8552
  134MOL   C11032296   3.141   5.871   5.911 -0.0315  0.1735  0.0489
  134MOL   C11132297   3.264   5.967   5.939  0.6447 -0.7183 -0.5825
  134MOL   C11232298   3.300   6.029   5.799  0.0716  0.1644  0.0030
  134MOL   O11332299   3.211   6.085   5.730 -0.4553 -0.7081 -0.8038
  134MOL   O11432300   3.433   6.023   5.765  0.1511 -0.1528 -0.4403
  134MOL   C11532301   3.472   6.062   5.636 -0.2932  0.3866  0.1828
  134MOL   H11632302   3.051   5.926   5.883  0.6780  0.7602 -1.0975
  134MOL   H11732303   3.111   5.836   6.010  0.5356 -2.0034 -0.5311
  134MOL   H11832304   3.351   5.913   5.976  1.2042 -0.4681 -1.5037
  134MOL   H11932305   3.411   6.147   5.604 -1.1728  0.2847  1.5391
  134MOL   H12032306   3.463   5.985   5.560  0.5301  0.7494 -0.2900
  134MOL   H12132307   3.577   6.090   5.637 -0.7151  2.0584 -0.6517
  134MOL   C12232308   3.226   6.088   6.040 -0.3362  0.3639 -0.0506
  134MOL   C12332309   3.333   6.153   6.134  0.1228 -0.0510  0.7633
  134MOL   C12432310   3.420   6.057   6.221  0.5839 -0.8592 -0.1301
  134MOL   O12532311   3.451   5.947   6.182  0.4244  0.3664 -0.2771
  134MOL   O12632312   3.454   6.112   6.337  0.7130  0.2600  0.3641
  134MOL   C12732313   3.532   6.033   6.420 -0.9272  0.6843  0.4732
  134MOL   H12832314   3.190   6.163   5.970 -0.6083 -1.3340 -1.7935
  134MOL   H12932315   3.140   6.054   6.098  0.1919  0.6089  0.8837
  134MOL   H13032316   3.270   6.202   6.208 -0.1249  1.7758 -0.6142
  134MOL   H13132317   3.555   6.082   6.514  1.2343 -4.1967  2.7101
  134MOL   H13232318   3.633   6.025   6.378 -0.0064 -1.0611  2.9020
  134MOL   H13332319   3.490   5.936   6.447  2.0161 -0.4089  1.3563
  134MOL   C13432320   3.420   6.254   6.069 -0.0171 -0.4744  0.3503
  134MOL   C13532321   3.345   6.392   6.056  0.5844  0.1871 -0.3040
  134MOL   C13632322   3.326   6.463   6.196  0.0084  0.8199  0.1418
  134MOL   O13732323   3.423   6.469   6.271  0.0573  0.2841  0.1545
  134MOL   O13832324   3.208   6.527   6.214  0.6868  0.3776  0.2586
  134MOL   C13932325   3.191   6.611   6.326 -0.1915  0.0827  0.0937
  134MOL   H14032326   3.519   6.276   6.110  0.1303  1.2806 -0.8709
  134MOL   H14132327   3.435   6.208   5.971 -3.1835  0.1518 -0.4675
  134MOL   H14232328   3.242   6.386   6.022  0.1706  3.6004  0.0901
  134MOL   H14332329   3.280   6.667   6.353 -0.7021  1.4016 -0.9582
  134MOL   H14432330   3.146   6.552   6.407 -0.3489  0.0895  0.0099
  134MOL   H14532331   3.128   6.697   6.304  0.5614  1.1348  1.8710
  134MOL   C14632332   3.416   6.484   5.959 -0.6120  0.0062  0.1788
  134MOL   C14732333   3.412   6.440   5.813 -0.0846 -0.5814 -0.1711
  134MOL   C14832334   3.280   6.449   5.738 -0.5829  0.1812 -0.7143
  134MOL   O14932335   3.258   6.525   5.645  0.9914 -0.2296  0.3083
  134MOL   O15032336   3.185   6.384   5.795  0.4529 -0.3402  0.3093
  134MOL   C15132337   3.053   6.382   5.747 -0.3337 -0.0054  0.4183
  134MOL   H15232338   3.382   6.585   5.982 -0.1871  0.5477 -1.5059
  134MOL   H15332339   3.518   6.491   5.995 -0.2928 -2.2461 -0.1984
  134MOL   H15432340   3.436   6.334   5.816 -1.3658 -0.8463  0.9600
  134MOL   H15532341   2.987   6.331   5.817 -0.9671  0.6212  0.2899
  134MOL   H15632342   3.050   6.346   5.644 -1.2525  0.7663  0.1650
  134MOL   H15732343   3.011   6.481   5.726  1.6264  0.3626 -2.0380
  134MOL   C15832344   3.523   6.503   5.725  0.0646 -0.0950  1.3013
  134MOL   C15932345   3.664   6.502   5.776  0.3435 -0.7273 -0.0314
  134MOL   C16032346   3.712   6.364   5.818  1.0976 -0.3640 -0.4062
  134MOL   O16132347   3.678   6.261   5.765 -0.1043 -0.2554 -0.8391
  134MOL   O16232348   3.796   6.376   5.915 -1.1762 -0.1233 -0.0620
  134MOL   C16332349   3.859   6.260   5.957 -0.0903 -0.2316  0.0098
  134MOL   H16432350   3.523   6.446   5.632 -1.3364  1.7721  0.1335
  134MOL   H16532351   3.499   6.605   5.697  0.7543 -0.5500 -1.0737
  134MOL   H16632352   3.661   6.564   5.866  1.0724 -0.6391 -0.0635
  134MOL   H16732353   3.938   6.276   6.030  1.3994  1.4554 -1.9163
  134MOL   H16832354   3.916   6.216   5.875  0.1907  0.9559 -0.4408
  134MOL   H16932355   3.781   6.191   5.990 -0.7795  1.0007  1.0076
  134MOL   C17032356   3.769   6.561   5.671  0.4755 -0.2399  0.3181
  134MOL   C17132357   3.802   6.711   5.701  0.5339  0.1878  0.2252
  134MOL   C17232358   3.906   6.737   5.805 -0.7112  0.0878  0.4269
  134MOL   O17332359   3.974   6.644   5.846  0.6491  0.2833  0.1738
  134MOL   O17432360   3.900   6.860   5.859 -0.1572  0.2395 -0.1770
  134MOL   C17532361   4.010   6.902   5.927  0.1751 -0.6904 -0.1816
  134MOL   H17632362   3.863   6.507   5.665  0.8441  0.3793  0.4547
  134MOL   H17732363   3.723   6.563   5.572  0.1141  3.2238  0.4784
  134MOL   H17832364   3.713   6.756   5.745 -0.1426 -1.9475  1.0775
  134MOL   H17932365   4.007   6.854   6.024  0.3178 -0.4596 -0.0619
  134MOL   H18032366   3.999   7.010   5.937 -0.0006 -0.5210 -1.9668
  134MOL   H18132367   4.106   6.880   5.880  0.0334 -1.9086  0.1025
  134MOL   C18232368   3.847   6.780   5.562 -0.0909  0.3004 -0.3724
  134MOL   C18332369   3.725   6.834   5.475 -0.6613  0.6541  0.2937
  134MOL   C18432370   3.659   6.955   5.556  0.5817  0.0444  0.0185
  134MOL   O18532371   3.699   7.070   5.546  0.4004 -0.1168 -0.2827
  134MOL   O18632372   3.567   6.913   5.635  0.1848 -0.1344  0.2001
  134MOL   C18732373   3.500   6.994   5.725  0.5684 -0.7530  0.2593
  134MOL   H18832374   3.911   6.866   5.582  0.2233 -0.0073 -0.0174
  134MOL   H18932375   3.905   6.714   5.498 -1.3631 -1.2471  0.0464
  134MOL   H19032376   3.660   6.746   5.474 -1.7288  1.4144  1.0389
  134MOL   H19132377   3.489   7.093   5.681  0.5847 -0.5380  0.7381
  134MOL   H19232378   3.553   7.002   5.820 -1.0536  0.3166  1.0975
  134MOL   H19332379   3.399   6.954   5.733 -0.0294  0.5165 -0.7904
  134MOL   C19432380   3.776   6.877   5.336  0.4735  0.7065 -0.0662
  134MOL   C19532381   3.663   6.936   5.235 -0.8680  0.0681 -0.2881
  134MOL   C19632382   3.735   6.975   5.105 -1.0480  0.2285  0.0061
  134MOL   O19732383   3.746   7.090   5.065 -0.0070  0.3018  0.3664
  134MOL   O19832384   3.809   6.870   5.054 -0.1463 -0.3369  0.0276
  134MOL   C19932385   3.873   6.891   4.933  0.1075  0.5431 -0.6021
  134MOL   H20032386   3.850   6.956   5.346  0.5683  0.3956  1.7066
  134MOL   H20132387   3.822   6.786   5.298  2.7055  1.2192  1.3360
  134MOL   H20232388   3.621   7.024   5.284  0.2437 -0.3072  1.3543
  134MOL   H20332389   3.813   6.920   4.847 -0.1376 -0.6058 -0.8209
  134MOL   H20432390   3.922   6.796   4.913  0.9236  0.4503  1.6792
  134MOL   H20532391   3.953   6.961   4.958  1.1726 -0.6234 -0.6472
  134MOL   C20632392   3.538   6.842   5.203 -0.8505  0.3179 -0.0331
  134MOL   C20732393   3.419   6.846   5.299 -0.7674 -0.9375  0.2599
  134MOL   C20832394   3.342   6.978   5.303  0.1855 -0.2417 -0.1558
  134MOL   O20932395   3.324   7.050   5.206 -0.7338  0.2526  0.2783
  134MOL   O21032396   3.286   6.999   5.427  0.1882 -1.0077  0.7893
  134MOL   C21132397   3.224   7.119   5.462  0.2723 -0.7247 -0.1527
  134MOL   H21232398   3.495   6.869   5.107 -1.3338  3.2384  0.9531
  134MOL   H21332399   3.581   6.742   5.189  1.0521  0.9436  1.1210
  134MOL   H21432400   3.467   6.845   5.397 -0.6113  1.3863  0.2565
  134MOL   H21532401   3.177   7.112   5.560 -1.5098 -0.6520 -0.9870
  134MOL   H21632402   3.145   7.147   5.392  0.8935 -0.2691 -0.6765
  134MOL   H21732403   3.298   7.198   5.452 -1.6790  0.9757 -1.5969
  134MOL   C21832404   3.337   6.716   5.302  0.5991  0.6020  0.4510
  134MOL   C21932405   3.222   6.715   5.199  0.4853  0.1979  0.1683
  134MOL   C22032406   3.268   6.727   5.046 -0.5862  0.2231  0.2697
  134MOL   O22132407   3.224   6.816   4.974 -0.0163  0.6317 -0.1799
  134MOL   O22232408   3.356   6.637   5.004  0.0858  0.4112 -0.1276
  134MOL   C22332409   3.400   6.634   4.872  0.1575 -0.2592 -0.0094
  134MOL   H22432410   3.406   6.633   5.291  0.0877  0.6357 -3.9614
  134MOL   H22532411   3.293   6.713   5.401 -2.6083  3.0568 -0.7993
  134MOL   H22632412   3.163   6.806   5.216 -1.2219 -0.1967 -3.1135
  134MOL   H22732413   3.311   6.610   4.814  0.0463 -0.4792  0.2530
  134MOL   H22832414   3.489   6.571   4.865 -0.2756 -0.7946 -0.7526
  134MOL   H22932415   3.436   6.727   4.826  2.6798 -1.4243 -0.4680
  134MOL   C23032416   3.125   6.606   5.214  0.2921 -0.5968 -0.5945
  134MOL   C23132417   3.057   6.617   5.352  0.1036 -0.5892 -0.5544
  134MOL   C23232418   2.944   6.516   5.363  0.0840  0.9846  0.0316
  134MOL   O23332419   2.828   6.549   5.358 -0.4859 -0.3461 -0.4656
  134MOL   O23432420   2.989   6.385   5.373  0.3605  0.4587  0.2193
  134MOL   C23532421   2.898   6.268   5.366 -0.3148 -0.8700 -0.2665
  134MOL   H23632422   3.047   6.610   5.139 -1.2020  0.8705  1.0085
  134MOL   H23732423   3.173   6.508   5.203  2.3364  0.5382 -2.1623
  134MOL   H23832424   3.018   6.717   5.371  0.7382 -0.4720  0.1743
  134MOL   H23932425   2.921   6.225   5.268 -0.3399  0.6561 -0.9588
  134MOL   H24032426   2.793   6.295   5.374 -0.2927 -1.4276  2.2893
  134MOL   H24132427   2.917   6.187   5.436  3.9740 -1.0983 -1.5220
  134MOL   H24232428   3.126   6.603   5.436 -1.4187  0.3091  0.9007
  135MOL     C132429   3.983   6.089   5.540 -0.2552  0.3374  0.1066
  135MOL     C232430   3.901   6.093   5.410  1.0449 -0.5443 -0.1755
  135MOL     C332431   3.805   5.978   5.414  0.2609 -0.5691 -0.5516
  135MOL     O432432   3.754   5.941   5.518  0.2663 -0.1127  0.0706
  135MOL     O532433   3.788   5.918   5.295 -0.4407 -1.0040 -0.1266
  135MOL     C632434   3.732   5.788   5.292 -0.9467 -0.4676 -0.8226
  135MOL     H732435   4.082   6.128   5.513 -0.6252  1.0836 -0.1748
  135MOL     H832436   4.002   5.985   5.567 -0.8967  0.4243  0.9184
  135MOL     H932437   3.963   6.072   5.323 -0.0495 -2.1486 -0.5848
  135MOL    H1032438   3.661   5.775   5.374 -1.5453  1.1458 -1.0511
  135MOL    H1132439   3.807   5.712   5.311 -1.4089 -0.8207 -0.3974
  135MOL    H1232440   3.680   5.779   5.196 -2.0614 -0.9028 -0.1907
  135MOL    H1332441   3.934   6.132   5.627  2.2971 -1.7406  2.6976
  135MOL    C1432442   3.809   6.220   5.398 -0.2458  0.1576 -0.3747
  135MOL    C1532443   3.707   6.240   5.285  0.3142  0.4037  0.0667
  135MOL    C1632444   3.610   6.353   5.313 -0.2576 -0.2789 -0.2471
  135MOL    O1732445   3.618   6.466   5.258  0.2604  0.1278 -0.4323
  135MOL    O1832446   3.507   6.308   5.384  0.6364  0.3676 -0.0342
  135MOL    C1932447   3.389   6.384   5.401  0.3432 -0.2164  0.1087
  135MOL    H2032448   3.746   6.233   5.486  0.0602  4.0552 -0.6630
  135MOL    H2132449   3.880   6.302   5.410 -2.3619  2.1334 -0.9310
  135MOL    H2232450   3.642   6.152   5.286 -0.0449  0.6409 -1.3434
  135MOL    H2332451   3.353   6.428   5.308 -0.7259 -1.3700 -0.0360
  135MOL    H2432452   3.412   6.464   5.472  1.9522 -0.5868  0.0395
  135MOL    H2532453   3.312   6.312   5.429 -0.0454  0.9464  2.0527
  135MOL    C2632454   3.782   6.237   5.149 -0.1718  0.5118  0.2547
  135MOL    C2732455   3.704   6.204   5.030 -0.0015 -0.2128  0.2788
  135MOL    C2832456   3.755   6.286   4.908  0.3574  0.1944  0.3600
  135MOL    O2932457   3.698   6.391   4.865 -0.4325  0.0573 -0.5287
  135MOL    O3032458   3.883   6.249   4.872  0.2035  0.0273 -0.8774
  135MOL    C3132459   3.953   6.324   4.772 -0.0068 -0.8216  0.3856
  135MOL    H3232460   3.819   6.339   5.137 -0.2053  0.4258 -0.6209
  135MOL    H3332461   3.863   6.165   5.152 -0.4780  0.0972 -1.2625
  135MOL    H3432462   3.602   6.241   5.045  0.9065  2.4025  0.1384
  135MOL    H3532463   4.022   6.269   4.708 -0.8909  0.1651 -1.4490
  135MOL    H3632464   4.014   6.394   4.830  0.3454 -0.2739 -0.6276
  135MOL    H3732465   3.900   6.381   4.696  1.0022 -1.2749 -0.6707
  135MOL    C3832466   3.692   6.055   4.991 -0.1351  0.6723 -0.4173
  135MOL    C3932467   3.594   6.032   4.866  0.4968 -0.1687  0.1628
  135MOL    C4032468   3.677   6.031   4.741 -0.3041 -0.0904 -0.6679
  135MOL    O4132469   3.771   5.954   4.725 -0.0463  0.1523  0.1656
  135MOL    O4232470   3.635   6.126   4.656 -0.1626 -0.3821 -0.0811
  135MOL    C4332471   3.686   6.126   4.524  0.1674 -0.6733 -0.0990
  135MOL    H4432472   3.791   6.026   4.956 -1.3977  0.9820 -4.4198
  135MOL    H4532473   3.675   5.992   5.078  0.9261  0.9207 -0.0270
  135MOL    H4632474   3.532   6.120   4.850  2.7987  1.9265  2.2047
  135MOL    H4732475   3.651   6.211   4.466 -0.3604 -0.2389  0.8382
  135MOL    H4832476   3.658   6.029   4.482 -0.8993  0.6823 -2.6022
  135MOL    H4932477   3.795   6.123   4.524  0.2412  1.5841  0.6965
  135MOL    C5032478   3.499   5.907   4.878 -0.3895 -0.4507  0.1955
  135MOL    C5132479   3.420   5.899   5.009 -0.5781 -0.1808 -0.3364
  135MOL    C5232480   3.370   6.037   5.057 -0.0666 -0.4180  0.5730
  135MOL    O5332481   3.407   6.091   5.161  0.1882 -0.1964  0.5048
  135MOL    O5432482   3.272   6.091   4.989  0.0880 -0.3663 -0.4570
  135MOL    C5532483   3.230   6.222   5.017 -0.2328 -0.1682 -0.0215
  135MOL    H5632484   3.424   5.911   4.798  0.8466 -1.9350 -1.0656
  135MOL    H5732485   3.565   5.821   4.868 -4.3685 -3.5201 -0.7541
  135MOL    H5832486   3.490   5.859   5.083 -0.6685  1.1973  0.4948
  135MOL    H5932487   3.230   6.284   4.927  1.6610  0.3022  0.2937
  135MOL    H6032488   3.290   6.273   5.092 -0.4232  2.2268 -1.4476
  135MOL    H6132489   3.125   6.216   5.046 -1.7659  0.6330 -4.9531
  135MOL    C6232490   3.312   5.792   5.000 -0.0963 -0.4800 -0.1422
  135MOL    C6332491   3.363   5.649   5.012  0.2155 -0.1257 -0.4474
  135MOL    C6432492   3.379   5.621   5.161  0.2136 -0.8346  0.0724
  135MOL    O6532493   3.485   5.614   5.217 -0.1545  0.3123  0.0750
  135MOL    O6632494   3.264   5.595   5.219 -0.4854 -0.1962  0.9722
  135MOL    C6732495   3.258   5.563   5.358 -0.5845  0.5750 -0.6056
  135MOL    H6832496   3.240   5.819   5.077 -1.2073 -0.3575 -1.2043
  135MOL    H6932497   3.252   5.814   4.911  2.8449  1.0443 -1.8206
  135MOL    H7032498   3.455   5.642   4.954  0.5254 -1.9652  0.2273
  135MOL    H7132499   3.171   5.503   5.387 -0.1630  0.0741 -0.3696
  135MOL    H7232500   3.249   5.653   5.420 -0.0494 -0.2306  0.6728
  135MOL    H7332501   3.347   5.511   5.394 -0.4392 -0.8275 -2.9445
  135MOL    C7432502   3.268   5.554   4.934 -0.2111 -0.5202 -0.8305
  135MOL    C7532503   3.325   5.417   4.901 -0.0531 -0.1101 -0.2218
  135MOL    C7632504   3.304   5.325   5.021 -0.1545  0.1340  0.4006
  135MOL    O7732505   3.397   5.254   5.056 -0.3251 -0.6746  0.0538
  135MOL    O7832506   3.175   5.316   5.061  0.1529  0.3280 -0.4182
  135MOL    C7932507   3.153   5.238   5.169 -0.4372 -0.0210  0.6904
  135MOL    H8032508   3.175   5.548   4.991 -0.0968  0.2748 -0.5634
  135MOL    H8132509   3.248   5.604   4.840 -1.7413  0.0273 -0.2290
  135MOL    H8232510   3.434   5.427   4.900 -0.0492  0.0438  0.8608
  135MOL    H8332511   3.216   5.262   5.254  0.6200  1.1040 -0.3926
  135MOL    H8432512   3.185   5.135   5.151  0.5976  0.7216 -2.0091
  135MOL    H8532513   3.054   5.251   5.212 -0.9548  0.4749 -0.6186
  135MOL    C8632514   3.276   5.367   4.763  0.7395 -0.3569 -0.3678
  135MOL    C8732515   3.131   5.312   4.750  0.3383  0.3572  0.1160
  135MOL    C8832516   3.024   5.417   4.765 -0.1638  0.7336  0.3010
  135MOL    O8932517   2.939   5.404   4.848 -0.0201 -0.2819 -0.0204
  135MOL    O9032518   3.023   5.505   4.661  0.0549  0.6193  0.7470
  135MOL    C9132519   2.915   5.591   4.650  0.7049 -0.5895  0.4382
  135MOL    H9232520   3.290   5.449   4.692  1.6967  2.3419  2.7692
  135MOL    H9332521   3.348   5.292   4.730 -0.9718 -1.9403 -0.5450
  135MOL    H9432522   3.107   5.240   4.828  1.0009  2.1309  2.0097
  135MOL    H9532523   2.847   5.600   4.734 -1.0553  1.5081 -1.1390
  135MOL    H9632524   2.861   5.550   4.565  0.8726 -1.4252  0.7245
  135MOL    H9732525   2.939   5.691   4.614  0.7187 -1.1166 -1.0443
  135MOL    C9832526   3.107   5.238   4.611  0.5119 -0.3573  0.5445
  135MOL    C9932527   3.132   5.085   4.610  0.3908 -0.2042 -0.1474
  135MOL   C10032528   3.043   5.002   4.704  0.5225  0.3678 -0.2158
  135MOL   O10132529   3.086   4.937   4.802  0.0021 -0.2036  0.6370
  135MOL   O10232530   2.913   5.008   4.665 -0.2119  0.3928  0.0209
  135MOL   C10332531   2.815   4.939   4.736 -0.1902 -0.1606 -0.3419
  135MOL   H10432532   3.001   5.249   4.587  0.7756 -0.3953 -0.6687
  135MOL   H10532533   3.164   5.283   4.530  0.6242  0.2645  0.9704
  135MOL   H10632534   3.230   5.078   4.658 -0.5132  0.7853  1.9383
  135MOL   H10732535   2.850   4.879   4.820  1.1116  0.6839 -0.2634
  135MOL   H10832536   2.762   4.878   4.663 -1.0567  0.0259  0.1254
  135MOL   H10932537   2.741   5.006   4.779 -0.6107  0.4482 -1.9570
  135MOL   C11032538   3.124   5.030   4.465 -0.2217 -0.1643 -0.5399
  135MOL   C11132539   3.250   4.958   4.395 -0.0362 -0.1875  0.1438
  135MOL   C11232540   3.367   5.059   4.383  0.3961 -0.5559 -0.0944
  135MOL   O11332541   3.477   5.045   4.442 -0.2482  0.4906 -0.1608
  135MOL   O11432542   3.334   5.167   4.304 -0.3234 -0.3912 -0.0511
  135MOL   C11532543   3.415   5.283   4.317 -0.5874  0.2718  0.6017
  135MOL   H11632544   3.047   4.954   4.462  2.9508 -3.4992 -1.3427
  135MOL   H11732545   3.082   5.099   4.391 -0.2414  0.2927 -0.1042
  135MOL   H11832546   3.218   4.950   4.291  0.7731  1.3434 -0.2269
  135MOL   H11932547   3.385   5.353   4.240 -0.9519  0.8487  1.2629
  135MOL   H12032548   3.518   5.262   4.288  0.0114  0.2956  2.5998
  135MOL   H12132549   3.409   5.327   4.417 -2.5811  0.1718  0.5575
  135MOL   C12232550   3.279   4.825   4.466  0.0191  0.2117 -0.5407
  135MOL   C12332551   3.254   4.704   4.383  0.4434  0.3187 -0.1920
  135MOL   C12432552   3.355   4.699   4.270  0.0029 -0.0457 -0.2885
  135MOL   O12532553   3.311   4.688   4.155 -0.4281  0.3171  0.2060
  135MOL   O12632554   3.480   4.705   4.304  0.0505 -0.5297  0.1994
  135MOL   C12732555   3.582   4.709   4.207  0.3684  0.0409 -0.2437
  135MOL   H12832556   3.381   4.809   4.501 -0.1489 -0.1898 -0.2322
  135MOL   H12932557   3.225   4.828   4.561  0.0622 -0.0872 -0.5072
  135MOL   H13032558   3.154   4.717   4.340  0.9064 -0.4772 -1.5437
  135MOL   H13132559   3.658   4.786   4.219  0.0492  0.2351  0.5845
  135MOL   H13232560   3.544   4.726   4.106 -2.1370 -1.6155  0.3688
  135MOL   H13332561   3.634   4.614   4.200  1.7807  0.8153 -0.2706
  135MOL   C13432562   3.253   4.573   4.458  0.1034  0.1272  0.4609
  135MOL   C13532563   3.149   4.567   4.572 -0.4717  0.3519 -0.7126
  135MOL   C13632564   3.003   4.570   4.525 -0.3855  0.5478  0.3326
  135MOL   O13732565   2.922   4.650   4.566  0.4662  0.1901 -0.2975
  135MOL   O13832566   2.972   4.472   4.437 -0.0507 -0.4744 -0.2801
  135MOL   C13932567   2.834   4.457   4.407 -0.4116 -0.0088 -0.0910
  135MOL   H14032568   3.237   4.490   4.388 -0.1619 -0.8361  1.6521
  135MOL   H14132569   3.349   4.545   4.501  0.1320 -2.0618 -0.9296
  135MOL   H14232570   3.165   4.651   4.639  0.0736  2.7625 -3.7851
  135MOL   H14332571   2.781   4.552   4.416  0.5941  0.4851  0.7074
  135MOL   H14432572   2.782   4.391   4.476  1.2220 -0.0638  1.1292
  135MOL   H14532573   2.816   4.406   4.313 -0.1418 -1.6104  0.7136
  135MOL   C14632574   3.180   4.456   4.675  0.3221 -0.4645 -0.3159
  135MOL   C14732575   3.145   4.306   4.645  0.6540 -0.2518  1.1111
  135MOL   C14832576   3.247   4.255   4.539 -0.4347 -0.3008  0.6851
  135MOL   O14932577   3.209   4.230   4.423  0.2936 -0.2353 -0.4940
  135MOL   O15032578   3.373   4.254   4.578 -0.5107 -0.1135 -0.4754
  135MOL   C15132579   3.468   4.209   4.482 -0.4232 -0.1773  0.2237
  135MOL   H15232580   3.282   4.471   4.711  0.5817 -2.8356  0.0285
  135MOL   H15332581   3.128   4.489   4.764  1.2652  0.9491 -0.2768
  135MOL   H15432582   3.046   4.302   4.600  0.4667 -1.3061  1.5825
  135MOL   H15532583   3.568   4.223   4.524  0.3618 -1.1422 -1.2422
  135MOL   H15632584   3.451   4.270   4.393  2.2516  2.0389  1.1652
  135MOL   H15732585   3.457   4.103   4.458 -1.0027  0.0106 -0.3377
  135MOL   C15832586   3.144   4.216   4.777 -0.8616 -0.1591 -0.0357
  135MOL   C15932587   3.117   4.065   4.746 -0.6278 -0.1361 -0.4930
  135MOL   C16032588   3.249   3.981   4.761  0.4250 -0.1957  0.0794
  135MOL   O16132589   3.297   3.915   4.671 -0.1664  0.8383 -0.0514
  135MOL   O16232590   3.308   3.999   4.879  0.1833  0.2340  0.4213
  135MOL   C16332591   3.431   3.933   4.903 -0.3562 -0.0708  0.2609
  135MOL   H16432592   3.240   4.233   4.826 -1.2988  0.4535  0.6192
  135MOL   H16532593   3.068   4.260   4.840  0.7120  1.4882  0.7638
  135MOL   H16632594   3.087   4.049   4.642 -2.4284 -1.8912  0.2800
  135MOL   H16732595   3.433   3.837   4.852  1.7576  0.4446 -0.6591
  135MOL   H16832596   3.455   3.920   5.008  1.4967  1.5065  0.0672
  135MOL   H16932597   3.511   3.998   4.867  1.6504 -1.2880  2.4467
  135MOL   C17032598   3.000   4.010   4.838  0.5402 -0.4216  0.3434
  135MOL   C17132599   2.863   4.083   4.829 -0.1908 -0.8363 -0.5353
  135MOL   C17232600   2.797   4.066   4.690  0.3847  0.3872  0.0661
  135MOL   O17332601   2.827   3.973   4.610 -0.1044 -0.4243 -0.0328
  135MOL   O17432602   2.715   4.156   4.660 -0.1475 -0.1044 -0.7217
  135MOL   C17532603   2.647   4.156   4.534  0.1590  0.5507 -0.2028
  135MOL   H17632604   2.976   3.910   4.804 -3.0302  0.5288 -0.1360
  135MOL   H17732605   3.029   4.002   4.943  0.0592 -0.8257  0.4489
  135MOL   H17832606   2.882   4.190   4.840  0.2359 -0.8194 -1.4447
  135MOL   H17932607   2.716   4.147   4.450  1.4836  1.9532  0.6949
  135MOL   H18032608   2.603   4.255   4.517 -0.1916  0.5339  0.5966
  135MOL   H18132609   2.583   4.069   4.540  1.6800 -0.5608  0.1008
  135MOL   C18232610   2.768   4.050   4.947  0.7955  0.6990 -0.0695
  135MOL   C18332611   2.626   4.113   4.968 -0.6030  0.0142 -0.4830
  135MOL   C18432612   2.556   4.041   5.080  0.2371 -0.2727 -0.2808
  135MOL   O18532613   2.477   3.958   5.046 -0.3570 -0.1537 -0.4383
  135MOL   O18632614   2.600   4.075   5.204 -0.2154 -0.1538  0.0524
  135MOL   C18732615   2.530   4.036   5.329  0.2159 -0.2557 -0.1115
  135MOL   H18832616   2.742   3.946   4.928 -2.8151  2.0283 -2.9852
  135MOL   H18932617   2.830   4.045   5.036  1.3189 -3.5843 -0.5393
  135MOL   H19032618   2.568   4.094   4.877 -0.1608 -1.0048 -0.5571
  135MOL   H19132619   2.574   3.946   5.371 -0.3919 -0.6072 -0.2261
  135MOL   H19232620   2.424   4.015   5.312  0.5430 -0.3998 -2.1509
  135MOL   H19332621   2.564   4.117   5.393 -1.7614  1.3454 -1.0316
  135MOL   C19432622   2.639   4.270   4.993  0.4454 -0.4133 -0.2410
  135MOL   C19532623   2.539   4.349   4.903  0.4284  0.2858 -0.5005
  135MOL   C19632624   2.392   4.337   4.960 -0.7247 -0.1927  0.5968
  135MOL   O19732625   2.312   4.263   4.899 -0.1754  0.2959 -0.2621
  135MOL   O19832626   2.375   4.401   5.076 -0.2335 -0.4387  0.2009
  135MOL   C19932627   2.259   4.372   5.149  0.6076 -0.8275  0.2196
  135MOL   H20032628   2.625   4.307   5.095 -1.4339 -0.5107 -0.4489
  135MOL   H20132629   2.740   4.305   4.969 -0.2645  2.8646  1.2561
  135MOL   H20232630   2.534   4.303   4.804  3.1615  0.2930 -0.6589
  135MOL   H20332631   2.176   4.414   5.092  0.9526 -0.1677  0.1947
  135MOL   H20432632   2.257   4.411   5.251  3.3333  0.3584 -0.1357
  135MOL   H20532633   2.248   4.265   5.166  0.8869 -0.8084  0.5448
  135MOL   C20632634   2.579   4.502   4.884 -0.3033 -0.2811 -0.0646
  135MOL   C20732635   2.492   4.587   4.787 -0.1593 -0.1911  0.1910
  135MOL   C20832636   2.510   4.731   4.813  0.0259  0.6164 -0.2422
  135MOL   O20932637   2.603   4.774   4.882  0.6001  0.2892  0.1692
  135MOL   O21032638   2.407   4.806   4.768 -0.5248  0.1419 -0.4367
  135MOL   C21132639   2.408   4.942   4.808  0.2028  0.9914 -0.4412
  135MOL   H21232640   2.587   4.550   4.981  2.8081  0.4386 -0.6226
  135MOL   H21332641   2.680   4.512   4.845 -0.1409  0.6854  0.5981
  135MOL   H21432642   2.390   4.570   4.822  0.9418 -1.5936  2.8661
  135MOL   H21532643   2.328   4.999   4.761 -0.6099 -2.3696 -3.4148
  135MOL   H21632644   2.501   4.987   4.774  1.5934 -1.1428  0.3797
  135MOL   H21732645   2.419   4.964   4.914 -2.4444  0.8342 -0.0941
  135MOL   C21832646   2.506   4.543   4.641  0.1299  0.0362  0.4918
  135MOL   C21932647   2.380   4.557   4.558  0.0220  0.6285 -0.5581
  135MOL   C22032648   2.417   4.577   4.407  0.3479 -0.3782  0.8263
  135MOL   O22132649   2.525   4.550   4.359  0.6410 -0.5220 -0.2320
  135MOL   O22232650   2.311   4.636   4.335 -0.2399 -0.0603 -0.3211
  135MOL   C22332651   2.316   4.654   4.197  0.0311  0.4164  0.0548
  135MOL   H22432652   2.580   4.609   4.595 -1.3690  0.2782 -1.6644
  135MOL   H22532653   2.554   4.446   4.629  0.8704  0.6066 -1.4199
  135MOL   H22632654   2.325   4.648   4.581 -0.2917  0.5320 -0.9263
  135MOL   H22732655   2.416   4.660   4.153  0.9058 -0.2979  1.8922
  135MOL   H22832656   2.252   4.735   4.161 -0.7853 -0.2635 -0.0295
  135MOL   H22932657   2.295   4.557   4.152 -0.3523  0.5540 -0.0585
  135MOL   C23032658   2.282   4.442   4.592  0.2336 -0.7678 -0.2872
  135MOL   C23132659   2.312   4.288   4.583  0.4951 -0.0653  0.1090
  135MOL   C23232660   2.280   4.218   4.445  0.3616 -0.1542 -0.6221
  135MOL   O23332661   2.169   4.183   4.411 -0.5108  0.1105  0.4473
  135MOL   O23432662   2.392   4.203   4.366  0.5781 -0.7224 -0.2981
  135MOL   C23532663   2.377   4.136   4.241  0.1026  0.3239 -1.3340
  135MOL   H23632664   2.251   4.451   4.696  2.0849  0.0748  0.2181
  135MOL   H23732665   2.192   4.436   4.531 -0.6161  0.9180  0.7738
  135MOL   H23832666   2.253   4.227   4.651 -2.4309  1.9637 -0.4792
  135MOL   H23932667   2.310   4.051   4.252  1.3762 -0.4949  0.5401
  135MOL   H24032668   2.478   4.107   4.212 -0.4250 -2.3880 -0.6811
  135MOL   H24132669   2.323   4.188   4.163 -2.3977 -0.1442  0.0121
  135MOL   H24232670   2.414   4.269   4.615 -0.0321  1.5777  2.9552
  136MOL     C132671   6.881   4.908   5.499  0.0877 -0.6595  0.7091
  136MOL     C232672   6.825   5.039   5.443 -0.3095  0.3667  0.7226
  136MOL     C332673   6.733   5.125   5.538 -0.2917  0.0455  0.0173
  136MOL     O432674   6.615   5.112   5.541 -0.3929 -0.4529  0.6258
  136MOL     O532675   6.803   5.201   5.618 -0.0424  0.6335  0.0729
  136MOL     C632676   6.739   5.306   5.694 -0.1670  0.1527 -0.0486
  136MOL     H732677   6.896   4.834   5.421 -1.2374 -1.3011  1.0568
  136MOL     H832678   6.809   4.865   5.569  0.4189 -0.5011  1.1503
  136MOL     H932679   6.760   4.997   5.366 -1.3420  0.7216  1.3814
  136MOL    H1032680   6.657   5.262   5.751 -0.1512 -2.3625 -1.8806
  136MOL    H1132681   6.687   5.375   5.628  1.0849 -0.6802 -1.9373
  136MOL    H1232682   6.806   5.375   5.746  0.4625 -0.3310 -0.2167
  136MOL    H1332683   6.971   4.919   5.560  0.4684 -1.0742  0.2265
  136MOL    C1432684   6.938   5.124   5.373  0.4047 -0.6730 -0.2253
  136MOL    C1532685   7.055   5.163   5.470 -0.0733 -0.6051  0.6466
  136MOL    C1632686   7.182   5.079   5.455 -0.7491 -0.2453 -0.3236
  136MOL    O1732687   7.255   5.075   5.357 -0.3685 -0.2939  0.4408
  136MOL    O1832688   7.209   5.012   5.569  0.2852 -0.0248 -0.3459
  136MOL    C1932689   7.325   4.936   5.571 -0.2610 -0.5232  0.2443
  136MOL    H2032690   6.983   5.081   5.283  0.2552  0.7123 -0.9879
  136MOL    H2132691   6.896   5.215   5.329  0.0807 -1.6011 -1.8652
  136MOL    H2232692   7.018   5.139   5.569 -1.0659 -0.6493  0.2761
  136MOL    H2332693   7.313   4.873   5.482 -1.8812 -1.0508  0.8046
  136MOL    H2432694   7.324   4.877   5.663  0.1195  2.0546  1.9293
  136MOL    H2532695   7.417   4.994   5.568 -2.5237  3.2220 -0.0601
  136MOL    C2632696   7.084   5.316   5.460  0.6571  0.6376 -0.6406
  136MOL    C2732697   7.188   5.377   5.558 -0.9634  0.0884  0.1710
  136MOL    C2832698   7.325   5.385   5.482 -0.4797 -0.1119  0.1925
  136MOL    O2932699   7.421   5.328   5.534 -0.2763 -0.0645  0.1347
  136MOL    O3032700   7.321   5.466   5.371 -0.9586 -0.2445 -0.1646
  136MOL    C3132701   7.437   5.475   5.284 -0.1077  0.0847  0.0079
  136MOL    H3232702   7.108   5.340   5.356  0.7956 -2.2604 -1.3084
  136MOL    H3332703   6.986   5.361   5.477 -0.4338 -1.2298 -1.8293
  136MOL    H3432704   7.205   5.320   5.648 -1.2658 -1.5651 -0.8031
  136MOL    H3532705   7.502   5.549   5.331 -2.5283  0.9693  2.0556
  136MOL    H3632706   7.418   5.511   5.183  1.7686 -0.3479 -0.5306
  136MOL    H3732707   7.499   5.385   5.277 -1.1296 -0.6852  0.7797
  136MOL    C3832708   7.159   5.520   5.603 -0.2264 -0.0200 -0.0289
  136MOL    C3932709   7.249   5.581   5.712 -1.0498 -0.5077 -0.1080
  136MOL    C4032710   7.347   5.682   5.659 -0.5071 -0.3018 -0.0956
  136MOL    O4132711   7.468   5.665   5.663  0.1111  0.2555  0.3328
  136MOL    O4232712   7.290   5.798   5.612 -0.2451 -0.3947  0.1511
  136MOL    C4332713   7.380   5.906   5.580  0.2275  0.2996  0.9782
  136MOL    H4432714   7.130   5.589   5.524  0.2473  0.9537  0.6318
  136MOL    H4532715   7.061   5.506   5.649 -0.0687  2.2869  1.0669
  136MOL    H4632716   7.314   5.498   5.742 -0.3949 -0.0105 -0.1357
  136MOL    H4732717   7.469   5.910   5.642 -0.2766  1.7828  1.6252
  136MOL    H4832718   7.339   6.007   5.577 -0.4049  0.0426  1.0035
  136MOL    H4932719   7.424   5.879   5.483 -0.4371  0.1772  0.7094
  136MOL    C5032720   7.168   5.643   5.832 -0.4254 -0.4026  0.3573
  136MOL    C5132721   7.059   5.558   5.901  0.1676 -0.6135 -0.1392
  136MOL    C5232722   7.101   5.415   5.937 -0.4572 -0.5799 -0.1357
  136MOL    O5332723   7.043   5.312   5.892 -0.1472  0.2945 -0.3678
  136MOL    O5432724   7.198   5.413   6.022  0.2107  0.1404 -0.0816
  136MOL    C5532725   7.232   5.288   6.080  0.2322  0.3333 -0.1165
  136MOL    H5632726   7.248   5.658   5.904  0.1734  0.0200 -0.3902
  136MOL    H5732727   7.126   5.743   5.821  1.3632  0.0456 -2.8503
  136MOL    H5832728   6.979   5.537   5.830  1.2479  0.4939 -1.7295
  136MOL    H5932729   7.162   5.204   6.079  1.5588 -0.8001 -0.2137
  136MOL    H6032730   7.277   5.301   6.178  1.5284 -0.4719 -0.5892
  136MOL    H6132731   7.317   5.252   6.021 -0.9492 -2.6111 -0.1285
  136MOL    C6232732   6.989   5.639   6.018 -0.4594 -0.2178 -0.4709
  136MOL    C6332733   6.836   5.622   6.036  0.1401 -0.0466  0.4807
  136MOL    C6432734   6.787   5.482   6.044  0.1147 -0.3107 -0.0622
  136MOL    O6532735   6.686   5.438   5.983 -0.5257 -0.4398 -0.1452
  136MOL    O6632736   6.866   5.399   6.123 -0.4985  0.0273  0.8155
  136MOL    C6732737   6.835   5.261   6.121 -0.6508 -0.3313 -0.0358
  136MOL    H6832738   7.035   5.615   6.114  0.5236  0.2998 -0.8073
  136MOL    H6932739   7.016   5.744   6.016  2.1464 -0.8788 -2.8327
  136MOL    H7032740   6.800   5.655   5.939  0.6261  0.2079  0.3848
  136MOL    H7132741   6.756   5.226   6.054 -0.1724  0.7461 -1.1782
  136MOL    H7232742   6.810   5.239   6.225 -0.6568  0.5042  0.1371
  136MOL    H7332743   6.926   5.202   6.111  0.1002  1.0863 -1.6980
  136MOL    C7432744   6.783   5.713   6.148 -0.1197  0.3890 -0.1772
  136MOL    C7532745   6.826   5.684   6.297 -0.3949  0.2143 -0.2475
  136MOL    C7632746   6.868   5.816   6.363  0.1601 -0.3400  0.5587
  136MOL    O7732747   6.795   5.880   6.437 -0.5049 -0.3027  0.4640
  136MOL    O7832748   6.991   5.857   6.325  0.1329  0.0677 -0.0000
  136MOL    C7932749   7.044   5.969   6.392 -0.3853 -0.2747 -0.0802
  136MOL    H8032750   6.800   5.818   6.125 -0.6326  0.5905  0.3541
  136MOL    H8132751   6.674   5.716   6.140 -0.3252  1.9148  2.3958
  136MOL    H8232752   6.911   5.615   6.303 -0.4673  0.0690 -0.9474
  136MOL    H8332753   6.986   6.058   6.366  3.7124  2.2843 -1.0115
  136MOL    H8432754   7.147   5.984   6.357  0.0014  0.0533  1.1580
  136MOL    H8532755   7.043   5.957   6.500  3.0623 -0.6835 -0.0429
  136MOL    C8632756   6.716   5.605   6.377  0.4799  0.5471 -0.6557
  136MOL    C8732757   6.753   5.544   6.514  0.0860 -0.1971 -0.0779
  136MOL    C8832758   6.628   5.490   6.592  0.1160 -0.1366 -1.0305
  136MOL    O8932759   6.534   5.438   6.541  0.0185  0.4551 -0.2002
  136MOL    O9032760   6.639   5.521   6.727 -0.3414 -0.1764 -0.2511
  136MOL    C9132761   6.541   5.464   6.809 -0.1720 -0.1401  0.0527
  136MOL    H9232762   6.626   5.667   6.385  0.0596 -0.1679  0.2788
  136MOL    H9332763   6.682   5.525   6.311  0.6181 -0.8372  0.9309
  136MOL    H9432764   6.790   5.620   6.584  0.0083  0.4632 -0.7487
  136MOL    H9532765   6.437   5.488   6.790 -0.1965  1.0496  1.5753
  136MOL    H9632766   6.555   5.497   6.912  1.1501 -0.7974  0.0976
  136MOL    H9732767   6.559   5.357   6.825  1.4111 -0.2582 -2.4108
  136MOL    C9832768   6.870   5.439   6.509  0.2214  0.0877  0.1338
  136MOL    C9932769   7.008   5.501   6.534 -0.1420  1.0674  0.2300
  136MOL   C10032770   7.017   5.542   6.682 -0.3666 -1.0381  0.0282
  136MOL   O10132771   7.056   5.660   6.716 -0.0846  0.4781  0.1781
  136MOL   O10232772   6.978   5.441   6.760  0.4358 -0.6399 -0.0090
  136MOL   C10332773   6.943   5.461   6.897  0.5093  0.3853 -0.0993
  136MOL   H10432774   6.848   5.357   6.578 -0.3143  1.1107  1.1974
  136MOL   H10532775   6.859   5.394   6.410  1.7005 -0.6468  0.2957
  136MOL   H10632776   7.014   5.595   6.479 -0.7512  0.9909  0.0301
  136MOL   H10732777   6.878   5.376   6.911 -1.0727  1.8236  1.4764
  136MOL   H10832778   6.897   5.560   6.907  1.4781  0.7083  1.3062
  136MOL   H10932779   7.029   5.465   6.964 -0.9530  1.9898  1.7100
  136MOL   C11032780   7.126   5.416   6.483  0.0686  0.2370 -0.2947
  136MOL   C11132781   7.141   5.270   6.552 -0.1023 -0.1445 -0.2569
  136MOL   C11232782   7.091   5.154   6.464 -0.4699  0.3153  0.9723
  136MOL   O11332783   7.067   5.165   6.344  0.4434  0.1140  0.1397
  136MOL   O11432784   7.095   5.041   6.531  0.2066  0.3091 -0.5472
  136MOL   C11532785   7.079   4.911   6.467  0.0058 -0.3556 -0.0539
  136MOL   H11632786   7.125   5.416   6.374 -0.6561 -2.1774 -0.3114
  136MOL   H11732787   7.216   5.472   6.510  1.3174 -0.0026 -3.7291
  136MOL   H11832788   7.088   5.268   6.647 -0.6599  0.3678 -0.5506
  136MOL   H11932789   6.989   4.899   6.406  0.4198 -0.9914 -0.5425
  136MOL   H12032790   7.072   4.831   6.541  0.0047  1.1092  1.5479
  136MOL   H12132791   7.164   4.903   6.398 -0.1170 -1.2500 -0.1130
  136MOL   C12232792   7.289   5.234   6.584 -0.4820  0.3004 -0.4364
  136MOL   C12332793   7.328   5.298   6.707  0.9709 -0.5159 -0.3209
  136MOL   C12432794   7.295   5.224   6.832  0.6413  0.3630 -0.0602
  136MOL   O12532795   7.199   5.257   6.904  0.1492  0.0821  0.0458
  136MOL   O12632796   7.361   5.108   6.841 -0.0767 -0.0057 -0.1586
  136MOL   C12732797   7.333   5.017   6.947  0.4706  0.0779  0.5980
  136MOL   H12832798   7.311   5.128   6.579  0.2165  0.3825  0.7073
  136MOL   H12932799   7.348   5.271   6.500 -0.1417 -1.8486 -1.1614
  136MOL   H13032800   7.253   5.377   6.714 -1.1571 -2.6285  1.6139
  136MOL   H13132801   7.226   5.001   6.952  0.4954 -0.8268 -1.2578
  136MOL   H13232802   7.375   5.052   7.041 -1.9839  0.1525  1.6967
  136MOL   H13332803   7.387   4.927   6.918  2.7165  1.1499  1.2707
  136MOL   C13432804   7.474   5.347   6.716 -0.2371  0.0420  0.7170
  136MOL   C13532805   7.520   5.466   6.627  0.3647 -0.2000  0.0685
  136MOL   C13632806   7.461   5.599   6.678  0.0096  0.3510  0.1096
  136MOL   O13732807   7.420   5.616   6.788  0.4652  0.1485  0.0332
  136MOL   O13832808   7.464   5.699   6.585 -0.0009 -0.6120 -0.2648
  136MOL   C13932809   7.382   5.810   6.610 -0.1937 -0.2710 -0.0350
  136MOL   H14032810   7.499   5.362   6.821  0.2109 -0.4111  0.6766
  136MOL   H14132811   7.533   5.260   6.688 -0.3423  0.0949  0.3214
  136MOL   H14232812   7.473   5.459   6.529  2.9923 -0.3169 -1.2289
  136MOL   H14332813   7.275   5.794   6.601 -0.3573  0.3711  0.7268
  136MOL   H14432814   7.414   5.899   6.555 -2.4846  0.5240 -0.1210
  136MOL   H14532815   7.393   5.839   6.715  0.2835  0.3501 -0.2505
  136MOL   C14632816   7.679   5.472   6.619  0.2173  0.1580  0.2837
  136MOL   C14732817   7.750   5.378   6.523  0.3835  0.3120  0.5261
  136MOL   C14832818   7.698   5.389   6.378  0.1758 -0.2447  0.2071
  136MOL   O14932819   7.662   5.495   6.334 -0.1259 -0.2225  0.8428
  136MOL   O15032820   7.698   5.268   6.317 -0.1621 -0.3294 -0.6919
  136MOL   C15132821   7.643   5.268   6.187 -0.1284  0.6647  0.2729
  136MOL   H15232822   7.699   5.574   6.589  2.1226  0.3330  2.0517
  136MOL   H15332823   7.712   5.467   6.723 -2.1630 -2.3193  0.9790
  136MOL   H15432824   7.722   5.279   6.559 -0.8549  0.6050  0.4058
  136MOL   H15532825   7.622   5.170   6.145  1.8535  0.6731 -0.7837
  136MOL   H15632826   7.726   5.296   6.123 -0.9684 -2.2681 -2.2040
  136MOL   H15732827   7.554   5.331   6.179  0.4091  1.1872 -1.8245
  136MOL   C15832828   7.897   5.412   6.524  0.2020  0.1327  0.2267
  136MOL   C15932829   0.038   5.390   6.654  0.2363 -0.1612  0.7205
  136MOL   C16032830   0.018   5.248   6.704  0.5163  0.3849 -0.5681
  136MOL   O16132831   7.925   5.231   6.825  0.2570 -0.3934 -0.3986
  136MOL   O16232832   0.046   5.154   6.616 -0.2533  0.6598  0.8197
  136MOL   C16332833   0.024   5.016   6.652 -0.4111  0.8967  0.0205
  136MOL   H16432834   0.013   5.350   6.448  1.1661 -0.8549  1.6345
  136MOL   H16532835   7.904   5.513   6.484 -1.8909  0.4683  0.6409
  136MOL   H16632836   7.928   5.455   6.730 -1.5840  0.6465 -0.9606
  136MOL   H16732837   0.048   5.008   6.757 -1.3791  0.8907  0.2473
  136MOL   H16832838   0.086   4.944   6.598  1.3622  2.7880 -0.5453
  136MOL   H16932839   7.851   4.994   6.636 -0.1467 -0.3760  0.0158
  136MOL   C17032840   0.191   5.417   6.635 -0.1666 -0.9472 -0.4103
  136MOL   C17132841   0.238   5.556   6.691 -0.2708 -0.1401  0.4672
  136MOL   C17232842   0.183   5.595   6.830 -0.3226 -0.2175  0.8076
  136MOL   O17332843   0.143   5.708   6.854 -0.2787  0.1250  1.2771
  136MOL   O17432844   0.202   5.507   6.926  0.4107 -0.3760 -0.1499
  136MOL   C17532845   0.148   5.532   7.058  0.1890  0.2001 -0.6752
  136MOL   H17632846   0.243   5.352   6.705 -0.3120 -0.7811 -0.1454
  136MOL   H17732847   0.231   5.388   6.538  0.6474 -0.3326 -0.2690
  136MOL   H17832848   0.210   5.637   6.623  2.5565 -0.3872 -1.0802
  136MOL   H17932849   0.225   5.566   7.127  1.9741 -1.3658 -1.8413
  136MOL   H18032850   0.114   5.439   7.104 -1.0690  1.2898  0.6309
  136MOL   H18132851   0.067   5.604   7.058 -2.4773 -2.6482  1.3583
  136MOL   C18232852   0.392   5.547   6.695  0.7008 -0.6198  1.1531
  136MOL   C18332853   0.474   5.683   6.704  0.1908 -0.3129  0.4291
  136MOL   C18432854   0.615   5.657   6.755  0.4207  0.1410 -0.4746
  136MOL   O18532855   0.670   5.716   6.847  0.1752  0.2700  0.3882
  136MOL   O18632856   0.672   5.555   6.684 -0.1065  0.7924 -0.3350
  136MOL   C18732857   0.806   5.520   6.702  0.5615  0.0966 -0.7991
  136MOL   H18832858   0.419   5.490   6.784 -0.8500  0.0351  2.0736
  136MOL   H18932859   0.424   5.475   6.620 -0.6440  0.1780 -0.2157
  136MOL   H19032860   0.416   5.740   6.776  0.7358  1.3614 -0.4410
  136MOL   H19132861   0.851   5.436   6.648  0.5732  1.3800 -2.8456
  136MOL   H19232862   0.802   5.491   6.807  0.2962  0.3911 -0.7274
  136MOL   H19332863   0.878   5.601   6.712 -1.6535  1.7449  2.9700
  136MOL   C19432864   0.461   5.749   6.564  0.3358  0.3848  0.1448
  136MOL   C19532865   0.533   5.883   6.551  0.1352  0.2547  0.3569
  136MOL   C19632866   0.592   5.900   6.407 -0.1468  0.6024  0.1797
  136MOL   O19732867   0.537   5.835   6.316  0.1288 -0.6158  0.4858
  136MOL   O19832868   0.698   5.989   6.402 -0.4471  0.2127  0.2711
  136MOL   C19932869   0.762   6.028   6.278 -0.1022 -0.0219  0.6826
  136MOL   H20032870   0.498   5.678   6.490 -0.6001 -0.6870  0.6898
  136MOL   H20132871   0.357   5.769   6.540 -0.6446 -0.1181  3.6907
  136MOL   H20232872   0.617   5.890   6.620 -1.0371  1.7875  1.6891
  136MOL   H20332873   0.724   6.117   6.229  2.2821  0.7933  0.2234
  136MOL   H20432874   0.743   5.947   6.208 -0.9999  0.3217  0.5328
  136MOL   H20532875   0.869   6.035   6.302 -0.5658  1.1372  2.5772
  136MOL   C20632876   0.438   6.001   6.574 -0.5967  0.2312  0.6705
  136MOL   C20732877   0.362   6.008   6.706  0.9303 -0.0952  0.2516
  136MOL   C20832878   0.446   6.006   6.832  0.1308  0.0489  0.3655
  136MOL   O20932879   0.397   5.977   6.941  0.1272 -0.3329  0.1863
  136MOL   O21032880   0.569   6.059   6.824 -0.3075 -0.9676  0.3277
  136MOL   C21132881   0.656   6.050   6.931  0.2072  0.0635 -0.1354
  136MOL   H21232882   0.500   6.090   6.578 -2.9775  1.8744  2.5414
  136MOL   H21332883   0.364   6.010   6.495 -0.0234  1.5453  0.2659
  136MOL   H21432884   0.311   5.912   6.717  0.6651  0.1667  1.3788
  136MOL   H21532885   0.636   6.136   6.994 -0.9323 -1.0362  1.0337
  136MOL   H21632886   0.759   6.051   6.895  0.6616  1.4951  1.1501
  136MOL   H21732887   0.630   5.960   6.987 -0.7206 -0.7952 -1.9018
  136MOL   C21832888   0.254   6.120   6.717  0.2250  0.0159  0.9834
  136MOL   C21932889   0.146   6.119   6.606 -0.2234 -0.9100 -0.2672
  136MOL   C22032890   0.084   5.983   6.593  0.4017 -0.2003  0.3113
  136MOL   O22132891   0.116   5.922   6.496 -0.5263 -0.3364  0.2587
  136MOL   O22232892   0.006   5.937   6.690 -0.4059 -0.0961 -0.0003
  136MOL   C22332893   7.874   5.814   6.678  0.3113 -0.3211 -0.5830
  136MOL   H22432894   0.211   6.133   6.816 -2.3624 -0.9742  0.0535
  136MOL   H22532895   0.315   6.211   6.714  0.4147 -0.1376 -0.0585
  136MOL   H22632896   0.199   6.140   6.513 -0.7785  0.8038 -0.2070
  136MOL   H22732897   7.782   5.820   6.619  0.4709  3.3899 -0.5431
  136MOL   H22832898   7.857   5.783   6.782  1.8898 -0.1760 -0.2709
  136MOL   H22932899   7.929   5.733   6.630 -0.2878 -1.7792  1.0938
  136MOL   C23032900   0.040   6.224   6.639 -0.2445  0.4179 -0.5454
  136MOL   C23132901   7.859   6.236   6.533 -0.6101  0.0539 -0.5327
  136MOL   C23232902   7.908   6.257   6.391  0.0986  0.3044  0.0472
  136MOL   O23332903   0.061   6.345   6.365  0.2924  0.0859  0.0517
  136MOL   O23432904   7.861   6.165   6.311 -0.4207  0.3190 -0.1086
  136MOL   C23532905   7.890   6.174   6.171 -0.3650  0.8829  0.4535
  136MOL   H23632906   7.932   6.185   6.731  0.4848 -0.2301 -0.4904
  136MOL   H23732907   0.072   6.322   6.674 -2.8932  1.6588 -1.4500
  136MOL   H23832908   7.800   6.322   6.563  0.7098  0.5665  0.6106
  136MOL   H23932909   7.804   6.157   6.106 -0.1903 -2.7111  1.0598
  136MOL   H24032910   0.030   6.096   6.148 -2.5619 -0.9054 -0.6642
  136MOL   H24132911   7.932   6.267   6.131  0.7674 -0.8335 -2.5248
  136MOL   H24232912   7.786   6.155   6.529  0.2046 -0.6789 -0.7574
  137MOL     C132913   1.348   5.164   5.712 -0.0614 -0.1084 -0.2031
  137MOL     C232914   1.451   5.049   5.674  0.6087 -0.2727 -0.1181
  137MOL     C332915   1.572   5.050   5.767  0.6007  0.1517 -0.1409
  137MOL     O432916   1.673   5.106   5.732  0.4397  0.1603  0.4074
  137MOL     O532917   1.539   4.983   5.874  0.2604 -0.5098  0.3975
  137MOL     C632918   1.632   4.968   5.981 -0.0145 -0.4809 -0.4661
  137MOL     H732919   1.300   5.142   5.808 -0.3421 -1.6682 -0.6964
  137MOL     H832920   1.269   5.159   5.638  1.3825  0.4734 -1.8018
  137MOL     H932921   1.489   5.088   5.579  1.6683 -1.7196 -0.3087
  137MOL    H1032922   1.711   4.898   5.956  1.0122  1.1680 -1.9518
  137MOL    H1132923   1.589   4.941   6.077  0.4839 -1.0125 -0.3917
  137MOL    H1232924   1.683   5.062   6.004 -1.5321  0.1859  0.2335
  137MOL    H1332925   1.387   5.265   5.727 -0.8200  0.0582  0.7568
  137MOL    C1432926   1.383   4.904   5.645 -0.2800 -0.2460 -0.4360
  137MOL    C1532927   1.481   4.793   5.588  0.2755  0.4687  0.2739
  137MOL    C1632928   1.568   4.726   5.695  0.9337 -0.1973 -0.4661
  137MOL    O1732929   1.692   4.730   5.697 -0.1078 -0.2505 -0.2735
  137MOL    O1832930   1.491   4.649   5.785  0.4257 -0.1224  0.4843
  137MOL    C1932931   1.547   4.587   5.899  0.5643  0.3514  0.4750
  137MOL    H2032932   1.325   4.873   5.732 -2.9546  1.0836 -1.6780
  137MOL    H2132933   1.314   4.931   5.565  2.1666  5.4146 -0.9047
  137MOL    H2232934   1.542   4.857   5.524  1.9444 -0.3614  0.9942
  137MOL    H2332935   1.648   4.554   5.871  0.7294  1.5630 -0.3685
  137MOL    H2432936   1.484   4.501   5.923  1.2882 -0.2238  0.3482
  137MOL    H2532937   1.555   4.659   5.980  1.5788  1.0457 -0.2404
  137MOL    C2632938   1.401   4.689   5.510  0.2395 -1.0804 -0.1724
  137MOL    C2732939   1.491   4.591   5.424  0.7676 -0.3040 -1.0483
  137MOL    C2832940   1.550   4.479   5.508  0.1876  0.1675 -0.8399
  137MOL    O2932941   1.668   4.449   5.497  0.0733 -0.0927  0.2038
  137MOL    O3032942   1.467   4.428   5.589  0.2615 -0.4407  0.1640
  137MOL    C3132943   1.502   4.330   5.684  0.1183  0.4095  0.3320
  137MOL    H3232944   1.342   4.636   5.584  0.5203  0.4536  1.1848
  137MOL    H3332945   1.328   4.736   5.444 -0.2602  0.7471  1.6420
  137MOL    H3432946   1.575   4.657   5.400 -0.1444  0.8634 -1.0923
  137MOL    H3532947   1.530   4.244   5.624  0.5152  1.1681 -0.5869
  137MOL    H3632948   1.414   4.300   5.740 -0.6359 -1.8072 -1.9472
  137MOL    H3732949   1.586   4.351   5.750 -1.1026  0.6289  1.8413
  137MOL    C3832950   1.422   4.525   5.301  0.3336  0.0852 -0.2726
  137MOL    C3932951   1.523   4.474   5.204  0.0852  0.5771 -0.3215
  137MOL    C4032952   1.460   4.371   5.113 -0.6266  0.2815  0.1910
  137MOL    O4132953   1.497   4.251   5.102  0.1941  0.2854 -0.1247
  137MOL    O4232954   1.357   4.420   5.040 -0.4350  0.2797 -0.5243
  137MOL    C4332955   1.265   4.336   4.973  0.8686  0.3096  0.0976
  137MOL    H4432956   1.345   4.452   5.325  1.9748 -1.4905  0.2781
  137MOL    H4532957   1.348   4.587   5.249 -1.0769 -2.2921 -1.1894
  137MOL    H4632958   1.590   4.403   5.253  0.4893  0.5046 -0.9798
  137MOL    H4732959   1.306   4.237   4.949 -1.2247 -0.2045 -1.5345
  137MOL    H4832960   1.245   4.377   4.874  0.4792  1.2283  0.5571
  137MOL    H4932961   1.170   4.319   5.024  1.5931  0.6762  1.5954
  137MOL    C5032962   1.595   4.587   5.130 -0.4348 -0.2531  0.4725
  137MOL    C5132963   1.741   4.552   5.096 -0.4443  0.1883 -0.1998
  137MOL    C5232964   1.824   4.535   5.222  0.1292  0.3435 -0.8573
  137MOL    O5332965   1.916   4.453   5.232  0.0294  0.6471 -0.0848
  137MOL    O5432966   1.802   4.633   5.308 -0.5302 -0.2893 -0.3676
  137MOL    C5532967   1.883   4.642   5.431  0.5734  0.3558 -0.0727
  137MOL    H5632968   1.531   4.616   5.047 -0.0521  0.2402  0.3450
  137MOL    H5732969   1.590   4.676   5.194  2.6754  1.4602 -1.5696
  137MOL    H5832970   1.780   4.645   5.054 -1.9309  1.0531  0.3038
  137MOL    H5932971   1.986   4.674   5.413  0.7504  0.1384  0.5400
  137MOL    H6032972   1.891   4.542   5.472  0.4829 -0.2584 -1.5110
  137MOL    H6132973   1.852   4.705   5.515  0.2744 -0.0204  0.0999
  137MOL    C6232974   1.770   4.444   4.986  0.5703 -0.4865  0.2344
  137MOL    C6332975   1.698   4.465   4.855 -1.2920  0.1111 -0.1426
  137MOL    C6432976   1.739   4.596   4.787  0.2864 -0.5114 -0.6104
  137MOL    O6532977   1.854   4.628   4.763  0.0547 -0.0156 -0.2908
  137MOL    O6632978   1.631   4.674   4.749 -0.3856 -0.1325 -0.1845
  137MOL    C6732979   1.657   4.803   4.697  0.9293  0.4335 -0.0110
  137MOL    H6832980   1.876   4.454   4.961  0.3251  0.9620 -0.2649
  137MOL    H6932981   1.754   4.342   5.018 -2.6181 -0.0553  0.1013
  137MOL    H7032982   1.591   4.469   4.874 -1.6092  3.8793 -2.2262
  137MOL    H7132983   1.597   4.869   4.760 -0.7226 -1.0009 -0.0353
  137MOL    H7232984   1.609   4.810   4.599  0.7848  2.3836  0.1980
  137MOL    H7332985   1.757   4.844   4.705  0.6913  1.0093  0.0141
  137MOL    C7432986   1.708   4.343   4.757 -0.5322  0.3962  0.4243
  137MOL    C7532987   1.836   4.305   4.679 -0.6341  0.2180  0.4596
  137MOL    C7632988   1.950   4.253   4.774 -0.1499  0.2449 -0.0859
  137MOL    O7732989   2.054   4.320   4.800  0.0356 -0.6773 -0.0705
  137MOL    O7832990   1.923   4.138   4.830 -0.3049  0.5150 -0.1680
  137MOL    C7932991   2.023   4.072   4.915  0.3511 -0.0144  0.3906
  137MOL    H8032992   1.675   4.253   4.809  0.8419 -1.9001 -2.4911
  137MOL    H8132993   1.638   4.372   4.678 -0.2465  0.0488  0.0360
  137MOL    H8232994   1.890   4.393   4.645 -1.3438 -0.0239 -1.3232
  137MOL    H8332995   2.125   4.088   4.882 -0.2429  1.1506 -0.8979
  137MOL    H8432996   2.009   3.964   4.925  2.0490 -0.4660 -1.8136
  137MOL    H8532997   2.026   4.115   5.015 -1.5824 -1.4894  1.1304
  137MOL    C8632998   1.813   4.205   4.563 -0.1842  0.1897 -0.1772
  137MOL    C8732999   1.739   4.259   4.438 -0.8092 -0.3356  0.1385
  137MOL    C8833000   1.808   4.382   4.380  0.1659  0.3435  0.3525
  137MOL    O8933001   1.753   4.493   4.388 -0.0508  0.2449 -0.4960
  137MOL    O9033002   1.924   4.358   4.328  0.2582 -0.0276  0.3352
  137MOL    C9133003   1.998   4.466   4.276 -0.4270  0.0624  0.2652
  137MOL    H9233004   1.909   4.173   4.523 -0.5807  0.1503 -1.1186
  137MOL    H9333005   1.775   4.107   4.592  0.6186 -0.1571 -0.2764
  137MOL    H9433006   1.647   4.300   4.479  0.4659  2.5345  0.2357
  137MOL    H9533007   1.951   4.516   4.192  0.1743  2.1511  1.1463
  137MOL    H9633008   2.104   4.446   4.259 -0.4161 -0.6925  1.1478
  137MOL    H9733009   2.001   4.551   4.344  0.6835 -0.7160  1.2379
  137MOL    C9833010   1.696   4.158   4.333  0.1570 -0.0527  0.2539
  137MOL    C9933011   1.591   4.221   4.231 -0.2242 -0.3193  0.1768
  137MOL   C10033012   1.641   4.232   4.090  0.3322 -0.0785  0.1144
  137MOL   O10133013   1.689   4.340   4.042  0.7329  0.2018 -0.3011
  137MOL   O10233014   1.634   4.108   4.025  0.9000 -0.4025 -0.2908
  137MOL   C10333015   1.699   4.093   3.904  1.1387  0.3880  0.1283
  137MOL   H10433016   1.777   4.104   4.285 -1.0178  0.9200 -2.9982
  137MOL   H10533017   1.647   4.083   4.395  0.2564  0.2989  0.7616
  137MOL   H10633018   1.575   4.319   4.276  0.9806  0.4374 -0.9811
  137MOL   H10733019   1.650   4.028   3.831  1.0266  0.6324 -0.0146
  137MOL   H10833020   1.800   4.058   3.927  0.2138 -2.6996 -0.2939
  137MOL   H10933021   1.700   4.195   3.866  0.8163  1.0924  1.9345
  137MOL   C11033022   1.456   4.149   4.227 -0.5524  0.0740  0.8040
  137MOL   C11133023   1.372   4.153   4.359  0.2894  0.2702 -0.1181
  137MOL   C11233024   1.331   4.292   4.379 -0.1355 -0.7677  0.2399
  137MOL   O11333025   1.359   4.355   4.480  0.2519  0.0498  0.4166
  137MOL   O11433026   1.270   4.347   4.277 -0.4189  0.4007 -0.5039
  137MOL   C11533027   1.237   4.488   4.274 -0.0562  0.5904 -0.0451
  137MOL   H11633028   1.399   4.200   4.150  0.8862 -0.0493 -0.3629
  137MOL   H11733029   1.473   4.054   4.177 -2.0155  1.1183 -1.7585
  137MOL   H11833030   1.443   4.128   4.438  1.9686  0.8988 -1.3961
  137MOL   H11933031   1.177   4.511   4.186  0.2265 -0.2615 -0.4705
  137MOL   H12033032   1.321   4.556   4.265 -0.5401  0.9231 -2.2125
  137MOL   H12133033   1.183   4.509   4.366 -0.0861 -5.0666  1.4341
  137MOL   C12233034   1.249   4.059   4.351 -0.2930 -0.1315  0.2151
  137MOL   C12333035   1.194   4.031   4.489 -0.4301  0.4017 -1.0468
  137MOL   C12433036   1.046   3.989   4.501 -0.2877  0.0702 -0.6816
  137MOL   O12533037   1.007   3.893   4.436 -0.0881  0.0305  0.7782
  137MOL   O12633038   0.967   4.052   4.595 -0.0871 -0.8064 -0.0896
  137MOL   C12733039   0.833   4.012   4.610 -0.1167  0.8133 -0.8713
  137MOL   H12833040   1.175   4.113   4.293 -0.5039  0.9590  1.4718
  137MOL   H12933041   1.280   3.962   4.310  0.3797  0.7177 -1.3348
  137MOL   H13033042   1.190   4.133   4.527 -0.9131 -0.2711  0.7382
  137MOL   H13133043   0.834   3.903   4.613 -3.7588  0.7404 -0.0923
  137MOL   H13233044   0.770   4.034   4.524 -0.8549 -0.0072 -0.5498
  137MOL   H13333045   0.794   4.045   4.707 -0.7372 -2.9510  0.2200
  137MOL   C13433046   1.288   3.948   4.583  0.3579 -0.1845 -0.6618
  137MOL   C13533047   1.310   3.804   4.542  0.3479  0.7185  0.5000
  137MOL   C13633048   1.442   3.794   4.462 -0.4347 -0.0606 -0.3018
  137MOL   O13733049   1.547   3.853   4.489  0.1385 -0.6389 -0.3947
  137MOL   O13833050   1.431   3.713   4.361 -0.0426 -0.5814 -0.0869
  137MOL   C13933051   1.537   3.690   4.271 -0.4813  0.3055 -0.2162
  137MOL   H14033052   1.378   4.008   4.592  0.4271 -0.3128 -0.5080
  137MOL   H14133053   1.245   3.961   4.682 -1.3524  0.8562 -1.5081
  137MOL   H14233054   1.238   3.778   4.464  0.3570 -0.0223  0.7359
  137MOL   H14333055   1.606   3.772   4.256 -0.7808  0.4974 -0.5400
  137MOL   H14433056   1.512   3.657   4.171  2.9821  1.3488 -1.4981
  137MOL   H14533057   1.591   3.611   4.324 -1.5452  0.0654  0.5339
  137MOL   C14633058   1.297   3.701   4.651  0.2115 -0.1389 -0.4260
  137MOL   C14733059   1.160   3.639   4.669 -0.1457 -0.4884  0.4881
  137MOL   C14833060   1.123   3.549   4.554  0.2216 -0.6760  0.8967
  137MOL   O14933061   1.009   3.560   4.504  0.0525  0.0949 -0.4564
  137MOL   O15033062   1.221   3.459   4.528  0.4777  0.9719  0.4957
  137MOL   C15133063   1.201   3.357   4.435 -0.3022 -0.1745 -0.7439
  137MOL   H15233064   1.364   3.621   4.621  0.1412  0.2451 -1.6343
  137MOL   H15333065   1.331   3.756   4.739 -0.8281 -0.0052 -0.1001
  137MOL   H15433066   1.082   3.714   4.662 -1.1405 -1.5021  0.6397
  137MOL   H15533067   1.256   3.376   4.342  0.1822 -1.2071 -0.6797
  137MOL   H15633068   1.098   3.337   4.408  0.1903 -2.4991 -1.0446
  137MOL   H15733069   1.226   3.262   4.481 -0.8361  0.5959  1.1497
  137MOL   C15833070   1.145   3.564   4.803  0.4288  0.0766 -0.5075
  137MOL   C15933071   1.157   3.646   4.932  0.1954  0.3314 -0.7047
  137MOL   C16033072   1.067   3.781   4.932  0.0585 -0.1623 -0.5456
  137MOL   O16133073   1.120   3.890   4.923  0.0955  0.4856  0.0271
  137MOL   O16233074   0.931   3.760   4.945 -0.0784 -0.6444  0.0568
  137MOL   C16333075   0.838   3.865   4.937 -0.9083 -0.4392  0.4322
  137MOL   H16433076   1.052   3.508   4.808  0.5093  0.0947  1.9953
  137MOL   H16533077   1.215   3.480   4.806 -0.6063 -0.7613  1.2276
  137MOL   H16633078   1.263   3.668   4.943  0.5505 -0.6045 -2.0699
  137MOL   H16733079   0.738   3.824   4.956 -2.1778  1.7093 -1.3591
  137MOL   H16833080   0.850   3.895   4.833  1.0354 -0.7442  0.5638
  137MOL   H16933081   0.852   3.952   5.002 -2.4007  0.5327 -0.5129
  137MOL   C17033082   1.121   3.558   5.052 -0.6107 -0.0386  1.1425
  137MOL   C17133083   1.186   3.588   5.190 -0.4826  0.8058 -0.1559
  137MOL   C17233084   1.339   3.561   5.204  0.7436  0.2779 -0.1487
  137MOL   O17333085   1.399   3.517   5.109 -0.5422  0.2971  0.2134
  137MOL   O17433086   1.383   3.592   5.324 -0.0512 -0.1406 -0.1009
  137MOL   C17533087   1.516   3.562   5.374  0.4570  0.0212  0.1499
  137MOL   H17633088   1.015   3.542   5.068 -0.3981 -0.1283  2.5120
  137MOL   H17733089   1.149   3.455   5.030  0.4480  0.2646  1.0179
  137MOL   H17833090   1.146   3.509   5.254  0.7974  0.1486 -0.1629
  137MOL   H17933091   1.519   3.611   5.472  3.1656 -2.0485  1.1826
  137MOL   H18033092   1.596   3.597   5.309  0.3380 -0.9880 -0.5482
  137MOL   H18133093   1.532   3.455   5.393 -0.5875 -0.0936  0.4281
  137MOL   C18233094   1.135   3.725   5.251 -0.4117 -0.6314 -0.0041
  137MOL   C18333095   1.112   3.709   5.406 -0.7037 -0.3774 -0.2488
  137MOL   C18433096   1.115   3.844   5.481  0.2067  0.4734 -0.2135
  137MOL   O18533097   1.026   3.873   5.555 -0.2728  0.6080 -0.9802
  137MOL   O18633098   1.227   3.913   5.456  0.5630 -0.1060  0.4758
  137MOL   C18733099   1.239   4.038   5.512 -0.2147 -0.3306 -0.1349
  137MOL   H18833100   1.197   3.811   5.223 -0.3696 -0.2212  1.2986
  137MOL   H18933101   1.038   3.747   5.206  0.0218  0.4968 -0.4086
  137MOL   H19033102   1.200   3.660   5.448 -2.3842 -2.7230  0.6480
  137MOL   H19133103   1.327   4.087   5.471 -1.7567  0.4374 -2.6166
  137MOL   H19233104   1.239   4.023   5.620  0.5983 -3.8861 -0.5452
  137MOL   H19333105   1.151   4.094   5.479 -0.5646 -0.0023  1.3086
  137MOL   C19433106   0.992   3.620   5.444  0.2643 -0.8772  0.0553
  137MOL   C19533107   0.981   3.571   5.589  0.2260  0.0553 -0.4268
  137MOL   C19633108   0.844   3.603   5.648 -0.8232 -0.2494 -0.3331
  137MOL   O19733109   0.738   3.622   5.586 -0.1263 -0.3638  0.1516
  137MOL   O19833110   0.851   3.585   5.784  0.1411 -0.2314  0.0300
  137MOL   C19933111   0.733   3.587   5.859  0.5040  0.0913 -0.2720
  137MOL   H20033112   0.909   3.687   5.424 -0.1442 -0.1720  3.7047
  137MOL   H20133113   0.968   3.538   5.376  1.1871  0.2456 -1.6492
  137MOL   H20233114   1.048   3.633   5.650  0.5092  0.4352 -1.1221
  137MOL   H20333115   0.703   3.691   5.873  0.9454  0.2240 -0.3283
  137MOL   H20433116   0.764   3.546   5.955 -1.8438  1.6968  1.2365
  137MOL   H20533117   0.651   3.524   5.822  0.3685  0.4238 -0.5386
  137MOL   C20633118   1.015   3.420   5.607 -0.3627 -0.0033 -0.2984
  137MOL   C20733119   1.156   3.374   5.569  0.3019 -0.0111 -0.1930
  137MOL   C20833120   1.261   3.442   5.670  0.1292 -0.1744  0.1761
  137MOL   O20933121   1.225   3.519   5.759 -0.0842  0.0264 -0.4544
  137MOL   O21033122   1.386   3.409   5.652  0.1787 -0.3626 -0.5430
  137MOL   C21133123   1.490   3.444   5.743  0.2402  0.1517 -0.3090
  137MOL   H21233124   0.993   3.398   5.712  0.2360  1.1685  0.0796
  137MOL   H21333125   0.941   3.356   5.559 -1.9122  1.1782  0.4936
  137MOL   H21433126   1.183   3.422   5.475 -0.6288 -1.7929 -1.4019
  137MOL   H21533127   1.530   3.539   5.708 -0.6180  0.0113 -1.7015
  137MOL   H21633128   1.571   3.371   5.750  0.0265 -0.1108 -0.5534
  137MOL   H21733129   1.468   3.469   5.846  1.9915  3.1811 -0.6250
  137MOL   C21833130   1.176   3.223   5.557 -0.4859 -0.0120 -0.5076
  137MOL   C21933131   1.101   3.148   5.442 -0.6978 -0.7929 -0.6230
  137MOL   C22033132   1.148   3.203   5.304 -0.4073 -0.1792  0.1832
  137MOL   O22133133   1.077   3.270   5.231  0.5676  0.2143  0.1933
  137MOL   O22233134   1.278   3.166   5.279 -0.2904 -0.1244  0.1137
  137MOL   C22333135   1.339   3.187   5.151 -0.5349  0.9338 -0.3739
  137MOL   H22433136   1.283   3.206   5.544 -0.4963 -2.1037  1.7913
  137MOL   H22533137   1.148   3.195   5.659  2.2013  0.1224  0.3035
  137MOL   H22633138   0.994   3.168   5.448 -0.9282 -1.3609 -2.5476
  137MOL   H22733139   1.272   3.162   5.069 -1.1732 -1.4598  0.8490
  137MOL   H22833140   1.431   3.130   5.143 -1.5554 -0.9006  0.7384
  137MOL   H22933141   1.365   3.289   5.123  0.0961  0.7244 -0.5574
  137MOL   C23033142   1.107   2.998   5.462 -0.4087 -0.1425  0.5272
  137MOL   C23133143   1.046   2.917   5.351 -0.5637  0.3814  0.7047
  137MOL   C23233144   1.153   2.877   5.240 -0.3837 -0.9680  0.0150
  137MOL   O23333145   1.138   2.919   5.129 -0.3277  0.2666 -0.3204
  137MOL   O23433146   1.248   2.796   5.281 -0.4918  0.3068 -0.8220
  137MOL   C23533147   1.331   2.746   5.183 -0.2951 -1.0171 -0.0415
  137MOL   H23633148   1.213   2.975   5.477 -0.3215 -0.5554 -0.6539
  137MOL   H23733149   1.051   2.970   5.551 -0.2337 -2.1929  0.0093
  137MOL   H23833150   0.959   2.966   5.308 -0.9859  0.2833  1.4489
  137MOL   H23933151   1.276   2.673   5.123 -0.1647 -0.7417 -0.4988
  137MOL   H24033152   1.419   2.697   5.223  1.8884  3.4766  0.8987
  137MOL   H24133153   1.372   2.821   5.115  0.5668 -1.6573 -0.2320
  137MOL   H24233154   0.998   2.832   5.400 -0.6640 -0.0480 -0.1290
  138MOL     C133155   2.907   2.767   3.172 -0.2837  0.7202  1.0158
  138MOL     C233156   3.008   2.651   3.147 -0.4687 -0.5889  0.1975
  138MOL     C333157   3.009   2.613   2.993  1.0969 -0.3428 -0.1887
  138MOL     O433158   3.080   2.670   2.906  0.0056  0.0397  0.0288
  138MOL     O533159   2.933   2.506   2.963 -0.5867  0.1846  0.7786
  138MOL     C633160   2.951   2.445   2.839  0.3268 -0.4060  0.4240
  138MOL     H733161   2.880   2.771   3.277 -2.2059  0.1325  0.5585
  138MOL     H833162   2.820   2.747   3.110  0.8678  0.1181 -0.4408
  138MOL     H933163   2.955   2.565   3.186 -0.4005 -1.7014 -2.1072
  138MOL    H1033164   2.953   2.337   2.849  1.8599 -0.3287  1.0396
  138MOL    H1133165   3.050   2.471   2.803 -0.5230  0.0068 -1.6816
  138MOL    H1233166   2.876   2.475   2.766  0.3065 -0.1791  0.5351
  138MOL    H1333167   2.952   2.862   3.143 -0.5893  1.0800  1.7254
  138MOL    C1433168   3.148   2.674   3.212 -0.4601 -0.2530  0.2018
  138MOL    C1533169   3.164   2.638   3.359 -0.0095 -0.0258 -0.5645
  138MOL    C1633170   3.162   2.488   3.387  0.4356  0.5558  0.4541
  138MOL    O1733171   3.062   2.440   3.438  0.0137  0.6378 -0.2806
  138MOL    O1833172   3.264   2.418   3.343 -0.6675  0.2533 -0.2779
  138MOL    C1933173   3.277   2.280   3.360  0.7811  0.4750  0.2272
  138MOL    H2033174   3.214   2.611   3.154 -0.0038 -0.3487  0.8251
  138MOL    H2133175   3.189   2.772   3.189  0.4663 -0.4047  1.1919
  138MOL    H2233176   3.075   2.684   3.401  0.9948  1.1629  0.2542
  138MOL    H2333177   3.219   2.216   3.294 -0.8712  1.0405  1.0909
  138MOL    H2433178   3.247   2.263   3.464  1.1209 -0.4452  0.1722
  138MOL    H2533179   3.377   2.243   3.338  0.3892 -0.0634 -0.6809
  138MOL    C2633180   3.296   2.696   3.428 -1.0460 -1.4121  0.1010
  138MOL    C2733181   3.275   2.795   3.545  0.7275 -0.3711  0.1808
  138MOL    C2833182   3.242   2.943   3.487 -0.4785 -0.2942 -0.3755
  138MOL    O2933183   3.135   2.997   3.515 -0.0990  0.1586  0.4886
  138MOL    O3033184   3.350   2.998   3.435 -0.1440 -0.2807 -0.1092
  138MOL    C3133185   3.346   3.138   3.410  0.4480 -0.2679 -0.3545
  138MOL    H3233186   3.353   2.616   3.475 -1.1540 -1.3077  0.4050
  138MOL    H3333187   3.367   2.734   3.354 -2.1623 -0.5698 -0.5421
  138MOL    H3433188   3.380   2.801   3.576  0.8237  0.7154 -0.3292
  138MOL    H3533189   3.336   3.200   3.499 -3.0857 -3.9008  1.9651
  138MOL    H3633190   3.257   3.168   3.354 -1.2658  0.6392  2.6834
  138MOL    H3733191   3.433   3.162   3.349 -0.2657  1.4151 -0.7574
  138MOL    C3833192   3.182   2.748   3.663  0.4427  0.2158  0.4753
  138MOL    C3933193   3.263   2.711   3.783  0.7966  0.4962 -0.2460
  138MOL    C4033194   3.340   2.577   3.771  0.2479  1.0878  0.5489
  138MOL    O4133195   3.464   2.573   3.764  0.3333  0.2321  0.4562
  138MOL    O4233196   3.261   2.464   3.744 -0.0558  0.2282  0.1691
  138MOL    C4333197   3.329   2.347   3.721 -0.4197 -1.5043  0.6652
  138MOL    H4433198   3.114   2.825   3.698  0.9697  0.6594  0.5417
  138MOL    H4533199   3.122   2.664   3.630 -1.8665  1.2150  2.0448
  138MOL    H4633200   3.178   2.692   3.849 -0.5450 -1.0557 -2.3796
  138MOL    H4733201   3.253   2.270   3.731 -0.2724 -1.5685  1.2674
  138MOL    H4833202   3.401   2.318   3.797  1.4866  0.7963 -0.2075
  138MOL    H4933203   3.384   2.352   3.627  5.2687 -2.3592  3.7606
  138MOL    C5033204   3.345   2.833   3.830 -0.8672 -0.4455 -0.1695
  138MOL    C5133205   3.356   2.842   3.982  0.2284 -0.1404 -0.3745
  138MOL    C5233206   3.490   2.789   4.026 -0.6313  0.0226  0.9829
  138MOL    O5333207   3.584   2.863   4.062 -1.1239 -0.4805  0.8378
  138MOL    O5433208   3.494   2.660   4.034 -0.4055  0.6952 -0.0890
  138MOL    C5533209   3.623   2.593   4.039 -1.0031 -0.8007  0.3677
  138MOL    H5633210   3.440   2.844   3.778 -0.6941 -0.4116  0.1575
  138MOL    H5733211   3.290   2.924   3.806 -0.4236  0.4324  2.0048
  138MOL    H5833212   3.280   2.781   4.032 -0.3309  0.1246 -0.8908
  138MOL    H5933213   3.659   2.567   3.939 -3.0656  0.1391 -0.6559
  138MOL    H6033214   3.605   2.495   4.081 -0.4784 -0.4341  1.4578
  138MOL    H6133215   3.699   2.656   4.085  0.4524 -0.0906 -2.8229
  138MOL    C6233216   3.330   2.985   4.046 -0.0953  0.0459  0.7044
  138MOL    C6333217   3.180   3.036   4.041  0.5155 -0.4136  0.5953
  138MOL    C6433218   3.117   2.938   4.138  0.2507 -0.6259  0.4760
  138MOL    O6533219   3.115   2.957   4.257 -0.0105  0.3426  0.2821
  138MOL    O6633220   3.060   2.836   4.077 -0.0995  0.2603 -0.2715
  138MOL    C6733221   2.994   2.735   4.158  0.6364  0.6088  0.3386
  138MOL    H6833222   3.360   2.981   4.151  1.9853 -3.2759  0.0357
  138MOL    H6933223   3.393   3.060   3.998 -1.0504  1.2421  1.2905
  138MOL    H7033224   3.138   3.017   3.942  1.0784 -1.1382  0.4886
  138MOL    H7133225   2.915   2.761   4.228  1.4292  0.2253  1.3878
  138MOL    H7233226   3.058   2.662   4.206 -0.5150 -0.2467  0.5833
  138MOL    H7333227   2.949   2.671   4.082  0.8671  1.5569 -0.6267
  138MOL    C7433228   3.162   3.186   4.070  0.4521 -0.0166  0.0901
  138MOL    C7533229   3.023   3.248   4.069 -0.0115 -0.2912  0.0327
  138MOL    C7633230   2.947   3.213   3.940  0.6697  0.0028  0.7739
  138MOL    O7733231   2.841   3.150   3.939  0.1802 -0.3145  0.4928
  138MOL    O7833232   3.021   3.258   3.838 -0.2186 -0.4316  0.1499
  138MOL    C7933233   2.971   3.237   3.709 -0.0416  0.0677  0.2067
  138MOL    H8033234   3.199   3.204   4.171 -0.3620  0.4405  0.3061
  138MOL    H8133235   3.238   3.242   4.015 -0.0963  1.9865  1.3496
  138MOL    H8233236   3.038   3.356   4.070  2.4539 -0.5680 -1.3260
  138MOL    H8333237   2.984   3.133   3.679 -0.1550  0.1417 -0.1012
  138MOL    H8433238   3.028   3.298   3.638  0.1568  1.7983  1.8356
  138MOL    H8533239   2.865   3.256   3.697 -0.6448 -1.6259  2.5408
  138MOL    C8633240   2.943   3.221   4.195 -0.6317 -0.5469  0.2487
  138MOL    C8733241   2.856   3.337   4.240 -0.7307  0.2525  0.2007
  138MOL    C8833242   2.944   3.452   4.291 -0.0892  0.3090 -0.4276
  138MOL    O8933243   2.957   3.559   4.231  0.3708  0.0257  0.4600
  138MOL    O9033244   2.984   3.431   4.418 -0.7787 -0.2045  0.2709
  138MOL    C9133245   3.075   3.526   4.479  0.1056  0.1010 -0.8044
  138MOL    H9233246   2.890   3.127   4.183 -1.4402  0.0458 -1.0002
  138MOL    H9333247   3.017   3.201   4.272  0.5634 -0.1724 -0.7762
  138MOL    H9433248   2.819   3.294   4.333  1.2227  0.4603  1.0843
  138MOL    H9533249   3.130   3.481   4.562 -1.1334  0.6807  0.3573
  138MOL    H9633250   3.023   3.605   4.533  1.4920  0.8038 -0.4575
  138MOL    H9733251   3.139   3.576   4.406 -0.7455  0.5213 -1.2748
  138MOL    C9833252   2.732   3.383   4.164  0.5526 -0.4022  0.7069
  138MOL    C9933253   2.646   3.493   4.228 -0.5337 -0.0443  0.7696
  138MOL   C10033254   2.534   3.521   4.121  0.3453 -0.5781 -0.4313
  138MOL   O10133255   2.528   3.629   4.063 -0.5883  0.1198  0.3290
  138MOL   O10233256   2.445   3.422   4.102 -0.3092 -0.2101 -0.7240
  138MOL   C10333257   2.340   3.433   4.013 -0.3954  0.1040 -0.3017
  138MOL   H10433258   2.777   3.413   4.070  2.0013 -1.3096  1.0915
  138MOL   H10533259   2.665   3.296   4.159 -0.8426  0.6519  0.6059
  138MOL   H10633260   2.696   3.590   4.235 -2.0993  0.7953  0.6764
  138MOL   H10733261   2.350   3.357   3.935 -2.6850 -0.8302  0.2741
  138MOL   H10833262   2.330   3.533   3.971 -1.5079 -0.0057 -0.2969
  138MOL   H10933263   2.252   3.391   4.061 -1.7386  1.5032 -1.5138
  138MOL   C11033264   2.584   3.454   4.369 -0.6578 -0.0840 -0.2029
  138MOL   C11133265   2.554   3.577   4.459  0.7935  0.1602  0.2507
  138MOL   C11233266   2.491   3.703   4.399  0.5291  0.3343 -0.1603
  138MOL   O11333267   2.535   3.815   4.415 -0.5984 -0.2046 -0.4620
  138MOL   O11433268   2.375   3.666   4.349 -0.1949 -0.5327 -0.3155
  138MOL   C11533269   2.296   3.771   4.288 -0.0279 -0.0711 -0.0644
  138MOL   H11633270   2.494   3.394   4.356 -0.7409  0.0146 -0.0867
  138MOL   H11733271   2.650   3.387   4.423 -0.9291 -0.0614  0.1581
  138MOL   H11833272   2.654   3.611   4.483  0.3457  2.6144 -1.2488
  138MOL   H11933273   2.199   3.731   4.258  0.5701 -0.8769 -0.9878
  138MOL   H12033274   2.347   3.801   4.197  1.9884 -0.7058  0.8277
  138MOL   H12133275   2.266   3.852   4.353 -0.5494 -1.2748  1.2308
  138MOL   C12233276   2.475   3.539   4.590  0.1307 -0.5344  0.3241
  138MOL   C12333277   2.550   3.455   4.696  0.0284  0.3070  0.0227
  138MOL   C12433278   2.648   3.549   4.776 -0.2790  0.0869 -0.3730
  138MOL   O12533279   2.620   3.594   4.887  0.1363 -0.0542 -0.6477
  138MOL   O12633280   2.766   3.573   4.720 -0.0097 -0.5018 -0.0526
  138MOL   C12733281   2.872   3.647   4.782  0.0211 -0.1633  0.1363
  138MOL   H12833282   2.422   3.623   4.634 -2.1946 -2.8049  1.9971
  138MOL   H12933283   2.392   3.477   4.554  1.5133 -2.7746  0.8669
  138MOL   H13033284   2.593   3.376   4.634 -0.8035  0.3548 -0.6228
  138MOL   H13133285   2.944   3.684   4.709  1.5151 -0.0752  1.6411
  138MOL   H13233286   2.926   3.579   4.848 -0.1103 -1.3735 -0.9676
  138MOL   H13333287   2.827   3.729   4.838 -0.5029  0.3006 -0.9279
  138MOL   C13433288   2.451   3.383   4.790 -0.4084  0.1420 -0.0694
  138MOL   C13533289   2.511   3.301   4.907  0.2990  0.6814  0.6780
  138MOL   C13633290   2.404   3.247   4.994  0.0663  0.1350 -0.2464
  138MOL   O13733291   2.358   3.134   4.982 -0.6977 -0.6333 -0.2120
  138MOL   O13833292   2.372   3.342   5.081 -0.3403 -1.0190  0.0629
  138MOL   C13933293   2.258   3.317   5.159  0.4379  0.2586  0.3313
  138MOL   H14033294   2.373   3.447   4.831 -1.3289 -2.7815  2.9837
  138MOL   H14133295   2.404   3.318   4.717 -0.4413  1.0171 -0.8279
  138MOL   H14233296   2.561   3.376   4.968  2.2664  0.0413 -0.1310
  138MOL   H14333297   2.189   3.393   5.123  2.2814  1.0811 -1.6330
  138MOL   H14433298   2.268   3.331   5.267  0.5999 -0.2014  0.3776
  138MOL   H14533299   2.204   3.229   5.126  1.4482 -0.4427  0.5119
  138MOL   C14633300   2.625   3.203   4.861  0.5899 -0.0529  0.1545
  138MOL   C14733301   2.733   3.154   4.963 -0.2100 -0.3114  0.9179
  138MOL   C14833302   2.835   3.267   5.007  0.5712  0.2832 -0.7545
  138MOL   O14933303   2.930   3.297   4.938  0.4107 -0.3997  0.0718
  138MOL   O15033304   2.791   3.337   5.111 -0.4737  0.2470 -0.0959
  138MOL   C15133305   2.868   3.457   5.147  0.1495  0.0520 -0.2763
  138MOL   H15233306   2.579   3.118   4.810  0.5752  0.3107 -0.4337
  138MOL   H15333307   2.686   3.247   4.782 -1.2417  1.4350 -0.4522
  138MOL   H15433308   2.792   3.086   4.902  1.3222  0.3801  1.5900
  138MOL   H15533309   2.965   3.442   5.195 -0.5135  0.1471  1.1228
  138MOL   H15633310   2.804   3.510   5.217 -0.3672  0.3736 -0.9916
  138MOL   H15733311   2.884   3.515   5.056 -0.9306 -1.0209 -1.1723
  138MOL   C15833312   2.697   3.072   5.090  1.4359 -0.2323  0.8208
  138MOL   C15933313   2.644   2.925   5.066  0.6655  0.4630 -0.4942
  138MOL   C16033314   2.755   2.845   4.993 -0.0282  0.1584 -0.7107
  138MOL   O16133315   2.873   2.878   4.992 -0.1580  0.1391  0.0812
  138MOL   O16233316   2.700   2.744   4.922  0.3740  0.2864  0.0738
  138MOL   C16333317   2.777   2.666   4.840 -0.1249 -0.2928 -0.3746
  138MOL   H16433318   2.785   3.060   5.154  1.9334 -0.8880  0.0237
  138MOL   H16533319   2.618   3.128   5.140 -0.6877 -1.9993 -0.4521
  138MOL   H16633320   2.559   2.937   4.999  0.3352  0.9917  0.0127
  138MOL   H16733321   2.862   2.719   4.797  0.7321  0.2037  1.8678
  138MOL   H16833322   2.706   2.642   4.761 -1.3171 -1.0781  0.9144
  138MOL   H16933323   2.820   2.578   4.887 -1.7922 -0.6405  0.5299
  138MOL   C17033324   2.613   2.855   5.198  0.1086  0.4491 -1.6145
  138MOL   C17133325   2.490   2.908   5.278 -0.1877 -0.1291  0.2424
  138MOL   C17233326   2.366   2.870   5.196 -0.1235 -0.1871 -0.2989
  138MOL   O17333327   2.370   2.773   5.114  0.4735 -0.9000 -0.3989
  138MOL   O17433328   2.260   2.944   5.227  0.6983  0.5443 -0.9187
  138MOL   C17533329   2.147   2.936   5.138  0.1794  0.7933  0.1511
  138MOL   H17633330   2.607   2.747   5.182  0.1613 -0.0083  1.0743
  138MOL   H17733331   2.702   2.862   5.262 -1.6080  0.0950  0.8927
  138MOL   H17833332   2.486   3.015   5.257  1.3288  0.5484  3.1051
  138MOL   H17933333   2.116   2.831   5.142  0.7629  0.5702 -0.8883
  138MOL   H18033334   2.166   2.960   5.033  0.0573  0.4698  0.0519
  138MOL   H18133335   2.065   3.002   5.166 -1.7439 -1.0381 -0.9647
  138MOL   C18233336   2.502   2.881   5.429 -0.2594  0.2312  0.4921
  138MOL   C18333337   2.468   3.002   5.521  0.2139  0.7422  0.4595
  138MOL   C18433338   2.413   2.942   5.654  0.2507 -0.2593  0.0305
  138MOL   O18533339   2.484   2.955   5.752  0.1234 -0.3790 -0.0860
  138MOL   O18633340   2.293   2.879   5.646  0.1936 -0.2643 -0.5013
  138MOL   C18733341   2.235   2.818   5.767 -0.8914 -0.6308  0.4754
  138MOL   H18833342   2.425   2.804   5.437 -0.4855  0.2725 -1.0885
  138MOL   H18933343   2.591   2.824   5.457 -2.3750 -2.8464  1.2991
  138MOL   H19033344   2.377   3.052   5.486 -2.4211 -2.4480  2.4210
  138MOL   H19133345   2.132   2.785   5.757 -0.8402 -0.3722 -1.0801
  138MOL   H19233346   2.235   2.893   5.846  1.4891  0.0355 -0.1168
  138MOL   H19333347   2.301   2.735   5.791  0.5115  1.2509  3.3832
  138MOL   C19433348   2.588   3.091   5.526 -0.0946 -0.1885 -0.3664
  138MOL   C19533349   2.562   3.237   5.566  0.0729  0.5979  0.2835
  138MOL   C19633350   2.689   3.298   5.630 -0.0688 -0.3122 -0.6854
  138MOL   O19733351   2.689   3.341   5.746 -0.4777  0.2569  0.0381
  138MOL   O19833352   2.791   3.306   5.539  0.0344  0.4757  0.6325
  138MOL   C19933353   2.925   3.361   5.568  1.1400 -0.1534  0.0722
  138MOL   H20033354   2.667   3.053   5.591  0.6830  0.5923 -0.8442
  138MOL   H20133355   2.635   3.104   5.429  0.5231  0.3099 -0.0067
  138MOL   H20233356   2.502   3.231   5.657  1.3245  1.4288  1.1845
  138MOL   H20333357   2.911   3.466   5.596  1.5022 -0.1316  0.1688
  138MOL   H20433358   2.988   3.364   5.479  2.4178  0.6639  0.9972
  138MOL   H20533359   2.972   3.302   5.647 -2.1953  0.5000  2.6778
  138MOL   C20633360   2.487   3.324   5.469 -0.5736  0.2158 -0.5622
  138MOL   C20733361   2.485   3.481   5.508 -0.2340  0.2166 -0.3383
  138MOL   C20833362   2.499   3.569   5.383 -0.5382  0.1317  0.0002
  138MOL   O20933363   2.608   3.623   5.357  0.1827 -0.8166 -0.3121
  138MOL   O21033364   2.398   3.570   5.300 -0.1178 -0.0002 -0.1503
  138MOL   C21133365   2.419   3.630   5.175  0.0469 -0.5942  0.8418
  138MOL   H21233366   2.521   3.313   5.366 -1.4702  2.3817 -1.1177
  138MOL   H21333367   2.387   3.281   5.459 -0.6304  0.4927 -1.2347
  138MOL   H21433368   2.585   3.499   5.549 -0.8542  0.4580  1.0987
  138MOL   H21533369   2.492   3.583   5.110 -0.2536 -1.8583  1.3853
  138MOL   H21633370   2.422   3.736   5.200  1.4119 -0.5871  0.6395
  138MOL   H21733371   2.322   3.609   5.129  0.1281  2.2985 -0.7291
  138MOL   C21833372   2.376   3.526   5.613  0.2488  1.4930 -0.4298
  138MOL   C21933373   2.411   3.655   5.693  0.3593  0.2882 -0.3810
  138MOL   C22033374   2.540   3.642   5.772 -0.6150 -0.0783  0.2079
  138MOL   O22133375   2.648   3.701   5.740  0.5515  0.2664 -0.4049
  138MOL   O22233376   2.532   3.563   5.874 -0.4055 -0.0502 -0.5090
  138MOL   C22333377   2.647   3.544   5.960 -0.2852  0.6129 -0.1532
  138MOL   H22433378   2.278   3.523   5.565  0.3961  3.5568 -0.9353
  138MOL   H22533379   2.369   3.448   5.689  2.3231  0.5987 -1.1358
  138MOL   H22633380   2.335   3.655   5.771  0.3168 -2.0761 -0.3717
  138MOL   H22733381   2.721   3.483   5.908  0.6883  1.1672  0.5574
  138MOL   H22833382   2.612   3.489   6.048  0.4547 -0.3855 -0.4778
  138MOL   H22933383   2.695   3.638   5.987  2.0064 -0.4921 -0.2421
  138MOL   C23033384   2.412   3.782   5.611 -0.1670 -0.0242  0.3329
  138MOL   C23133385   2.417   3.910   5.697 -0.2772  0.4042  0.2518
  138MOL   C23233386   2.319   3.928   5.815 -0.2898  0.0182  0.1626
  138MOL   O23333387   2.361   3.921   5.929  0.1222 -0.2855 -0.2463
  138MOL   O23433388   2.186   3.949   5.787  0.0930 -0.2425 -0.3035
  138MOL   C23533389   2.094   3.964   5.889  0.1530 -0.0666 -0.3324
  138MOL   H23633390   2.497   3.792   5.543  1.0932 -1.0836  1.7272
  138MOL   H23733391   2.316   3.771   5.560 -0.2852  0.2203  0.5048
  138MOL   H23833392   2.398   3.997   5.634 -0.5887  0.5627  0.5655
  138MOL   H23933393   2.103   3.873   5.948 -0.2073  0.4435  0.5254
  138MOL   H24033394   1.990   3.958   5.858 -0.4721  0.7521  1.5338
  138MOL   H24133395   2.119   4.064   5.925  0.3914 -0.3007  0.1606
  138MOL   H24233396   2.518   3.931   5.734  0.7707 -0.0828 -2.2494
  139MOL     C133397   6.419   0.155   0.657  0.3750 -0.8408 -0.1856
  139MOL     C233398   6.285   0.238   0.671  0.2997 -0.3403  0.2434
  139MOL     C333399   6.283   0.371   0.589  0.4808  0.7793  0.0924
  139MOL     O433400   6.249   0.478   0.639  0.0869  0.2007  0.2152
  139MOL     O533401   6.328   0.353   0.470  0.2633 -0.1837 -0.4889
  139MOL     C633402   6.341   0.456   0.381  0.0293 -0.5121 -0.1954
  139MOL     H733403   6.503   0.225   0.659 -0.5013  0.1710  2.2453
  139MOL     H833404   6.428   0.107   0.559  0.3486  0.2880 -0.7616
  139MOL     H933405   6.270   0.278   0.772 -3.0538  1.3227 -0.8459
  139MOL    H1033406   6.445   0.471   0.356  0.0684  1.4614  1.0966
  139MOL    H1133407   6.309   0.551   0.424 -0.2348 -0.5884 -0.2217
  139MOL    H1233408   6.290   0.442   0.285 -0.4894  0.7959 -0.1176
  139MOL    H1333409   6.428   0.087   0.741 -3.3080 -2.0945 -0.7337
  139MOL    C1433410   6.166   0.146   0.639  0.0924 -0.2611  0.3880
  139MOL    C1533411   6.021   0.200   0.664  0.0869 -0.2085 -0.3882
  139MOL    C1633412   5.922   0.119   0.576  0.4722 -1.2891  0.6193
  139MOL    O1733413   5.821   0.066   0.622 -0.1732 -0.0700  0.1547
  139MOL    O1833414   5.956   0.131   0.453  0.0269 -0.4230  0.4818
  139MOL    C1933415   5.883   0.062   0.346  0.2058  0.2494 -0.1347
  139MOL    H2033416   6.167   0.125   0.532  3.1991 -2.3250  0.7417
  139MOL    H2133417   6.176   0.046   0.681  2.5164 -0.1119  0.2416
  139MOL    H2233418   6.014   0.302   0.627  0.0163 -0.3127 -0.6631
  139MOL    H2333419   5.782   0.101   0.338 -0.4015 -1.5651 -1.9471
  139MOL    H2433420   5.886   7.890   0.375  1.1073  0.2858 -0.0974
  139MOL    H2533421   5.937   0.071   0.251 -1.1115 -2.1935 -1.1807
  139MOL    C2633422   5.991   0.196   0.821 -0.0651 -0.4326 -0.1960
  139MOL    C2733423   5.895   0.307   0.869 -0.0626  0.6229 -0.2648
  139MOL    C2833424   5.834   0.268   1.005 -1.0074 -0.4030  0.0303
  139MOL    O2933425   5.720   0.304   1.035 -0.1863 -0.0591  0.1676
  139MOL    O3033426   5.920   0.216   1.093 -0.4251  0.2124  0.4329
  139MOL    C3133427   5.899   0.199   1.231  0.1689 -0.1055 -0.0433
  139MOL    H3233428   5.943   0.103   0.851  0.4200 -0.2990  0.9936
  139MOL    H3333429   6.085   0.196   0.876 -0.9866 -1.0998  1.4158
  139MOL    H3433430   5.814   0.302   0.796  0.2482 -4.4448 -0.4634
  139MOL    H3533431   5.828   0.272   1.270  1.0740 -0.4197  2.3089
  139MOL    H3633432   5.994   0.220   1.281 -1.6447 -1.1593  4.0220
  139MOL    H3733433   5.869   0.100   1.263 -1.5689  0.3386 -0.2247
  139MOL    C3833434   5.972   0.444   0.876 -0.4413  0.2276  0.6938
  139MOL    C3933435   5.884   0.569   0.914  0.5021 -0.6206  0.5538
  139MOL    C4033436   5.871   0.607   1.060  0.7522  0.0951  0.5812
  139MOL    O4133437   5.763   0.648   1.105  0.7004  0.0669  0.2434
  139MOL    O4233438   5.986   0.596   1.124 -0.5295 -0.2200  0.4503
  139MOL    C4333439   5.988   0.583   1.263 -0.5810  0.6227 -0.5095
  139MOL    H4433440   6.049   0.444   0.953 -1.2506 -2.0862  1.5424
  139MOL    H4533441   6.024   0.463   0.782  0.8570  1.0922  1.5799
  139MOL    H4633442   5.780   0.545   0.893 -0.4931  2.2660  1.8819
  139MOL    H4733443   6.081   0.631   1.295 -0.2505  0.2504 -0.9056
  139MOL    H4833444   5.987   0.480   1.299  2.3508  0.1385 -1.6648
  139MOL    H4933445   5.911   0.641   1.313  0.1340 -0.3583  1.8139
  139MOL    C5033446   5.919   0.694   0.832  0.2377  0.5542  0.5187
  139MOL    C5133447   5.908   0.681   0.681  0.1286  0.2547  0.0520
  139MOL    C5233448   5.766   0.642   0.643 -0.4494  0.0423  0.3688
  139MOL    O5333449   5.739   0.538   0.573  0.3099  0.6070 -0.3936
  139MOL    O5433450   5.671   0.716   0.692  0.1847  0.7728 -0.2040
  139MOL    C5533451   5.536   0.688   0.673  0.0237  0.9853 -0.2362
  139MOL    H5633452   5.866   0.777   0.877 -2.7371 -0.4105 -1.0832
  139MOL    H5733453   6.024   0.716   0.856  0.7613 -0.3872 -0.8485
  139MOL    H5833454   5.975   0.602   0.648  0.0864 -0.2671  1.1904
  139MOL    H5933455   5.499   0.695   0.571 -0.4937  2.4088  0.0387
  139MOL    H6033456   5.478   0.762   0.728  2.1854  0.5818  2.7260
  139MOL    H6133457   5.508   0.593   0.719 -0.0697  0.2473 -1.7775
  139MOL    C6233458   5.962   0.802   0.596  0.4445  0.1029  0.0882
  139MOL    C6333459   5.945   0.783   0.442  0.5168  0.3671  0.4172
  139MOL    C6433460   5.971   0.916   0.370 -0.1018 -0.4035 -0.8249
  139MOL    O6533461   5.894   0.970   0.299 -0.0361 -0.7796  0.4079
  139MOL    O6633462   6.093   0.969   0.393  0.3323 -0.3894 -0.2850
  139MOL    C6733463   6.125   1.090   0.320  0.2239  1.0831 -0.4383
  139MOL    H6833464   5.921   0.892   0.642  2.8160  1.3922 -0.2511
  139MOL    H6933465   6.064   0.819   0.631  0.2803  0.0596  0.5978
  139MOL    H7033466   5.840   0.758   0.424  0.0212  0.8631  2.5549
  139MOL    H7133467   6.125   1.082   0.211 -1.8115  0.5479 -0.4281
  139MOL    H7233468   6.218   1.132   0.358  0.5259  0.7367 -0.7905
  139MOL    H7333469   6.062   1.177   0.344 -0.2591  0.1529  1.8136
  139MOL    C7433470   6.042   0.678   0.382  0.1362 -0.1711 -0.0471
  139MOL    C7533471   5.993   0.631   0.236  0.1333  0.1748 -0.2735
  139MOL    C7633472   6.108   0.636   0.137  0.0095  0.6427 -0.0591
  139MOL    O7733473   6.150   0.539   0.079  0.3576  0.0563  0.3255
  139MOL    O7833474   6.153   0.761   0.119 -0.0159 -0.7302  0.1733
  139MOL    C7933475   6.271   0.782   0.051 -0.1692  0.0755 -0.5221
  139MOL    H8033476   6.143   0.720   0.381 -1.5905  4.2365  0.4675
  139MOL    H8133477   6.057   0.589   0.443  0.6077  1.1682  1.8193
  139MOL    H8233478   5.920   0.707   0.206  1.4358  0.7360 -2.1387
  139MOL    H8333479   6.340   0.703   0.079  1.4323  2.2906  2.0058
  139MOL    H8433480   6.303   0.882   0.083 -0.8713 -0.7102  2.7761
  139MOL    H8533481   6.258   0.776   7.875  1.9218 -2.7719 -0.6625
  139MOL    C8633482   5.918   0.493   0.243  0.3191  0.2779  0.1880
  139MOL    C8733483   5.813   0.474   0.128 -0.6933  0.1517 -0.3340
  139MOL    C8833484   5.866   0.446   7.919  0.3453 -0.0477 -0.1318
  139MOL    O8933485   5.858   0.538   7.837 -0.2974 -0.1447 -0.4657
  139MOL    O9033486   5.944   0.332   7.911  0.1716  0.1999  0.4174
  139MOL    C9133487   5.993   0.291   7.777 -0.2498  0.5051 -0.3418
  139MOL    H9233488   5.974   0.402   0.261 -2.4965 -1.4739  0.4102
  139MOL    H9333489   5.859   0.492   0.335 -0.1964 -0.1870 -0.1450
  139MOL    H9433490   5.770   0.574   0.128  0.0540  0.4929  1.2889
  139MOL    H9533491   6.050   0.370   7.728 -0.6332  0.9417 -0.0925
  139MOL    H9633492   5.906   0.270   7.715 -0.4062 -0.4884  0.2034
  139MOL    H9733493   6.052   0.199   7.778  0.0481  0.6793  2.3080
  139MOL    C9833494   5.704   0.365   0.164 -0.0158  0.1578 -0.6509
  139MOL    C9933495   5.602   0.409   0.269  0.3595 -0.1411  0.2998
  139MOL   C10033496   5.561   0.552   0.229 -0.0306 -1.1708 -0.3235
  139MOL   O10133497   5.469   0.556   0.152 -0.4037  0.2556  0.1275
  139MOL   O10233498   5.626   0.656   0.292  0.1087  0.1879  0.7063
  139MOL   C10333499   5.621   0.794   0.252  0.2479  0.1381 -0.7080
  139MOL   H10433500   5.656   0.336   0.071 -2.7128  1.4279  0.2723
  139MOL   H10533501   5.760   0.275   0.186  1.3693  1.2129  0.2585
  139MOL   H10633502   5.652   0.419   0.365 -1.4308  1.6454  1.0925
  139MOL   H10733503   5.524   0.843   0.249  0.0397 -0.1216  1.1707
  139MOL   H10833504   5.685   0.803   0.165 -0.3637  2.2655 -0.9703
  139MOL   H10933505   5.674   0.838   0.337 -0.1161 -2.0312  0.6870
  139MOL   C11033506   5.492   0.312   0.275  0.8266  0.2229  0.2944
  139MOL   C11133507   5.493   0.222   0.395 -0.6173 -0.3884  0.9910
  139MOL   C11233508   5.474   0.307   0.528 -0.4906  0.6238  0.3325
  139MOL   O11333509   5.417   0.417   0.534  0.0364 -0.2673 -0.1561
  139MOL   O11433510   5.535   0.250   0.629 -0.2560  0.7727 -0.3150
  139MOL   C11533511   5.511   0.308   0.756 -0.1974  0.3922  0.4470
  139MOL   H11633512   5.394   0.360   0.279 -0.3371 -2.1306  0.6709
  139MOL   H11733513   5.489   0.255   0.182  1.6095  0.3738  0.1723
  139MOL   H11833514   5.588   0.171   0.405 -0.0325  1.0221  2.9970
  139MOL   H11933515   5.419   0.366   0.767 -0.8842 -0.9550  1.9174
  139MOL   H12033516   5.589   0.379   0.783  1.4893 -1.5830  0.9100
  139MOL   H12133517   5.512   0.224   0.825 -1.7788 -0.6736 -0.7732
  139MOL   C12233518   5.375   0.112   0.385  0.1990  1.1209  0.4753
  139MOL   C12333519   5.395   7.921   0.479 -0.0088  0.2281 -0.2980
  139MOL   C12433520   5.267   7.851   0.468 -0.0251 -0.1520 -0.6174
  139MOL   O12533521   5.264   7.741   0.411  0.0646 -0.2955  0.4527
  139MOL   O12633522   5.161   7.918   0.520  0.1985  0.2793 -0.0842
  139MOL   C12733523   5.028   7.883   0.486  0.5831  0.2606 -0.1144
  139MOL   H12833524   5.282   0.168   0.395 -1.6460 -2.2433  3.1119
  139MOL   H12933525   5.374   0.071   0.284 -0.7011 -0.2798  1.0310
  139MOL   H13033526   5.395   0.030   0.580 -1.6059 -2.7096  0.9821
  139MOL   H13133527   4.955   7.928   0.554 -1.1114  1.1905 -2.4857
  139MOL   H13233528   5.010   7.778   0.506  0.8175  0.1235 -0.6422
  139MOL   H13333529   4.994   7.905   0.385  0.7928  2.1830  0.2182
  139MOL   C13433530   5.516   7.830   0.457  0.0063 -0.4725 -0.3724
  139MOL   C13533531   5.528   7.698   0.548 -0.4474 -0.0142 -0.8668
  139MOL   C13633532   5.570   7.579   0.455  0.1166 -0.2624 -0.7018
  139MOL   O13733533   5.687   7.535   0.461  0.0931 -0.0045 -0.0632
  139MOL   O13833534   5.479   7.551   0.363  0.0532 -0.1667  0.4833
  139MOL   C13933535   5.494   7.428   0.296  0.3580  0.2188  0.7525
  139MOL   H14033536   5.526   7.801   0.352 -1.2154 -1.3845 -0.2455
  139MOL   H14133537   5.606   7.891   0.462  0.2234 -0.7308 -1.1054
  139MOL   H14233538   5.431   7.666   0.587  0.0648 -0.2862  0.1879
  139MOL   H14333539   5.406   7.410   0.235  0.3897 -0.6768  0.9562
  139MOL   H14433540   5.501   7.340   0.360  0.9532  0.0284  0.4291
  139MOL   H14533541   5.581   7.422   0.231 -1.4012  0.2362 -1.6575
  139MOL   C14633542   5.613   7.713   0.677  0.7641  0.0882  0.3053
  139MOL   C14733543   5.567   7.814   0.785  0.0879 -0.5354  0.5393
  139MOL   C14833544   5.419   7.808   0.826 -0.7307 -0.9863  1.1613
  139MOL   O14933545   5.363   7.703   0.838  0.7639  0.3721 -0.2099
  139MOL   O15033546   5.374   7.930   0.846 -0.2681  0.5363  0.6089
  139MOL   C15133547   5.249   0.011   0.907 -0.2356 -0.2110  0.3612
  139MOL   H15233548   5.604   7.611   0.713  1.1357 -0.7858 -1.9579
  139MOL   H15333549   5.720   7.717   0.658  0.5448 -0.1847 -1.0560
  139MOL   H15433550   5.568   7.910   0.733 -1.6962  0.7385  2.7654
  139MOL   H15533551   5.231   7.885   0.997  0.0618  0.3445  0.7822
  139MOL   H15633552   5.173   7.911   0.835  0.0870 -1.8421  0.7392
  139MOL   H15733553   5.238   0.116   0.935 -0.4914  0.5946 -2.5654
  139MOL   C15833554   5.667   7.806   0.904  0.3435 -0.4437 -0.0592
  139MOL   C15933555   5.653   7.700   1.022  0.3628 -0.0459 -0.5850
  139MOL   C16033556   5.668   7.557   0.978 -0.2760 -0.1375  0.4874
  139MOL   O16133557   5.604   7.477   1.035 -0.4581 -0.0485 -0.4235
  139MOL   O16233558   5.763   7.539   0.884  0.5183 -0.0153 -0.7510
  139MOL   C16333559   5.791   7.404   0.836  1.0134 -0.7437  0.5677
  139MOL   H16433560   5.768   7.808   0.863  0.1263 -0.8339 -0.6070
  139MOL   H16533561   5.660   7.906   0.947 -2.0740 -0.1519 -1.0136
  139MOL   H16633562   5.551   7.705   1.062  0.5640  0.1182 -0.0843
  139MOL   H16733563   5.836   7.347   0.916 -0.0256  0.2288  1.8644
  139MOL   H16833564   5.854   7.405   0.746 -0.4883  1.5578 -0.5128
  139MOL   H16933565   5.707   7.342   0.805  1.0862 -0.3276 -0.5030
  139MOL   C17033566   5.761   7.736   1.129 -0.1089 -0.7495 -0.7874
  139MOL   C17133567   5.772   7.654   1.260 -0.2860 -0.1791  0.1376
  139MOL   C17233568   5.913   7.647   1.313  0.0998 -0.3570  0.3791
  139MOL   O17333569   5.989   7.740   1.320  0.3343  0.2081 -0.3139
  139MOL   O17433570   5.951   7.519   1.350  0.0998 -0.3043  0.1608
  139MOL   C17533571   6.066   7.493   1.433  0.6439 -0.2592  0.2568
  139MOL   H17633572   5.854   7.738   1.071  0.3808  3.2524 -0.0303
  139MOL   H17733573   5.743   7.841   1.152  1.8974 -0.5764  0.1104
  139MOL   H17833574   5.753   7.550   1.234 -1.8625 -0.3547  1.8859
  139MOL   H17933575   6.101   7.394   1.403 -0.7347 -0.4192 -0.8820
  139MOL   H18033576   6.047   7.488   1.540 -3.0517  1.5901 -0.2470
  139MOL   H18133577   6.153   7.556   1.415 -0.1696  0.1956 -2.3099
  139MOL   C18233578   5.665   7.698   1.365  0.1146  1.0478  0.0294
  139MOL   C18333579   5.643   7.849   1.388 -0.2191 -0.1334 -0.0931
  139MOL   C18433580   5.523   7.909   1.317  0.0355  0.2043 -0.0483
  139MOL   O18533581   5.411   7.864   1.335 -0.1479  0.4756  0.4679
  139MOL   O18633582   5.552   0.067   1.231 -0.2182 -0.1101  0.0899
  139MOL   C18733583   5.447   0.114   1.154  0.5454  0.7403 -0.1215
  139MOL   H18833584   5.570   7.653   1.335  0.4640  1.5527 -1.8963
  139MOL   H18933585   5.667   7.645   1.460 -0.5977  0.0774 -0.4736
  139MOL   H19033586   5.723   7.906   1.341 -0.3527 -0.4864 -0.7494
  139MOL   H19133587   5.484   0.170   1.068  2.2136  0.5277  0.4573
  139MOL   H19233588   5.381   0.175   1.216  1.2780  0.2100  1.1717
  139MOL   H19333589   5.401   0.025   1.112  2.4702 -0.4775  0.3062
  139MOL   C19433590   5.640   7.880   1.537  0.2011  0.0654  0.5458
  139MOL   C19533591   5.772   7.855   1.615  0.2318 -0.0234 -0.4734
  139MOL   C19633592   5.888   0.013   1.573 -0.7269 -0.4279  0.5224
  139MOL   O19733593   5.873   0.118   1.508 -0.1889 -0.6762  0.6997
  139MOL   O19833594   6.001   7.892   1.613  0.1991 -0.3450 -0.9860
  139MOL   C19933595   6.128   0.038   1.608  0.6957 -0.2159  0.9112
  139MOL   H20033596   5.613   0.052   1.549  1.3263  0.6092 -1.4017
  139MOL   H20133597   5.556   7.822   1.572 -1.4890  1.3305 -1.2710
  139MOL   H20233598   5.806   7.753   1.600  0.0645 -0.0673 -0.5519
  139MOL   H20333599   6.148   0.088   1.512 -1.5910 -0.2112  0.4190
  139MOL   H20433600   6.211   7.903   1.629  1.2456  0.0139 -0.4582
  139MOL   H20533601   6.124   0.110   1.689 -2.5834 -0.7248  1.2643
  139MOL   C20633602   5.733   7.863   1.768 -0.1905 -0.9746  0.2470
  139MOL   C20733603   5.745   7.722   1.838  0.4330 -0.8002  0.7256
  139MOL   C20833604   5.887   7.662   1.849 -0.1011 -0.1152  0.1411
  139MOL   O20933605   5.918   7.555   1.802  0.3478  0.0522  0.5446
  139MOL   O21033606   5.966   7.743   1.926 -0.0923 -0.8991  0.2081
  139MOL   C21133607   6.101   7.701   1.956 -0.3609  0.8672  0.2538
  139MOL   H21233608   5.802   7.926   1.823  0.9951 -1.6957 -0.3832
  139MOL   H21333609   5.629   7.891   1.781 -0.2100 -0.5616 -0.7301
  139MOL   H21433610   5.696   7.663   1.760 -0.0742  3.2414 -2.1579
  139MOL   H21533611   6.146   7.789   2.003 -0.0684  1.1080 -0.4756
  139MOL   H21633612   6.144   7.671   1.861  2.0329  2.0736  0.9161
  139MOL   H21733613   6.112   7.618   2.026  1.2142 -0.3126 -1.3428
  139MOL   C21833614   5.667   7.709   1.971  0.7924  0.3252 -0.4054
  139MOL   C21933615   5.535   7.630   1.953  0.5985 -0.1531 -0.3708
  139MOL   C22033616   5.544   7.473   1.970 -0.2605 -0.0515 -0.0812
  139MOL   O22133617   5.468   7.402   2.038  0.7925 -0.7233 -0.1421
  139MOL   O22233618   5.648   7.421   1.899 -0.8478  0.2112  0.1271
  139MOL   C22333619   5.680   7.285   1.894 -0.5520  0.5913 -0.0108
  139MOL   H22433620   5.736   7.669   2.046  0.5302  0.3142 -0.1687
  139MOL   H22533621   5.663   7.811   2.009 -4.1558 -0.1057  0.5688
  139MOL   H22633622   5.488   7.651   1.857 -0.5705 -3.0928 -0.4942
  139MOL   H22733623   5.778   7.277   1.846 -0.3231 -0.2734  0.5853
  139MOL   H22833624   5.611   7.215   1.847  0.8939  0.3246 -1.7962
  139MOL   H22933625   5.693   7.249   1.996  1.6525 -3.5787 -1.6397
  139MOL   C23033626   5.430   7.685   2.046 -0.2932 -0.8009 -0.0503
  139MOL   C23133627   5.377   7.817   1.993 -0.0243  0.4482 -0.5386
  139MOL   C23233628   5.267   7.860   2.088  1.2754  0.5352 -0.1666
  139MOL   O23333629   5.302   7.904   2.200  0.1188  0.3534 -0.1415
  139MOL   O23433630   5.136   7.812   2.053 -0.8050  0.2433  0.3959
  139MOL   C23533631   5.036   7.838   2.141  0.4145  0.2685 -0.4165
  139MOL   H23633632   5.347   7.617   2.065 -0.5532 -0.9916 -1.8739
  139MOL   H23733633   5.475   7.720   2.139  0.6331 -2.7196  0.2447
  139MOL   H23833634   5.338   7.806   1.892 -1.7903 -1.6019  0.3409
  139MOL   H23933635   4.947   7.786   2.107  0.6464 -0.5595  0.2117
  139MOL   H24033636   5.009   0.011   2.143  0.0195  0.2320 -2.4007
  139MOL   H24133637   5.062   7.792   2.236 -1.0197  0.8213  0.2621
  139MOL   H24233638   5.456   7.892   1.983  1.6031 -1.2683 -0.8810
  140MOL     C133639   7.054   5.047   3.947  0.5796  0.0552  0.3209
  140MOL     C233640   7.188   5.126   3.916 -0.3510 -0.5617  0.1353
  140MOL     C333641   7.294   5.027   3.880  0.1750 -0.3719 -0.8019
  140MOL     O433642   7.389   5.009   3.958 -0.4504 -0.0979 -0.5962
  140MOL     O533643   7.282   4.973   3.759  0.1210  0.3626  0.4210
  140MOL     C633644   7.373   4.872   3.728 -0.2269  0.8090  0.1500
  140MOL     H733645   7.078   4.952   3.994 -0.4469 -1.8565 -2.8583
  140MOL     H833646   7.003   5.027   3.853 -1.4470  0.0206  1.4149
  140MOL     H933647   7.230   5.168   4.007  1.3247 -1.9136  0.0009
  140MOL    H1033648   7.368   4.780   3.787  2.2646  1.7208  1.8366
  140MOL    H1133649   7.478   4.903   3.726  0.6570 -2.0516 -1.4334
  140MOL    H1233650   7.351   4.828   3.630  0.0308 -1.6342  1.1451
  140MOL    H1333651   6.989   5.105   4.012 -0.0090  0.4629 -0.6178
  140MOL    C1433652   7.167   5.231   3.804 -0.0444  0.0914 -0.2147
  140MOL    C1533653   7.087   5.355   3.844  0.2516  0.1225  0.5039
  140MOL    C1633654   7.174   5.447   3.938  0.3220  0.2209 -0.3647
  140MOL    O1733655   7.222   5.553   3.900  0.0118 -0.1638 -0.5976
  140MOL    O1833656   7.186   5.400   4.064  0.0158 -0.5486  0.0209
  140MOL    C1933657   7.258   5.481   4.161 -0.0622  0.3429 -0.8029
  140MOL    H2033658   7.268   5.272   3.792 -0.0960  0.7778  1.5682
  140MOL    H2133659   7.136   5.189   3.708 -0.9653  2.0247 -0.7847
  140MOL    H2233660   7.000   5.321   3.899  0.1009 -1.5860 -0.7272
  140MOL    H2333661   7.367   5.470   4.158 -0.0434  0.0382  0.7722
  140MOL    H2433662   7.228   5.450   4.261 -0.7504  2.5498 -0.2982
  140MOL    H2533663   7.239   5.588   4.170  3.5309  0.8198  2.4433
  140MOL    C2633664   7.052   5.426   3.705 -0.3834  0.0363 -0.6235
  140MOL    C2733665   6.975   5.562   3.708 -0.7892 -0.0902 -0.4033
  140MOL    C2833666   6.992   5.629   3.572  0.2168 -0.5039 -0.5654
  140MOL    O2933667   6.919   5.597   3.476 -0.0783 -0.5286 -0.5175
  140MOL    O3033668   7.094   5.705   3.568  0.7629 -0.5884  0.2518
  140MOL    C3133669   7.155   5.739   3.451  0.5766 -0.0952  0.4256
  140MOL    H3233670   7.141   5.437   3.643  0.5377 -2.7500  0.1023
  140MOL    H3333671   6.984   5.351   3.664  0.6713 -1.2074 -0.1675
  140MOL    H3433672   7.021   5.628   3.782  0.6719 -1.4205 -0.0982
  140MOL    H3533673   7.226   5.820   3.464  0.3528  0.2392 -0.3991
  140MOL    H3633674   7.089   5.783   3.376 -1.1449 -0.2142  1.8277
  140MOL    H3733675   7.209   5.653   3.410  0.2380 -0.3404  0.4919
  140MOL    C3833676   6.825   5.542   3.742  0.3881  1.3684 -0.3079
  140MOL    C3933677   6.780   5.490   3.886  0.8956 -0.5433  0.2032
  140MOL    C4033678   6.845   5.557   4.005 -0.4469 -0.2236  0.4844
  140MOL    O4133679   6.888   5.495   4.101 -0.1901 -0.3983 -0.3675
  140MOL    O4233680   6.854   5.687   3.987 -0.0177  0.0569  0.2689
  140MOL    C4333681   6.912   5.771   4.080 -0.2823 -0.5727 -0.5059
  140MOL    H4433682   6.777   5.639   3.732 -0.9534  0.5112 -2.4539
  140MOL    H4533683   6.774   5.485   3.664 -0.7372  0.0550  1.3504
  140MOL    H4633684   6.813   5.386   3.886  2.3502 -0.1050  1.9835
  140MOL    H4733685   6.911   5.736   4.183 -1.5981  1.0201  0.0438
  140MOL    H4833686   6.851   5.861   4.088 -0.2144 -0.5797  0.0791
  140MOL    H4933687   7.015   5.791   4.051  0.4138 -1.2350  1.4177
  140MOL    C5033688   6.624   5.495   3.919 -0.5909 -0.0554  0.4419
  140MOL    C5133689   6.544   5.410   3.824 -0.0492 -0.3301 -0.2324
  140MOL    C5233690   6.581   5.265   3.835  0.1488  0.3831  0.8973
  140MOL    O5333691   6.597   5.196   3.738  0.1660  0.5385 -0.2715
  140MOL    O5433692   6.568   5.219   3.964 -0.0924 -0.0921  0.1919
  140MOL    C5533693   6.628   5.095   3.993 -0.5906 -0.1536 -0.7123
  140MOL    H5633694   6.603   5.468   4.023 -1.3972 -1.6929 -0.1217
  140MOL    H5733695   6.601   5.601   3.917 -2.3285 -0.4187  0.7555
  140MOL    H5833696   6.562   5.451   3.725  0.7588  0.9827  0.4349
  140MOL    H5933697   6.736   5.085   3.985 -0.4675  1.8048 -1.9042
  140MOL    H6033698   6.568   5.022   3.940 -3.6703  0.0619  2.3045
  140MOL    H6133699   6.595   5.087   4.096  1.6025 -0.3476  0.0053
  140MOL    C6233700   6.392   5.436   3.838 -0.6628  0.3095  0.4864
  140MOL    C6333701   6.334   5.578   3.841  0.2020 -1.1948  0.4975
  140MOL    C6433702   6.385   5.671   3.731 -0.1647 -0.1346 -0.2279
  140MOL    O6533703   6.440   5.783   3.757 -0.3326 -0.6190  0.0888
  140MOL    O6633704   6.384   5.616   3.611  0.1387  0.6451 -0.3033
  140MOL    C6733705   6.448   5.680   3.505 -0.1698  0.9103  0.7849
  140MOL    H6833706   6.349   5.381   3.754 -0.4067  1.5156 -0.4535
  140MOL    H6933707   6.369   5.392   3.935 -0.0385 -0.4154  0.3133
  140MOL    H7033708   6.371   5.637   3.926 -1.9230 -0.2694  0.7991
  140MOL    H7133709   6.450   5.788   3.520  0.7769  1.1133 -0.6903
  140MOL    H7233710   6.385   5.662   3.418 -2.1108  3.3189  1.6184
  140MOL    H7333711   6.552   5.648   3.509 -0.2540  0.5856  0.3663
  140MOL    C7433712   6.181   5.572   3.845  0.0170 -0.1386 -0.1383
  140MOL    C7533713   6.100   5.704   3.837  0.1293  0.6131  0.7803
  140MOL    C7633714   5.952   5.666   3.851 -0.0380  0.0127  0.6450
  140MOL    O7733715   5.898   5.645   3.961 -0.4401  0.4677  0.2398
  140MOL    O7833716   5.896   5.638   3.736 -0.1315  0.1089 -0.3354
  140MOL    C7933717   5.763   5.602   3.721  0.3192  0.1804 -0.2301
  140MOL    H8033718   6.149   5.510   3.761  2.2679 -2.5010  0.7069
  140MOL    H8133719   6.155   5.523   3.940  1.9260  1.4825  1.2472
  140MOL    H8233720   6.106   5.733   3.732 -1.8986 -0.4392  0.3523
  140MOL    H8333721   5.731   5.521   3.787  1.1372  1.6952  2.0582
  140MOL    H8433722   5.750   5.577   3.615  0.6002  0.7166 -0.3919
  140MOL    H8533723   5.706   5.692   3.740  0.3953  0.4605 -1.2847
  140MOL    C8633724   6.147   5.826   3.924  0.1023  0.7623  0.4991
  140MOL    C8733725   6.130   5.963   3.865 -0.2160 -0.3704 -0.0177
  140MOL    C8833726   5.991   5.978   3.795  0.5732  0.8130  0.6141
  140MOL    O8933727   5.888   6.017   3.853 -0.1946 -0.6007 -0.1620
  140MOL    O9033728   6.005   5.942   3.668 -0.3496 -0.3043  0.0789
  140MOL    C9133729   5.899   5.933   3.575 -0.5510  1.0294  0.0046
  140MOL    H9233730   6.095   5.830   4.020  0.7522  1.3526  0.8290
  140MOL    H9333731   6.251   5.809   3.952  0.1103  0.7971  0.4907
  140MOL    H9433732   6.201   5.972   3.782 -1.8980 -1.9772 -1.6775
  140MOL    H9533733   5.858   6.030   3.548 -0.6673  0.5343 -1.6249
  140MOL    H9633734   5.827   5.865   3.621  0.3810 -0.8691 -1.2576
  140MOL    H9733735   5.927   5.881   3.484 -1.5407  0.1122  0.2063
  140MOL    C9833736   6.151   6.077   3.973 -0.0541  0.1235 -0.3051
  140MOL    C9933737   6.292   6.079   4.052 -0.1177 -0.6939  0.0348
  140MOL   C10033738   6.429   6.070   3.968  0.6211 -0.7012  0.0501
  140MOL   O10133739   6.522   5.995   3.994  0.1108 -0.1679  0.1875
  140MOL   O10233740   6.441   6.153   3.859 -0.3093 -0.1911  0.6379
  140MOL   C10333741   6.541   6.123   3.764  0.3595 -0.2054 -0.0282
  140MOL   H10433742   6.141   6.167   3.912 -1.0041  0.8792  0.9387
  140MOL   H10533743   6.077   6.080   4.053 -0.1077  1.8621 -0.4034
  140MOL   H10633744   6.282   5.982   4.099 -0.6747 -0.0987  1.1764
  140MOL   H10733745   6.622   6.189   3.795 -1.0256  1.5973 -0.2049
  140MOL   H10833746   6.502   6.156   3.668  0.5770  2.3536  0.7348
  140MOL   H10933747   6.572   6.018   3.763  0.5604 -0.1862  2.1517
  140MOL   C11033748   6.305   6.191   4.162 -0.2051  0.5496 -0.0875
  140MOL   C11133749   6.324   6.336   4.113  0.1025  0.7118 -0.0937
  140MOL   C11233750   6.190   6.386   4.056  0.1291  0.0927 -0.4749
  140MOL   O11333751   6.182   6.429   3.945  0.5523 -0.2238 -0.2299
  140MOL   O11433752   6.091   6.373   4.136  0.1986 -0.3921  0.4042
  140MOL   C11533753   5.962   6.414   4.094 -0.1606  0.5434 -0.5708
  140MOL   H11633754   6.207   6.188   4.212 -1.7423 -1.8710 -3.1100
  140MOL   H11733755   6.388   6.171   4.230  1.1016  2.1293 -1.1912
  140MOL   H11833756   6.394   6.337   4.029 -0.1284 -0.1005 -0.3000
  140MOL   H11933757   5.909   6.326   4.060 -1.4793  1.3599 -0.6653
  140MOL   H12033758   5.953   6.483   4.010 -1.6827  1.6277  0.4517
  140MOL   H12133759   5.912   6.452   4.184 -1.0013 -0.2460 -0.7056
  140MOL   C12233760   6.374   6.433   4.217 -0.5632 -0.4312 -0.4892
  140MOL   C12333761   6.444   6.555   4.152 -0.1945 -0.4747  0.6694
  140MOL   C12433762   6.449   6.674   4.245 -0.0867  0.7839  0.3011
  140MOL   O12533763   6.446   6.664   4.367  0.1331 -0.6772  0.3533
  140MOL   O12633764   6.462   6.781   4.172  0.3506  0.0993 -0.4359
  140MOL   C12733765   6.499   6.906   4.230 -0.5313  0.6787 -0.2904
  140MOL   H12833766   6.291   6.458   4.282 -0.0697 -1.0244  0.3729
  140MOL   H12933767   6.441   6.389   4.291 -0.1831 -1.1184 -1.2361
  140MOL   H13033768   6.386   6.584   4.064  1.6666 -0.5142 -0.5942
  140MOL   H13133769   6.605   6.926   4.218 -0.1391 -0.0467  1.6888
  140MOL   H13233770   6.468   6.904   4.335 -1.0097 -1.0588 -0.4384
  140MOL   H13333771   6.446   6.990   4.187 -0.3831  1.9574  1.9222
  140MOL   C13433772   6.593   6.511   4.111  0.2589 -0.9489 -0.0531
  140MOL   C13533773   6.647   6.578   3.977  0.1951  0.3632 -0.3817
  140MOL   C13633774   6.785   6.523   3.933  0.1401  0.0504  0.1872
  140MOL   O13733775   6.883   6.598   3.922  0.5858 -0.1452  0.2827
  140MOL   O13833776   6.783   6.397   3.914 -0.5235 -0.3243  0.4402
  140MOL   C13933777   6.900   6.322   3.870 -0.9213  0.0677  0.3052
  140MOL   H14033778   6.667   6.540   4.185 -0.1764 -0.5184  0.2127
  140MOL   H14133779   6.604   6.403   4.097 -2.9522 -1.2900 -0.4274
  140MOL   H14233780   6.663   6.685   3.988  0.7458  0.1736  0.7742
  140MOL   H14333781   6.909   6.325   3.761  0.1722  0.3299  0.3973
  140MOL   H14433782   6.898   6.217   3.899  2.9329 -0.4136 -0.8832
  140MOL   H14533783   6.988   6.365   3.919 -1.0114 -1.2038  1.5930
  140MOL   C14633784   6.551   6.566   3.860  0.2581 -0.3594  0.5083
  140MOL   C14733785   6.579   6.653   3.732  0.1971  0.5941  0.0520
  140MOL   C14833786   6.587   6.797   3.758 -0.1554 -0.2092  0.5527
  140MOL   O14933787   6.670   6.878   3.712 -0.4884  0.3493 -0.0831
  140MOL   O15033788   6.493   6.831   3.845  0.4707 -0.3711 -0.0550
  140MOL   C15133789   6.478   6.970   3.896  0.0433 -0.3402 -0.4592
  140MOL   H15233790   6.531   6.461   3.839  0.6016 -0.0399 -1.5079
  140MOL   H15333791   6.453   6.605   3.887  0.8565  2.5970 -1.3862
  140MOL   H15433792   6.484   6.659   3.677  0.2483 -1.2832 -0.2743
  140MOL   H15533793   6.428   7.029   3.819  0.5790  1.2930  0.4465
  140MOL   H15633794   6.578   7.004   3.918 -0.4807  1.6889 -1.1154
  140MOL   H15733795   6.410   6.976   3.981 -0.3648 -2.5794 -0.5923
  140MOL   C15833796   6.688   6.612   3.630  0.2848 -1.2402 -0.4033
  140MOL   C15933797   6.673   6.472   3.575  0.6848  0.1828 -0.2373
  140MOL   C16033798   6.541   6.455   3.497  0.0201  0.3889  0.1528
  140MOL   O16133799   6.468   6.357   3.518 -0.2446  0.0191  0.5778
  140MOL   O16233800   6.518   6.542   3.399 -0.2917  0.0189 -0.2407
  140MOL   C16333801   6.405   6.532   3.315 -0.4615  0.3586  0.7445
  140MOL   H16433802   6.683   6.682   3.546 -0.7447  1.5401  1.8816
  140MOL   H16533803   6.779   6.625   3.687 -0.5235 -0.6326  0.7634
  140MOL   H16633804   6.672   6.407   3.662  0.3356  0.8294  0.2391
  140MOL   H16733805   6.427   6.609   3.241  1.0046 -1.0341 -0.2808
  140MOL   H16833806   6.315   6.544   3.376  0.5538 -0.5087  2.4583
  140MOL   H16933807   6.394   6.438   3.261  0.9440  0.1675  0.7638
  140MOL   C17033808   6.801   6.442   3.487 -0.4090  0.1898 -0.0382
  140MOL   C17133809   6.831   6.292   3.471  0.0570 -0.5723 -0.2354
  140MOL   C17233810   6.734   6.210   3.392  0.7283 -0.1501  0.4873
  140MOL   O17333811   6.699   6.098   3.434  0.1247  0.1457  0.8972
  140MOL   O17433812   6.689   6.271   3.284 -0.6404  0.5505  0.1744
  140MOL   C17533813   6.588   6.202   3.209 -0.2253 -0.1157  0.4726
  140MOL   H17633814   6.786   6.492   3.391  1.1128  0.7349 -0.0051
  140MOL   H17733815   6.889   6.492   3.527 -0.6323 -0.1271  0.8569
  140MOL   H17833816   6.838   6.254   3.573  0.2640  0.3658  0.0982
  140MOL   H17933817   6.483   6.214   3.238 -0.4708  0.8409 -0.7524
  140MOL   H18033818   6.599   6.096   3.189  2.4824  0.7534 -3.1826
  140MOL   H18133819   6.598   6.249   3.111 -0.7574 -2.5708 -0.8033
  140MOL   C18233820   6.966   6.277   3.395  0.1469  0.9291  0.0706
  140MOL   C18333821   7.029   6.135   3.401 -1.0146 -0.1330  0.3022
  140MOL   C18433822   7.056   6.098   3.251 -0.7229  0.1024 -0.0645
  140MOL   O18533823   7.046   5.977   3.219  0.2909 -0.1207 -0.1371
  140MOL   O18633824   7.095   6.198   3.166  0.2231 -0.5145 -0.0712
  140MOL   C18733825   7.123   6.161   3.034 -0.4893  0.3487 -0.0036
  140MOL   H18833826   6.941   6.302   3.292  2.1478  2.2682 -0.1389
  140MOL   H18933827   7.032   6.358   3.428 -0.1745  1.3813 -0.3877
  140MOL   H19033828   6.956   6.061   3.433 -1.3230 -0.0817 -0.2800
  140MOL   H19133829   7.035   6.106   3.001  0.3175  1.2391 -3.7643
  140MOL   H19233830   7.216   6.105   3.023 -0.0025  1.2489 -0.5134
  140MOL   H19333831   7.143   6.247   2.971 -1.9924 -0.9884 -2.3700
  140MOL   C19433832   7.165   6.128   3.476 -0.1017  0.3396 -0.1457
  140MOL   C19533833   7.142   6.166   3.625  0.7010 -0.2326  0.1646
  140MOL   C19633834   7.076   6.057   3.710  0.1198  0.4756  0.3182
  140MOL   O19733835   7.142   5.988   3.790 -0.6181  0.1844  0.2366
  140MOL   O19833836   6.943   6.044   3.681  0.5056 -0.2160  0.6841
  140MOL   C19933837   6.866   5.943   3.739  0.1348 -0.4738  0.3371
  140MOL   H20033838   7.224   6.038   3.459 -0.4742  0.1576 -0.4662
  140MOL   H20133839   7.234   6.202   3.435  3.4568 -3.2438 -0.8993
  140MOL   H20233840   7.074   6.250   3.613 -3.2146 -3.1777  0.7879
  140MOL   H20333841   6.766   5.930   3.699  0.0233 -1.3878  0.8981
  140MOL   H20433842   6.858   5.952   3.847  0.1158  1.0415  0.2219
  140MOL   H20533843   6.913   5.846   3.718  0.8922 -0.2948  1.1645
  140MOL   C20633844   7.272   6.211   3.702 -0.0854 -0.5013  0.1731
  140MOL   C20733845   7.343   6.342   3.663 -0.2213  0.2506 -0.4147
  140MOL   C20833846   7.256   6.461   3.653 -0.2783  0.3426 -0.2598
  140MOL   O20933847   7.159   6.477   3.730 -0.1548 -0.2421 -0.3943
  140MOL   O21033848   7.299   6.539   3.559 -0.1500 -0.1500  0.8304
  140MOL   C21133849   7.218   6.646   3.520  0.6173 -0.5864  0.1119
  140MOL   H21233850   7.253   6.231   3.807  1.7219 -0.0503  0.4170
  140MOL   H21333851   7.339   6.127   3.688  2.0799  0.8942  1.8647
  140MOL   H21433852   7.381   6.329   3.561  3.0750  0.6673  0.6818
  140MOL   H21533853   7.279   6.697   3.445 -0.2216  1.3423  0.7262
  140MOL   H21633854   7.196   6.720   3.597 -0.0207  0.4165 -1.0197
  140MOL   H21733855   7.124   6.614   3.476 -0.3316 -0.0882  1.7629
  140MOL   C21833856   7.471   6.366   3.743  0.5269 -0.4709  0.5728
  140MOL   C21933857   7.456   6.374   3.896 -0.0718 -0.3840  0.3228
  140MOL   C22033858   7.529   6.260   3.970  0.5288  0.2279  0.1443
  140MOL   O22133859   7.461   6.194   4.051 -0.1912 -0.1798  0.1576
  140MOL   O22233860   7.654   6.226   3.928  0.2046 -0.4274 -0.3765
  140MOL   C22333861   7.701   6.096   3.963  0.6817  0.0673 -0.5252
  140MOL   H22433862   7.551   6.300   3.709  2.9803  1.7464  1.8456
  140MOL   H22533863   7.515   6.459   3.706 -1.9426  0.4835 -0.0425
  140MOL   H22633864   7.350   6.367   3.920  0.1354 -2.1245  0.8133
  140MOL   H22733865   7.782   6.057   3.901 -0.1610 -2.1202 -0.2939
  140MOL   H22833866   7.630   6.014   3.957 -0.4791  0.9204  1.0535
  140MOL   H22933867   7.728   6.093   4.069 -2.9930 -1.3190  0.4510
  140MOL   C23033868   7.496   6.514   3.940 -0.0887 -0.3089 -0.4450
  140MOL   C23133869   7.457   6.545   4.083  0.5779 -0.9081 -0.0686
  140MOL   C23233870   7.551   6.631   4.165 -0.1136  0.1387  1.2071
  140MOL   O23333871   7.660   6.675   4.111  0.0542  0.2566  0.7475
  140MOL   O23433872   7.515   6.665   4.293  0.7594  0.0626 -0.4390
  140MOL   C23533873   7.558   6.790   4.358  0.1062  0.4204  0.1282
  140MOL   H23633874   7.604   6.520   3.924  0.1019 -0.0159  0.8490
  140MOL   H23733875   7.450   6.593   3.881 -0.4070  0.2200  0.5011
  140MOL   H23833876   7.456   6.454   4.143  1.0039  0.3575  1.8865
  140MOL   H23933877   7.527   6.784   4.462  0.3725  1.1084  0.2488
  140MOL   H24033878   7.512   6.873   4.305  0.5818  1.4582  1.3283
  140MOL   H24133879   7.667   6.787   4.365  0.1819  0.2300 -1.0185
  140MOL   H24233880   7.354   6.580   4.090  0.6451 -0.5540 -0.7531
  141MOL     C133881   2.873   7.475   1.573 -0.2515 -0.2244  0.0431
  141MOL     C233882   2.935   7.539   1.695 -0.0260 -0.0466 -0.2704
  141MOL     C333883   3.068   7.463   1.729 -0.7565  0.0622  0.3576
  141MOL     O433884   3.179   7.509   1.700 -0.0287  0.3710 -0.4376
  141MOL     O533885   3.043   7.354   1.796  0.1227  0.1061 -0.1756
  141MOL     C633886   3.149   7.283   1.855 -0.1495  0.2383  0.2735
  141MOL     H733887   2.774   7.513   1.551  1.0448  2.6446 -1.0122
  141MOL     H833888   2.860   7.368   1.589 -0.6213 -0.0317  1.0718
  141MOL     H933889   2.883   7.534   1.791  0.7309  0.3693  0.1654
  141MOL    H1033890   3.093   7.193   1.880 -0.0699 -0.2163 -1.1087
  141MOL    H1133891   3.189   7.328   1.945  0.3885  1.1774 -0.4239
  141MOL    H1233892   3.225   7.261   1.780 -0.1108 -1.7477  0.8682
  141MOL    H1333893   2.934   7.499   1.486 -2.6104 -1.0543 -1.8704
  141MOL    C1433894   2.954   7.694   1.666 -0.6769  0.4025  0.0052
  141MOL    C1533895   2.822   7.773   1.674  0.5926  0.0257  0.0462
  141MOL    C1633896   2.795   7.838   1.816  0.1358 -0.4152  0.0557
  141MOL    O1733897   2.702   7.793   1.885  0.7464 -0.4942 -0.2266
  141MOL    O1833898   2.870   0.006   1.845  0.2704 -0.1015 -0.0586
  141MOL    C1933899   2.854   0.076   1.968 -0.1740 -0.1525 -0.2123
  141MOL    H2033900   3.030   7.733   1.734  0.1103 -0.7324 -0.2000
  141MOL    H2133901   2.992   7.702   1.564 -0.1611 -1.4356  0.0350
  141MOL    H2233902   2.738   7.706   1.657  0.1945  0.2507  1.0598
  141MOL    H2333903   2.886   0.180   1.969  0.9688 -0.4760 -1.5663
  141MOL    H2433904   2.894   0.007   2.043  1.9609  0.2699 -0.9251
  141MOL    H2533905   2.747   0.083   1.988 -0.0522 -1.0372  0.8048
  141MOL    C2633906   2.810   7.890   1.567 -0.0008  0.5924 -0.2522
  141MOL    C2733907   2.817   7.871   1.411  0.2384  0.2978  0.1791
  141MOL    C2833908   2.686   7.814   1.368 -0.3142 -0.3098  1.0602
  141MOL    O2933909   2.592   7.883   1.326  0.0924  0.2674 -0.5351
  141MOL    O3033910   2.688   7.679   1.380 -0.2073 -0.4398 -0.1327
  141MOL    C3133911   2.564   7.622   1.354  0.1122 -0.2587  0.3549
  141MOL    H3233912   2.725   0.020   1.595  0.3987  0.8227  0.4372
  141MOL    H3333913   2.900   0.011   1.595  0.8890 -0.5838 -0.8108
  141MOL    H3433914   2.902   7.808   1.387 -0.4440 -0.6378  0.1658
  141MOL    H3533915   2.567   7.515   1.370  0.4245 -0.1861  0.8131
  141MOL    H3633916   2.528   7.651   1.256  1.9942  0.7240 -0.0727
  141MOL    H3733917   2.487   7.651   1.425  0.6819  0.5482  0.6589
  141MOL    C3833918   2.848   0.067   1.333  0.2159 -0.3900  0.0769
  141MOL    C3933919   2.902   0.038   1.178 -0.5606  0.4994 -0.3557
  141MOL    C4033920   2.781   0.064   1.086  0.5845  0.5124 -0.6135
  141MOL    O4133921   2.736   0.177   1.070  0.3573 -0.1753  0.1504
  141MOL    O4233922   2.740   7.890   1.021  0.4277  0.3447 -0.2552
  141MOL    C4333923   2.618   7.899   0.951 -0.3411  0.1146  0.0093
  141MOL    H4433924   2.764   0.137   1.338 -1.1721 -2.1141  1.2125
  141MOL    H4533925   2.925   0.124   1.385 -0.6467  0.4770  0.4208
  141MOL    H4633926   2.939   7.871   1.155  0.9808  1.0240 -0.2044
  141MOL    H4733927   2.640   7.879   0.846 -0.1797  0.1683  0.0330
  141MOL    H4833928   2.567   0.061   0.964 -1.2665 -0.3504 -0.1564
  141MOL    H4933929   2.551   7.824   0.993 -1.4647  1.4641  0.6728
  141MOL    C5033930   3.016   0.133   1.143 -0.2515  0.0497 -0.0465
  141MOL    C5133931   3.106   0.099   1.021  0.3765  0.1770  0.9434
  141MOL    C5233932   3.214   7.918   1.049  0.1638  0.1624  0.4404
  141MOL    O5333933   3.175   7.807   1.085 -0.5605 -0.3308  0.3058
  141MOL    O5433934   3.336   0.026   1.018 -0.0250 -0.1657 -0.1473
  141MOL    C5533935   3.441   7.861   0.997 -0.1514  0.3610  0.7137
  141MOL    H5633936   2.969   0.230   1.130 -1.8804 -0.3600  2.4356
  141MOL    H5733937   3.075   0.148   1.233 -1.6383 -0.7679  1.0378
  141MOL    H5833938   3.163   0.192   1.023  0.8058 -0.0716  0.3090
  141MOL    H5933939   3.474   7.869   0.893  0.4779 -0.6148  0.8279
  141MOL    H6033940   3.403   7.759   1.012 -4.2733  1.7998  0.6860
  141MOL    H6133941   3.521   7.875   1.069  0.1642  1.0908  0.2261
  141MOL    C6233942   3.034   0.097   0.879  0.1868  0.1402  0.4762
  141MOL    C6333943   3.132   0.098   0.761  0.5770  0.7862  1.0920
  141MOL    C6433944   3.062   0.051   0.637 -0.4469  0.2771  0.1602
  141MOL    O6533945   2.936   0.052   0.629 -0.1967 -0.1995  0.2379
  141MOL    O6633946   3.146   7.913   0.555 -0.2977  0.0169 -0.1688
  141MOL    C6733947   3.085   7.862   0.441 -0.5155 -0.6824  0.4015
  141MOL    H6833948   2.974   0.007   0.869 -0.7317  0.9414 -1.6434
  141MOL    H6933949   2.964   0.182   0.878 -0.3004 -0.2488 -1.8192
  141MOL    H7033950   3.204   0.017   0.770  0.9444  0.9725 -0.0299
  141MOL    H7133951   3.161   7.824   0.372  2.5466  1.6826  2.3426
  141MOL    H7233952   3.034   0.011   0.391 -0.5884 -0.3778  0.9744
  141MOL    H7333953   3.022   7.776   0.464 -0.9598 -0.2722  0.7169
  141MOL    C7433954   3.210   0.229   0.750 -0.4722 -0.0230 -0.6037
  141MOL    C7533955   3.323   0.230   0.638  0.0048 -0.2902  0.4904
  141MOL    C7633956   3.368   0.376   0.630  0.5972 -0.2127 -0.2755
  141MOL    O7733957   3.440   0.432   0.717 -0.6892 -0.0810  0.5160
  141MOL    O7833958   3.328   0.436   0.510  0.4620 -0.4852  0.4086
  141MOL    C7933959   3.377   0.563   0.479  0.3804  0.0448 -0.1443
  141MOL    H8033960   3.139   0.306   0.720 -0.5143  0.0208 -0.3964
  141MOL    H8133961   3.251   0.250   0.848  1.5361 -4.0447 -0.4833
  141MOL    H8233962   3.281   0.202   0.542  1.3769 -0.8500  0.0408
  141MOL    H8333963   3.464   0.593   0.538 -0.8611 -2.3358  3.0582
  141MOL    H8433964   3.294   0.634   0.485  0.2268 -0.0869 -0.7315
  141MOL    H8533965   3.404   0.563   0.374 -0.1715  1.2906 -0.3031
  141MOL    C8633966   3.435   0.132   0.675 -0.0844 -0.0614 -0.0450
  141MOL    C8733967   3.546   0.110   0.567  0.0311 -0.6050 -0.3553
  141MOL    C8833968   3.667   0.203   0.570  0.4801  0.2129 -0.4088
  141MOL    O8933969   3.746   0.198   0.666  0.1470  0.1459  0.6523
  141MOL    O9033970   3.679   0.290   0.471  0.4753  0.3277 -0.0532
  141MOL    C9133971   3.796   0.368   0.454  0.4655 -0.4900  0.4012
  141MOL    H9233972   3.477   0.164   0.771  0.1709 -0.4964 -0.0122
  141MOL    H9333973   3.382   0.037   0.688  1.4216 -0.5801  2.7675
  141MOL    H9433974   3.492   0.130   0.474  2.6305  0.9508 -1.5867
  141MOL    H9533975   3.819   0.433   0.538  0.0202  1.1936 -0.7531
  141MOL    H9633976   3.780   0.431   0.366  0.8909 -0.2168  0.5211
  141MOL    H9733977   3.888   0.314   0.431  0.8788 -0.2544  1.5049
  141MOL    C9833978   3.598   7.895   0.575  0.1320 -0.4217 -0.4081
  141MOL    C9933979   3.704   7.852   0.463  0.4804  0.2787  0.4772
  141MOL   C10033980   3.745   7.707   0.475 -0.4508  0.1412 -0.2739
  141MOL   O10133981   3.863   7.673   0.496  0.2557  0.4614  0.0806
  141MOL   O10233982   3.641   7.624   0.466 -0.1162  0.8521 -0.2042
  141MOL   C10333983   3.664   7.484   0.487 -0.3587  0.0640  0.4583
  141MOL   H10433984   3.645   7.878   0.671  0.2239  0.5654 -0.2661
  141MOL   H10533985   3.511   7.829   0.581  0.7599 -1.3205 -1.0759
  141MOL   H10633986   3.794   7.898   0.503 -0.4218  1.8855  0.7076
  141MOL   H10733987   3.606   7.430   0.411  1.4164  0.1718 -0.9988
  141MOL   H10833988   3.636   7.444   0.584  2.6659 -0.9337  0.9691
  141MOL   H10933989   3.766   7.448   0.479 -0.1673  0.6920  0.0170
  141MOL   C11033990   3.676   7.900   0.323  0.5372  0.0334  0.6451
  141MOL   C11133991   3.797   7.904   0.217  0.1467 -0.1667 -0.4599
  141MOL   C11233992   3.816   7.777   0.126  0.3544 -0.4091  0.8766
  141MOL   O11333993   3.906   7.763   0.048 -0.1017 -0.3052 -0.2680
  141MOL   O11433994   3.720   7.694   0.147 -0.4389 -0.0698  0.0952
  141MOL   C11533995   3.718   7.569   0.078 -0.3383 -0.5467  0.3668
  141MOL   H11633996   3.588   7.858   0.274  0.2091  1.3097  0.1183
  141MOL   H11733997   3.647   0.071   0.337  0.9351  0.1952  0.2580
  141MOL   H11833998   3.888   7.894   0.275  0.7307 -1.2116 -1.5314
  141MOL   H11933999   3.753   7.581   7.908 -2.0311 -0.6982 -0.2456
  141MOL   H12034000   3.618   7.525   0.082 -1.1031  1.0499 -0.5013
  141MOL   H12134001   3.797   7.503   0.114 -0.6438 -0.3549  1.3966
  141MOL   C12234002   3.828   0.104   0.151 -0.4581  0.0150 -0.0982
  141MOL   C12334003   3.711   0.160   0.059 -0.3966  0.9401  0.6291
  141MOL   C12434004   3.673   0.305   0.107  0.5084  0.1737  0.1119
  141MOL   O12534005   3.570   0.322   0.159  0.0778 -0.8152  0.3980
  141MOL   O12634006   3.770   0.394   0.093 -0.8750 -0.0404  0.5202
  141MOL   C12734007   3.739   0.533   0.090  0.1222 -0.6451 -0.0594
  141MOL   H12834008   3.852   0.173   0.232 -1.0249 -1.1188  1.0521
  141MOL   H12934009   3.918   0.094   0.090  0.1459  1.1780  0.5875
  141MOL   H13034010   3.631   0.095   0.092 -0.6091  1.3898  1.0070
  141MOL   H13134011   3.660   0.550   0.017 -0.4021 -1.0603  0.4020
  141MOL   H13234012   3.829   0.591   0.071 -0.7809  0.6544 -0.4302
  141MOL   H13334013   3.690   0.567   0.182  0.1590 -2.3970  0.6300
  141MOL   C13434014   3.743   0.145   7.842 -0.7412  0.1243 -0.0100
  141MOL   C13534015   3.622   0.137   7.737  0.1777  0.2157  0.0081
  141MOL   C13634016   3.560   7.932   7.745 -0.0288  0.1002 -0.0271
  141MOL   O13734017   3.574   7.854   7.652 -0.0870  0.5872  0.1868
  141MOL   O13834018   3.487   7.906   7.855 -0.5308  0.1797 -0.0288
  141MOL   C13934019   3.438   7.778   7.889  0.6260  0.0785 -0.5837
  141MOL   H14034020   3.804   0.228   7.806 -2.5139  0.7381 -1.6828
  141MOL   H14134021   3.806   0.059   7.822 -0.8098  0.1842 -0.4981
  141MOL   H14234022   3.675   0.150   7.643  0.4232  1.7796  0.3550
  141MOL   H14334023   3.441   7.760   0.063  2.5367 -0.9212 -0.7871
  141MOL   H14434024   3.504   7.705   7.842 -0.5120 -0.1075 -1.9335
  141MOL   H14534025   3.334   7.766   7.860  0.5009 -0.9098  0.2442
  141MOL   C14634026   3.525   0.254   7.753  0.1624  0.2144 -0.0222
  141MOL   C14734027   3.438   0.279   7.636 -0.6072  0.2043  0.7260
  141MOL   C14834028   3.321   0.181   7.636 -1.1976  0.4341 -0.7459
  141MOL   O14934029   3.257   0.147   7.734 -0.1430 -0.4114  0.0107
  141MOL   O15034030   3.289   0.141   7.519  0.6173  0.5683 -0.1226
  141MOL   C15134031   3.218   0.022   7.503 -0.3740  0.7371  0.5316
  141MOL   H15234032   3.473   0.255   7.848 -0.8234 -2.0959 -0.4941
  141MOL   H15334033   3.581   0.347   7.761  0.1969  0.3324 -1.4391
  141MOL   H15434034   3.500   0.271   7.547 -3.2061  0.2355 -1.1171
  141MOL   H15534035   3.272   7.869   7.544  0.1433  1.1016  0.6139
  141MOL   H15634036   3.212   7.925   7.399 -3.2490  2.8840  0.0194
  141MOL   H15734037   3.114   0.026   7.536  0.2731  0.9303  2.6416
  141MOL   C15834038   3.383   0.425   7.639  0.1920  0.1207  0.5575
  141MOL   C15934039   3.477   0.541   7.610  0.6339  0.0106 -0.1069
  141MOL   C16034040   3.546   0.518   7.472  1.1417  0.3318  0.2658
  141MOL   O16134041   3.667   0.533   7.465 -0.3986 -0.5355  0.0952
  141MOL   O16234042   3.462   0.500   7.368 -0.0138 -0.0287  0.1612
  141MOL   C16334043   3.516   0.493   7.235 -0.2092  0.2924  0.5491
  141MOL   H16434044   3.302   0.420   7.566 -1.8410  1.4717  2.6718
  141MOL   H16534045   3.325   0.444   7.729  1.3396  1.5422  1.0152
  141MOL   H16634046   3.558   0.546   7.684 -1.9024  4.2895  2.6163
  141MOL   H16734047   3.624   0.480   7.224  0.0808  1.6145  1.6202
  141MOL   H16834048   3.495   0.590   7.189  1.9699  1.3577  1.7573
  141MOL   H16934049   3.463   0.415   7.182 -1.7355  0.5163  1.7113
  141MOL   C17034050   3.404   0.677   7.612  0.4402 -0.3175 -0.5342
  141MOL   C17134051   3.488   0.808   7.569 -0.0799 -0.0087  0.1857
  141MOL   C17234052   3.448   0.887   7.442 -0.7348 -0.5055  0.4550
  141MOL   O17334053   3.413   1.002   7.444 -0.4845  0.8094 -0.2926
  141MOL   O17434054   3.467   0.822   7.333 -0.3392 -0.5842  0.2751
  141MOL   C17534055   3.435   0.870   7.206 -0.8653  0.7757 -0.0036
  141MOL   H17634056   3.319   0.677   7.544 -0.0276 -1.3340  0.0456
  141MOL   H17734057   3.361   0.690   7.712  4.1041 -0.8689  1.2003
  141MOL   H17834058   3.589   0.780   7.541  0.0356  0.2999  0.2889
  141MOL   H17934059   3.396   0.793   7.140 -0.5629 -0.3109  1.0783
  141MOL   H18034060   3.517   0.927   7.161 -0.2770  1.2829  1.6967
  141MOL   H18134061   3.346   0.930   7.223 -1.1773  0.4159 -0.3627
  141MOL   C18234062   3.513   0.902   7.694 -0.8804  1.1091 -0.4586
  141MOL   C18334063   3.606   0.847   7.800 -0.1151 -0.2615 -0.1905
  141MOL   C18434064   3.742   0.828   7.751 -0.2289 -0.5199  0.2727
  141MOL   O18534065   3.800   0.723   7.745 -0.0325  0.0152  0.4599
  141MOL   O18634066   3.789   0.940   7.706 -0.2454 -0.0264  0.5294
  141MOL   C18734067   3.897   0.951   7.620 -0.2358 -0.7943 -0.0088
  141MOL   H18834068   3.569   0.981   7.644  1.0372 -0.4584 -0.8573
  141MOL   H18934069   3.418   0.945   7.725 -0.8796  0.1503  0.9492
  141MOL   H19034070   3.560   0.755   7.836  0.9206 -2.0976 -3.3656
  141MOL   H19134071   3.866   0.928   7.518 -0.7484 -1.7013  0.3472
  141MOL   H19234072   3.987   0.896   7.647 -0.5434  1.1039  5.4664
  141MOL   H19334073   3.926   1.056   7.617  0.4647 -0.9681  0.5432
  141MOL   C19434074   3.606   0.937   7.920 -0.2278  0.5139 -0.2949
  141MOL   C19534075   3.474   0.941   0.072  0.4637  0.9555  0.3686
  141MOL   C19634076   3.437   0.802   0.128 -0.8330 -0.1617  0.0507
  141MOL   O19734077   3.474   0.759   0.241 -0.5581  1.0687 -0.4176
  141MOL   O19834078   3.373   0.736   0.039 -0.7161 -0.5006 -0.0985
  141MOL   C19934079   3.331   0.605   0.063  0.7930 -0.4917  0.7972
  141MOL   H20034080   3.695   0.921   0.048  0.7291  2.3978 -1.1310
  141MOL   H20134081   3.612   1.039   7.881  1.4500  1.3183  1.9711
  141MOL   H20234082   3.389   0.963   0.007  0.5262 -0.1756 -0.1156
  141MOL   H20334083   3.224   0.599   0.083  0.1273  1.2316 -2.0997
  141MOL   H20434084   3.391   0.567   0.146  2.3560  1.1718  0.4558
  141MOL   H20534085   3.361   0.542   7.912  0.7797  0.0087  0.4148
  141MOL   C20634086   3.477   1.052   0.178 -0.2295  0.2528  0.2749
  141MOL   C20734087   3.474   1.198   0.124  0.2981  0.5720  0.0448
  141MOL   C20834088   3.368   1.220   0.023  0.0226 -0.4888 -0.5163
  141MOL   O20934089   3.399   1.269   7.849 -0.4157  0.4062 -0.8449
  141MOL   O21034090   3.250   1.152   0.052  0.2542 -0.8977 -0.5368
  141MOL   C21134091   3.145   1.163   7.896 -0.1851  0.3721 -0.0987
  141MOL   H21234092   3.388   1.031   0.237 -0.5174  1.1601  0.1676
  141MOL   H21334093   3.570   1.039   0.233  0.9856  0.4854 -1.6732
  141MOL   H21434094   3.567   1.225   0.074  1.6692  1.2883  2.8697
  141MOL   H21534095   3.054   1.114   7.930 -0.9631  1.5684 -0.4210
  141MOL   H21634096   3.188   1.109   7.811  1.4896  1.3194  0.1404
  141MOL   H21734097   3.119   1.267   7.873  1.0619  0.1585 -2.6938
  141MOL   C21834098   3.442   1.302   0.241  0.5123  0.1104 -0.6700
  141MOL   C21934099   3.537   1.299   0.366  0.2682 -0.3953  0.2881
  141MOL   C22034100   3.683   1.319   0.324  0.3097  0.5226 -0.7489
  141MOL   O22134101   3.721   1.367   0.222  0.0862 -0.2952  0.4027
  141MOL   O22234102   3.770   1.276   0.414 -0.0556 -0.4052  0.1572
  141MOL   C22334103   3.908   1.287   0.374 -0.4011 -0.1777 -0.4689
  141MOL   H22434104   3.423   1.399   0.195 -2.3606  0.6347  1.5030
  141MOL   H22534105   3.347   1.280   0.290  0.4128 -0.8023 -1.2498
  141MOL   H22634106   3.539   1.200   0.412 -0.6752  0.2115  1.6980
  141MOL   H22734107   3.950   1.386   0.388  1.4892 -0.6206 -2.6306
  141MOL   H22834108   3.929   1.273   0.268 -0.4769  1.1545 -0.6611
  141MOL   H22934109   3.964   1.220   0.438 -1.5690  0.1912  0.9616
  141MOL   C23034110   3.487   1.391   0.471 -0.5776 -0.4542 -0.5474
  141MOL   C23134111   3.380   1.329   0.560  0.1345  0.0681  0.3160
  141MOL   C23234112   3.328   1.424   0.662 -0.5809  0.4767 -0.4711
  141MOL   O23334113   3.371   1.412   0.780 -0.1015 -0.4653  0.3920
  141MOL   O23434114   3.233   1.499   0.613 -0.5490  0.0583  0.3465
  141MOL   C23534115   3.135   1.556   0.705 -0.6151 -0.1223 -0.6280
  141MOL   H23634116   3.570   1.422   0.534  0.8616  1.4498 -3.2699
  141MOL   H23734117   3.457   1.484   0.423  1.9202  1.1324  0.8589
  141MOL   H23834118   3.422   1.243   0.612  2.2160  2.1118  2.0645
  141MOL   H23934119   3.092   1.650   0.669  0.8436  0.9755  0.4669
  141MOL   H24034120   3.190   1.570   0.797 -0.7130 -2.8507 -0.1113
  141MOL   H24134121   3.065   1.484   0.748 -1.3998 -0.1976 -1.9741
  141MOL   H24234122   3.297   1.286   0.502  0.9585  0.9559 -1.5555
  142MOL     C134123   2.246   7.310   2.611 -0.2235 -0.2169 -0.6150
  142MOL     C234124   2.245   7.450   2.558 -0.1606  0.2609 -0.5599
  142MOL     C334125   2.267   7.551   2.670 -0.1453  0.5131 -0.2154
  142MOL     O434126   2.179   7.637   2.690 -0.4083  0.2787 -0.1638
  142MOL     O534127   2.378   7.535   2.737  0.1030 -0.2965 -0.3681
  142MOL     C634128   2.403   7.622   2.849 -0.2721  0.4560 -0.4544
  142MOL     H734129   2.228   7.253   2.520 -1.4301  1.4031 -1.4222
  142MOL     H834130   2.169   7.291   2.685  1.0488 -1.1559  0.4773
  142MOL     H934131   2.150   7.474   2.510 -1.2388  0.1531  1.4695
  142MOL    H1034132   2.498   7.599   2.897 -0.7627 -0.2190  0.1981
  142MOL    H1134133   2.332   7.616   2.931  2.4003 -3.4020  1.7037
  142MOL    H1234134   2.406   7.724   2.809 -1.0038  0.8745  0.5435
  142MOL    H1334135   2.341   7.274   2.649 -0.6816  0.6248  1.3749
  142MOL    C1434136   2.349   7.466   2.441 -0.4146 -0.3892 -0.6936
  142MOL    C1534137   2.361   7.610   2.381 -0.1917  0.0419  0.0938
  142MOL    C1634138   2.438   7.711   2.472 -0.0306  0.3560 -0.2590
  142MOL    O1734139   2.385   7.811   2.524  0.8115 -0.0062 -0.8144
  142MOL    O1834140   2.568   7.672   2.495 -1.0376 -0.4147 -0.0214
  142MOL    C1934141   2.637   7.764   2.580  0.4189 -0.4114 -0.0169
  142MOL    H2034142   2.447   7.423   2.458 -0.5611 -1.2952 -2.1125
  142MOL    H2134143   2.306   7.404   2.363 -1.0059  1.8972 -2.2362
  142MOL    H2234144   2.258   7.645   2.379 -0.3980 -0.5453  0.3242
  142MOL    H2334145   2.636   7.865   2.537  0.7025  0.8338  2.8160
  142MOL    H2434146   2.741   7.735   2.590 -0.0039 -1.9541  0.0333
  142MOL    H2534147   2.596   7.774   2.680 -0.8137 -0.6216 -0.4869
  142MOL    C2634148   2.419   7.600   2.230  0.3717  0.6107 -0.6380
  142MOL    C2734149   2.316   7.584   2.114 -0.0093 -0.2159 -0.2177
  142MOL    C2834150   2.202   7.687   2.121 -0.1789 -0.1439  0.2367
  142MOL    O2934151   2.079   7.662   2.097 -0.1712 -0.0920 -0.3046
  142MOL    O3034152   2.258   7.805   2.122 -0.6935  0.7224 -0.3016
  142MOL    C3134153   2.169   7.920   2.108  0.5504  0.7393  0.7058
  142MOL    H3234154   2.486   7.681   2.198 -1.2491  1.9210 -0.7768
  142MOL    H3334155   2.485   7.514   2.235 -0.2650  0.1225 -0.6130
  142MOL    H3434156   2.270   7.487   2.134 -0.9463  0.4001  0.6783
  142MOL    H3534157   2.223   0.069   2.156  1.5326  0.4645  0.0960
  142MOL    H3634158   2.083   7.911   2.174  2.6559  2.3203  3.7940
  142MOL    H3734159   2.157   0.010   2.003 -0.4893  2.2322  1.1381
  142MOL    C3834160   2.375   7.567   1.972  0.1368 -0.1146 -0.7351
  142MOL    C3934161   2.269   7.530   1.865  0.1599 -0.0564 -0.1412
  142MOL    C4034162   2.317   7.586   1.731  0.6479 -0.2249  0.3334
  142MOL    O4134163   2.384   7.515   1.653 -0.1547 -0.3886  0.2265
  142MOL    O4234164   2.284   7.712   1.708  0.0238  0.9691 -0.0338
  142MOL    C4334165   2.337   7.769   1.591 -0.1069 -0.5468  0.6725
  142MOL    H4434166   2.401   7.666   1.936 -0.5512 -0.3840 -2.0123
  142MOL    H4534167   2.455   7.494   1.964  1.5037  1.4705 -1.9333
  142MOL    H4634168   2.175   7.580   1.888  0.3389 -0.5732  1.8057
  142MOL    H4734169   2.301   7.712   1.506 -0.2175 -0.1434  0.4508
  142MOL    H4834170   2.446   7.773   1.588 -0.1137 -0.3557  0.6827
  142MOL    H4934171   2.317   7.876   1.591  0.6359 -0.3991  1.5431
  142MOL    C5034172   2.250   7.371   1.859 -0.0038  0.0196  0.0683
  142MOL    C5134173   2.137   7.320   1.758 -0.3486 -0.3886  1.3718
  142MOL    C5234174   2.188   7.217   1.656 -0.1130 -0.1111  0.3343
  142MOL    O5334175   2.282   7.145   1.675 -0.1570  0.5808  0.2844
  142MOL    O5434176   2.100   7.203   1.552 -0.0299 -0.1925 -0.1922
  142MOL    C5534177   2.135   7.115   1.443 -0.2476  0.4565 -0.4416
  142MOL    H5634178   2.339   7.323   1.820 -0.8367 -1.6593  0.1740
  142MOL    H5734179   2.239   7.333   1.961  2.3182 -1.3186 -0.1487
  142MOL    H5834180   2.124   7.411   1.699  0.1110 -1.6638 -0.7332
  142MOL    H5934181   2.140   7.014   1.483  0.0140  0.4470 -0.4952
  142MOL    H6034182   2.232   7.138   1.397  1.2951 -1.6560  1.6831
  142MOL    H6134183   2.056   7.113   1.368 -2.9953 -0.8820  2.3793
  142MOL    C6234184   2.001   7.285   1.828  0.4475  0.2194 -0.5458
  142MOL    C6334185   1.935   7.397   1.914 -0.2626 -0.9564  0.6206
  142MOL    C6434186   1.868   7.501   1.832  0.3089  0.3831  0.3595
  142MOL    O6534187   1.751   7.487   1.792 -0.9214  0.1280  0.0974
  142MOL    O6634188   1.944   7.609   1.806  0.2755 -0.6177 -0.3046
  142MOL    C6734189   1.902   7.713   1.723  0.0675  0.5637 -0.8918
  142MOL    H6834190   1.938   7.237   1.753  1.6516  0.4754 -1.7403
  142MOL    H6934191   2.037   7.209   1.897  0.0673  0.2376 -0.3270
  142MOL    H7034192   2.014   7.452   1.965 -1.1965  0.5817  0.4082
  142MOL    H7134193   1.939   7.706   1.621 -0.1882  1.9134 -1.0929
  142MOL    H7234194   1.946   7.808   1.755 -0.0016  0.0937  0.6322
  142MOL    H7334195   1.795   7.724   1.739  0.6079  0.5355  3.2573
  142MOL    C7434196   1.828   7.325   2.007  0.1179 -0.5407 -0.0283
  142MOL    C7534197   1.893   7.260   2.130  0.2025 -0.3739  0.5022
  142MOL    C7634198   1.954   7.363   2.222  0.1406  0.1990 -0.0438
  142MOL    O7734199   2.075   7.367   2.243  0.3180  0.2786 -0.2596
  142MOL    O7834200   1.862   7.440   2.283  0.0728  0.5380 -0.0721
  142MOL    C7934201   1.894   7.545   2.373  0.3475  0.0485 -0.3009
  142MOL    H8034202   1.760   7.397   2.050  0.9435  0.4238 -0.3273
  142MOL    H8134203   1.765   7.254   1.954 -1.8261  1.7151 -0.7707
  142MOL    H8234204   1.976   7.197   2.099 -0.7054 -1.2201 -0.2495
  142MOL    H8334205   1.929   7.499   2.465 -2.1681 -0.3147  0.5371
  142MOL    H8434206   1.807   7.610   2.389  0.4468  0.3528 -0.9623
  142MOL    H8534207   1.970   7.603   2.321  1.0290  0.1567  0.8238
  142MOL    C8634208   1.793   7.162   2.191 -0.4558 -0.8500 -0.6821
  142MOL    C8734209   1.845   7.050   2.283 -0.3771  0.1079  0.4352
  142MOL    C8834210   1.897   7.099   2.413  0.7403 -0.0528  0.3849
  142MOL    O8934211   2.010   7.064   2.451  0.5475  0.2695  0.2759
  142MOL    O9034212   1.817   7.191   2.472 -0.4538  0.3262  0.3177
  142MOL    C9134213   1.858   7.261   2.597 -0.3468  0.2857 -0.5862
  142MOL    H9234214   1.708   7.218   2.229  0.1943 -0.9212  0.9246
  142MOL    H9334215   1.754   7.110   2.104 -2.6001  0.5846 -0.6119
  142MOL    H9434216   1.926   6.994   2.237 -1.0757 -0.7456  0.2364
  142MOL    H9534217   1.796   7.349   2.613  1.3721  1.1505  1.5602
  142MOL    H9634218   1.961   7.294   2.581 -0.2266  0.5352  0.7104
  142MOL    H9734219   1.855   7.194   2.682  0.3206  0.2852 -0.5604
  142MOL    C9834220   1.738   6.949   2.318 -0.2439  0.3722  0.7907
  142MOL    C9934221   1.662   6.871   2.210  0.5882 -0.5268 -0.6638
  142MOL   C10034222   1.764   6.805   2.109 -0.2987 -0.4729  0.2812
  142MOL   O10134223   1.734   6.811   1.993 -0.0107 -0.2588  0.1474
  142MOL   O10234224   1.859   6.738   2.168 -0.1108 -1.1063  0.1498
  142MOL   C10334225   1.959   6.663   2.092  0.0085  1.0587 -0.5161
  142MOL   H10434226   1.772   6.871   2.386  2.0861  1.0785  0.4614
  142MOL   H10534227   1.658   6.998   2.374  0.3062  0.0204  1.8799
  142MOL   H10634228   1.590   6.941   2.168 -0.7562 -0.5710  1.5240
  142MOL   H10734229   2.052   6.720   2.101  1.0634 -0.7938  0.7173
  142MOL   H10834230   1.934   6.660   1.986 -0.1984 -2.1451 -0.4398
  142MOL   H10934231   1.993   6.566   2.129  4.1140  1.5020 -2.8600
  142MOL   C11034232   1.565   6.760   2.259  0.0546  0.3664  0.1453
  142MOL   C11134233   1.451   6.722   2.161  0.8030  1.0384  0.1310
  142MOL   C11234234   1.440   6.572   2.139  0.0059  0.2828 -0.9922
  142MOL   O11334235   1.334   6.512   2.139 -0.3753 -0.1343 -0.5390
  142MOL   O11434236   1.559   6.528   2.111  0.1280 -0.2645  0.5589
  142MOL   C11534237   1.574   6.395   2.074 -0.1379 -0.8062 -0.6811
  142MOL   H11634238   1.633   6.678   2.283  0.3346  0.0672 -1.6604
  142MOL   H11734239   1.527   6.780   2.360  1.5120 -0.2071  0.8168
  142MOL   H11834240   1.478   6.750   2.059  0.8552 -1.7977 -0.6954
  142MOL   H11934241   1.673   6.365   2.110  0.0202  0.0875 -0.3815
  142MOL   H12034242   1.564   6.385   1.966 -1.6130 -2.1401 -0.4473
  142MOL   H12134243   1.501   6.332   2.126 -0.3747  1.5688  1.9949
  142MOL   C12234244   1.315   6.792   2.210  0.2492  0.6017 -0.5497
  142MOL   C12334245   1.342   6.943   2.233 -0.8635 -0.3167  0.2297
  142MOL   C12434246   1.358   7.009   2.094 -0.3345  0.2106  0.0451
  142MOL   O12534247   1.345   6.948   1.987  0.7478 -0.2082 -0.5162
  142MOL   O12634248   1.383   7.140   2.101 -0.6079  0.5053 -0.5265
  142MOL   C12734249   1.406   7.209   1.977 -0.6522  0.3096  0.6927
  142MOL   H12834250   1.234   6.780   2.138  0.1377  1.3862 -0.5581
  142MOL   H12934251   1.284   6.753   2.307  1.7964  2.2066  0.6069
  142MOL   H13034252   1.437   6.958   2.284  0.0216 -1.2997 -1.0764
  142MOL   H13134253   1.438   7.311   2.000  0.5584  0.6819 -2.4518
  142MOL   H13234254   1.318   7.200   1.914 -0.4106 -0.4463  0.4625
  142MOL   H13334255   1.492   7.173   1.921 -0.0464  3.8271 -0.7883
  142MOL   C13434256   1.224   7.011   2.316 -0.5265 -0.4827  0.4239
  142MOL   C13534257   1.252   7.158   2.370  0.6927 -0.5611  0.8313
  142MOL   C13634258   1.115   7.223   2.419  0.0641  0.1973 -0.1632
  142MOL   O13734259   1.056   7.302   2.351  0.2417  0.6452  0.0005
  142MOL   O13834260   1.059   7.155   2.517  0.7068  0.5242  0.3297
  142MOL   C13934261   0.924   7.183   2.546  0.1906  0.6939 -0.1066
  142MOL   H14034262   1.136   7.009   2.251  0.4386 -2.5216 -0.8598
  142MOL   H14134263   1.203   6.952   2.405  0.0128 -0.2890  0.6823
  142MOL   H14234264   1.279   7.224   2.288  2.0400 -1.1243  0.8147
  142MOL   H14334265   0.846   7.155   2.475 -0.2408 -3.2129  1.8072
  142MOL   H14434266   0.905   7.287   2.573 -2.7694 -0.3814  2.2604
  142MOL   H14534267   0.889   7.120   2.627  0.1865  0.3522 -0.3733
  142MOL   C14634268   1.361   7.159   2.479 -0.3933  0.1502 -0.0031
  142MOL   C14734269   1.398   7.297   2.527 -0.3554 -0.2114 -0.2269
  142MOL   C14834270   1.474   7.273   2.663  0.1692  0.3170  0.2442
  142MOL   O14934271   1.466   7.171   2.734  0.4992  0.3739 -0.0288
  142MOL   O15034272   1.545   7.373   2.700  0.0365 -0.2520 -0.4969
  142MOL   C15134273   1.611   7.373   2.824 -0.0923 -0.0292 -0.2029
  142MOL   H15234274   1.325   7.093   2.559 -0.3308  2.2873  1.8489
  142MOL   H15334275   1.444   7.105   2.432 -0.6305  1.5110 -2.0228
  142MOL   H15434276   1.310   7.355   2.554 -0.5771 -0.8789  0.4932
  142MOL   H15534277   1.677   7.287   2.837  1.3163  1.0321 -0.2652
  142MOL   H15634278   1.540   7.381   2.907 -2.3063 -1.3923 -1.8833
  142MOL   H15734279   1.670   7.464   2.830 -0.8004  0.6167 -2.4807
  142MOL   C15834280   1.470   7.383   2.423  0.6515 -0.2609 -0.2634
  142MOL   C15934281   1.446   7.534   2.444  1.1774 -0.3041 -0.3982
  142MOL   C16034282   1.522   7.609   2.330  0.3303  0.1827 -0.0199
  142MOL   O16134283   1.571   7.718   2.362  0.5738  0.1980  0.4218
  142MOL   O16234284   1.527   7.541   2.210  0.0023  0.1906 -0.7562
  142MOL   C16334285   1.595   7.604   2.101 -0.4853  0.1122 -0.2379
  142MOL   H16434286   1.574   7.351   2.426  0.7324  0.1126  1.0822
  142MOL   H16534287   1.434   7.346   2.327 -0.1036 -2.1154  0.7036
  142MOL   H16634288   1.496   7.566   2.535  1.1121 -0.2041 -0.3979
  142MOL   H16734289   1.549   7.702   2.084 -1.0957 -0.3762 -1.4323
  142MOL   H16834290   1.596   7.550   2.007 -0.3318  0.5017 -0.4645
  142MOL   H16934291   1.695   7.628   2.139 -0.3412 -0.2529 -0.3948
  142MOL   C17034292   1.303   7.574   2.433 -0.5779  0.2116  0.8698
  142MOL   C17134293   1.233   7.640   2.548  0.2158 -0.6124 -0.0967
  142MOL   C17234294   1.212   7.552   2.678 -0.2073  0.1541  0.2024
  142MOL   O17334295   1.132   7.463   2.677 -0.5426 -0.1370  0.3206
  142MOL   O17434296   1.288   7.583   2.782  0.1134  0.3417  0.1008
  142MOL   C17534297   1.269   7.520   2.902 -0.0774  0.6513  0.1792
  142MOL   H17634298   1.297   7.650   2.355  2.6944 -0.8838 -0.5285
  142MOL   H17734299   1.239   7.497   2.389  0.1883 -0.4770  0.9470
  142MOL   H17834300   1.132   7.660   2.512  0.5246 -1.5417 -1.4880
  142MOL   H17934301   1.181   7.562   2.951  0.0497  1.0613  0.0523
  142MOL   H18034302   1.348   7.551   2.971  0.7835 -2.2058  0.5523
  142MOL   H18134303   1.267   7.411   2.890 -0.6444  0.7447 -0.5865
  142MOL   C18234304   1.299   7.783   2.576  0.3303  0.3271 -0.1251
  142MOL   C18334305   1.294   7.894   2.468  0.7372 -0.2482 -0.9528
  142MOL   C18434306   1.148   7.927   2.443 -0.0701 -0.3799  0.2181
  142MOL   O18534307   1.097   7.892   2.335  0.6338 -0.3858  0.0520
  142MOL   O18634308   1.088   0.061   2.541 -0.0986  0.3007 -0.0656
  142MOL   C18734309   0.964   0.131   2.506 -0.4663 -0.1681 -0.3226
  142MOL   H18834310   1.255   7.816   2.670  1.1818  2.3834 -0.4191
  142MOL   H18934311   1.403   7.759   2.599  0.0826 -1.3431 -0.6796
  142MOL   H19034312   1.334   7.860   2.371  1.8517  1.3192 -1.0602
  142MOL   H19134313   0.979   0.201   2.424  2.6550 -0.5252 -0.1000
  142MOL   H19234314   0.919   0.175   2.595 -0.3313 -2.7236  1.0672
  142MOL   H19334315   0.898   0.055   2.464 -1.0352  0.9833 -1.5364
  142MOL   C19434316   1.375   0.083   2.522 -0.1382 -0.2051 -0.7385
  142MOL   C19534317   1.400   0.208   2.438  0.0670 -0.4081 -0.0815
  142MOL   C19634318   1.483   0.314   2.518  0.7751  0.1706 -0.7311
  142MOL   O19734319   1.496   0.309   2.644 -0.8922 -0.2082  0.9889
  142MOL   O19834320   1.534   0.410   2.442 -0.3527  0.5084 -0.4003
  142MOL   C19934321   1.605   0.518   2.512  0.2110  0.4024 -1.0552
  142MOL   H20034322   1.333   0.129   2.611 -0.3798 -1.5503 -0.1437
  142MOL   H20134323   1.471   0.040   2.548  0.7049  2.2550  0.4185
  142MOL   H20234324   1.305   0.253   2.411  1.0860  1.1371 -1.1863
  142MOL   H20334325   1.685   0.484   2.578 -0.0309  1.1181 -0.3864
  142MOL   H20434326   1.540   0.579   2.574 -0.0501 -3.6070  2.8992
  142MOL   H20534327   1.637   0.590   2.438  0.4470 -0.1589 -1.5022
  142MOL   C20634328   1.466   0.185   2.301 -0.1636  0.6552 -0.8407
  142MOL   C20734329   1.380   0.146   2.180  0.5280 -0.0959 -0.3793
  142MOL   C20834330   1.278   0.256   2.147 -0.4877 -0.2200  0.0928
  142MOL   O20934331   1.160   0.255   2.178  0.9147 -0.3318 -0.1243
  142MOL   O21034332   1.350   0.350   2.084  0.0204  0.0451 -0.4640
  142MOL   C21134333   1.291   0.469   2.043 -0.5082  0.0883 -0.7488
  142MOL   H21234334   1.522   0.270   2.261  0.5078 -0.1813 -1.7011
  142MOL   H21334335   1.543   0.110   2.319 -1.0517 -0.6272 -2.2150
  142MOL   H21434336   1.321   0.058   2.204  0.0309  0.7699  1.7003
  142MOL   H21534337   1.205   0.451   1.979 -1.9490  1.9700  0.5849
  142MOL   H21634338   1.365   0.526   1.988 -1.8909  1.2661 -1.4119
  142MOL   H21734339   1.253   0.526   2.128  0.1310  0.3120 -0.6146
  142MOL   C21834340   1.473   0.107   2.061 -0.1397  0.2152  0.2156
  142MOL   C21934341   1.389   0.079   1.932 -0.2280  0.0120 -0.3697
  142MOL   C22034342   1.463   0.143   1.809  0.2997  0.6252 -0.0496
  142MOL   O22134343   1.411   0.226   1.731  0.1810  0.0950 -0.3706
  142MOL   O22234344   1.591   0.090   1.793  0.0612  0.1365 -0.3335
  142MOL   C22334345   1.671   0.147   1.690 -0.5895 -0.5034 -0.2880
  142MOL   H22434346   1.542   0.190   2.042  1.2163 -0.4518  2.1015
  142MOL   H22534347   1.538   0.022   2.078 -0.1151  0.3585  0.8425
  142MOL   H22634348   1.296   0.135   1.923 -0.5673  0.2172  3.7783
  142MOL   H22734349   1.739   0.072   1.649 -1.5196 -1.1318 -0.6924
  142MOL   H22834350   1.739   0.224   1.727 -0.1678  0.0144 -2.0758
  142MOL   H22934351   1.622   0.190   1.602 -1.9689  0.4463  0.9219
  142MOL   C23034352   1.375   7.868   1.900 -0.1809  0.4314 -0.5328
  142MOL   C23134353   1.297   7.796   2.015  0.6727 -0.4808 -0.2109
  142MOL   C23234354   1.285   7.648   1.985 -1.1406 -0.1830 -0.0714
  142MOL   O23334355   1.336   7.600   1.881  0.1143  0.0898 -0.0975
  142MOL   O23434356   1.215   7.584   2.083 -0.0068 -0.1130 -0.1156
  142MOL   C23534357   1.201   7.442   2.085 -0.1599 -0.6662 -0.5148
  142MOL   H23634358   1.334   7.849   1.800  1.1684  0.8726 -1.1767
  142MOL   H23734359   1.470   7.816   1.897 -0.2942  0.2552 -1.2338
  142MOL   H23834360   1.198   7.842   2.015 -0.1489 -2.2274  0.2748
  142MOL   H23934361   1.122   7.422   2.158 -0.2841  3.2013  0.5186
  142MOL   H24034362   1.292   7.395   2.123  0.3381 -0.2689 -1.2040
  142MOL   H24134363   1.173   7.395   1.990  1.7517 -1.0924 -0.8793
  142MOL   H24234364   1.342   7.808   2.114  1.1745  1.0466 -0.6120
  143MOL     C134365   5.958   5.762   1.829  0.0675 -0.3031  0.0692
  143MOL     C234366   5.835   5.820   1.762 -0.2766  1.0381  0.0299
  143MOL     C334367   5.786   5.724   1.654  0.7056  0.4550 -0.1385
  143MOL     O434368   5.696   5.640   1.680  0.3572  0.2062 -0.3511
  143MOL     O534369   5.846   5.756   1.536 -0.4581  0.4108  0.1434
  143MOL     C634370   5.811   5.664   1.440 -0.6380 -0.2277 -0.4297
  143MOL     H734371   5.930   5.679   1.895  0.6473 -0.1652  0.4985
  143MOL     H834372   6.006   5.833   1.896  1.1928  2.1507 -3.2427
  143MOL     H934373   5.854   5.914   1.709 -2.1352  0.9762 -0.7543
  143MOL    H1034374   5.885   5.669   1.361  0.2393 -0.2662  0.3817
  143MOL    H1134375   5.710   5.678   1.401 -2.2440 -1.2829  3.1161
  143MOL    H1234376   5.811   5.563   1.480 -0.5576  0.7752  2.2252
  143MOL    H1334377   6.036   5.747   1.755 -1.5294 -0.0776 -1.6883
  143MOL    C1434378   5.720   5.856   1.865 -1.0340 -0.4310  0.1318
  143MOL    C1534379   5.764   5.972   1.964  0.0598 -0.2689 -0.0552
  143MOL    C1634380   5.764   6.101   1.871 -0.5424  0.5956  0.1042
  143MOL    O1734381   5.665   6.167   1.845  0.4170  0.7752  0.2084
  143MOL    O1834382   5.884   6.129   1.827  0.2616 -0.2529  0.2066
  143MOL    C1934383   5.917   6.262   1.784 -0.2797 -0.7044  0.0438
  143MOL    H2034384   5.631   5.865   1.804 -0.7269 -1.1806 -0.4293
  143MOL    H2134385   5.706   5.774   1.936 -0.9448  0.6740  1.4537
  143MOL    H2234386   5.866   5.943   1.988  0.2922 -1.4648 -2.3759
  143MOL    H2334387   5.997   6.315   1.836  0.4865 -1.6199 -0.1967
  143MOL    H2434388   5.832   6.330   1.787  0.4166  0.1487  0.9959
  143MOL    H2534389   5.949   6.251   1.680 -0.0779 -2.4020  0.2839
  143MOL    C2634390   5.674   5.977   2.091  0.0638 -0.0902  0.5508
  143MOL    C2734391   5.722   6.082   2.193  0.0562 -0.4146 -0.9915
  143MOL    C2834392   5.608   6.122   2.291  0.4340 -0.2844  0.0672
  143MOL    O2934393   5.568   6.051   2.382  1.2785 -0.3926  0.3000
  143MOL    O3034394   5.567   6.242   2.264  0.2911  0.2843 -0.1619
  143MOL    C3134395   5.461   6.294   2.342 -0.0885  0.7186  0.9352
  143MOL    H3234396   5.578   5.998   2.044 -0.2490 -2.4808  0.0579
  143MOL    H3334397   5.667   5.876   2.131  1.1047 -0.7441 -0.8792
  143MOL    H3434398   5.737   6.173   2.136 -0.7564  1.5264  1.8249
  143MOL    H3534399   5.498   6.333   2.437  1.3600 -1.0054  1.1081
  143MOL    H3634400   5.391   6.214   2.364  1.3177 -0.8310 -0.0449
  143MOL    H3734401   5.406   6.370   2.286 -0.6706  0.6352  1.3892
  143MOL    C3834402   5.852   6.030   2.270  0.0236  0.7246  1.0849
  143MOL    C3934403   5.904   6.117   2.384  0.2807 -0.0068  0.3078
  143MOL    C4034404   6.012   6.042   2.463 -0.3413 -0.2660 -0.0753
  143MOL    O4134405   6.009   6.037   2.587  0.1917 -0.3393  0.2544
  143MOL    O4234406   6.118   6.002   2.379  0.1399  0.0577  0.2219
  143MOL    C4334407   6.218   5.922   2.438 -0.3198  0.2187  0.1193
  143MOL    H4434408   5.835   5.929   2.309  0.7950  0.6353  1.1956
  143MOL    H4534409   5.934   6.017   2.200  1.0036  1.9189  2.0184
  143MOL    H4634410   5.826   6.117   2.461 -0.1851 -1.3663 -0.1619
  143MOL    H4734411   6.184   5.820   2.427 -0.9609  0.4711 -0.2538
  143MOL    H4834412   6.235   5.941   2.544  0.6290  0.6719 -0.1023
  143MOL    H4934413   6.319   5.934   2.399 -0.9829  1.0252 -1.3994
  143MOL    C5034414   5.943   6.266   2.355  0.2995 -0.6281 -0.0591
  143MOL    C5134415   6.031   6.297   2.228  0.1101  0.5628  0.1403
  143MOL    C5234416   5.980   6.424   2.151 -0.1885  0.6114  0.0941
  143MOL    O5334417   6.057   6.509   2.119 -0.2290 -0.3941 -0.1489
  143MOL    O5434418   5.851   6.414   2.113 -0.0366 -0.2442 -0.4026
  143MOL    C5534419   5.797   6.507   2.027  0.1042 -0.3724  0.6334
  143MOL    H5634420   5.847   6.318   2.348 -0.1690 -1.5695 -0.8090
  143MOL    H5734421   5.983   6.313   2.445 -0.0100 -1.3459  0.4608
  143MOL    H5834422   6.014   6.220   2.153 -0.4087  1.6927 -0.9348
  143MOL    H5934423   5.820   6.613   2.040  2.8304 -0.9103  0.4905
  143MOL    H6034424   5.688   6.509   2.033  0.1241 -0.1945  0.9200
  143MOL    H6134425   5.819   6.486   1.922 -0.3359 -1.2740  0.7139
  143MOL    C6234426   6.186   6.297   2.253 -0.1241 -0.2079  0.0774
  143MOL    C6334427   6.278   6.245   2.141 -0.4510  0.2931  0.0796
  143MOL    C6434428   6.424   6.286   2.174 -0.4610  0.0338  0.6520
  143MOL    O6534429   6.459   6.299   2.290 -0.5389  0.8851  0.0126
  143MOL    O6634430   6.500   6.301   2.060 -0.2232 -0.2426  0.6490
  143MOL    C6734431   6.637   6.331   2.082 -0.5355  0.5647 -0.2548
  143MOL    H6834432   6.207   6.400   2.283  0.7547 -0.8858  1.8268
  143MOL    H6934433   6.211   6.237   2.340 -1.2873 -0.1131  0.4912
  143MOL    H7034434   6.252   6.301   2.050  2.2527 -2.8896 -2.7857
  143MOL    H7134435   6.686   6.245   2.128  0.0978  0.6763 -0.7236
  143MOL    H7234436   6.647   6.418   2.147  1.9052 -0.5338  0.9190
  143MOL    H7334437   6.688   6.371   1.995 -0.2371  1.1140  0.1708
  143MOL    C7434438   6.264   6.091   2.120 -0.2616 -1.0699  1.2461
  143MOL    C7534439   6.334   6.036   1.993  0.2269  0.0821 -0.2586
  143MOL    C7634440   6.339   5.879   2.009 -0.6582 -0.6462  0.9461
  143MOL    O7734441   6.440   5.828   1.971 -0.0254  0.2453 -0.7255
  143MOL    O7834442   6.237   5.813   2.055 -0.0979  0.2912 -0.4014
  143MOL    C7934443   6.249   5.672   2.096  0.2957  0.1043 -0.0656
  143MOL    H8034444   6.304   6.052   2.214  0.5928 -0.8511  0.9737
  143MOL    H8134445   6.159   6.062   2.117 -0.1792 -1.3538  1.1073
  143MOL    H8234446   6.439   6.066   2.004  0.1953 -0.1784  0.8865
  143MOL    H8334447   6.312   5.616   2.027  1.0792  1.3172 -0.3621
  143MOL    H8434448   6.158   5.613   2.092 -1.0800  2.2141 -0.4682
  143MOL    H8534449   6.288   5.666   2.198 -1.2447 -1.7243  0.4304
  143MOL    C8634450   6.262   6.075   1.855 -0.2393  0.6048 -0.5721
  143MOL    C8734451   6.347   6.039   1.729 -0.5767  0.0133 -0.6964
  143MOL    C8834452   6.263   5.999   1.611 -0.5261  0.1357  0.0956
  143MOL    O8934453   6.144   6.039   1.599 -0.1722  0.1625  0.1529
  143MOL    O9034454   6.331   5.934   1.521  0.8543  0.4348  0.1860
  143MOL    C9134455   6.260   5.881   1.411  0.8023 -0.1108 -0.1144
  143MOL    H9234456   6.163   6.031   1.856  0.7116 -1.6561 -1.9634
  143MOL    H9334457   6.246   6.182   1.867 -2.7839 -0.0042  2.0676
  143MOL    H9434458   6.385   5.939   1.747  0.0496  0.0643 -1.7115
  143MOL    H9534459   6.162   5.837   1.430  1.1380  0.0466  2.1876
  143MOL    H9634460   6.317   5.795   1.376  0.1431 -0.1537 -1.0988
  143MOL    H9734461   6.249   5.945   1.324 -2.3639 -1.5900 -0.8721
  143MOL    C9834462   6.468   6.135   1.694  0.1572 -0.1484  0.8219
  143MOL    C9934463   6.422   6.281   1.643  0.3780  0.0124 -0.1552
  143MOL   C10034464   6.506   6.394   1.708  0.4111 -0.2934  0.1332
  143MOL   O10134465   6.620   6.377   1.742 -0.2578 -0.3136  0.1363
  143MOL   O10234466   6.442   6.508   1.725 -0.1336  0.1123 -0.3029
  143MOL   C10334467   6.516   6.612   1.782  0.2492  0.1889 -0.1882
  143MOL   H10434468   6.535   6.141   1.779 -0.5464  0.1056  1.3600
  143MOL   H10534469   6.527   6.088   1.615  1.3848 -2.1444  2.8571
  143MOL   H10634470   6.320   6.290   1.680  0.4852  0.1984  0.0889
  143MOL   H10734471   6.525   6.597   1.890  1.2917  1.7869 -0.0379
  143MOL   H10834472   6.465   6.709   1.777  0.2290  0.3110  1.9198
  143MOL   H10934473   6.618   6.619   1.746  0.9119 -3.5574  0.7255
  143MOL   C11034474   6.413   6.290   1.483  0.4131  0.0432  0.7397
  143MOL   C11134475   6.347   6.409   1.418 -0.4290  0.1158 -0.0643
  143MOL   C11234476   6.425   6.452   1.296  0.2699 -0.5413 -0.5809
  143MOL   O11334477   6.505   6.546   1.296  0.0382  0.4877  0.8648
  143MOL   O11434478   6.397   6.377   1.188 -0.2978  0.6139 -0.4059
  143MOL   C11534479   6.459   6.420   1.067  0.2256 -0.1596  0.6968
  143MOL   H11634480   6.515   6.286   1.445 -0.4488 -0.3602 -1.6156
  143MOL   H11734481   6.368   6.194   1.457 -0.4047  0.2953  1.2101
  143MOL   H11834482   6.352   6.496   1.484  1.5113  1.2336 -1.6494
  143MOL   H11934483   6.451   6.342   0.991 -1.7598  1.5297 -0.8771
  143MOL   H12034484   6.561   6.459   1.075  0.9434 -2.0400  0.8451
  143MOL   H12134485   6.411   6.510   1.028  2.1633  0.0291 -1.3332
  143MOL   C12234486   6.193   6.384   1.396 -0.0259 -0.2629  0.4469
  143MOL   C12334487   6.088   6.499   1.406  0.2696  0.1068  0.0217
  143MOL   C12434488   6.064   6.534   1.552  0.6793 -0.1668 -0.3461
  143MOL   O12534489   5.950   6.517   1.600  0.7860 -0.2671 -0.6908
  143MOL   O12634490   6.167   6.595   1.619 -0.3958  0.3391  0.2358
  143MOL   C12734491   6.141   6.636   1.750 -0.4476  0.2656  0.3867
  143MOL   H12834492   6.179   6.334   1.300 -1.4264  1.0532 -0.0639
  143MOL   H12934493   6.169   6.299   1.460 -0.7079 -0.4090  0.0076
  143MOL   H13034494   5.996   6.448   1.381  1.1443 -0.5285 -2.0427
  143MOL   H13134495   6.055   6.704   1.748  0.6459  1.6844  0.4651
  143MOL   H13234496   6.226   6.691   1.790  1.8633 -2.3070 -0.8867
  143MOL   H13334497   6.114   6.551   1.813 -2.8173  1.4333  1.0064
  143MOL   C13434498   6.089   6.619   1.318  0.7041  0.2995  0.6841
  143MOL   C13534499   6.058   6.593   1.163 -0.0577 -0.9998 -0.4663
  143MOL   C13634500   5.934   6.514   1.133 -0.8762  0.3932 -0.2642
  143MOL   O13734501   5.933   6.403   1.084 -0.4369 -0.0555 -0.2110
  143MOL   O13834502   5.823   6.588   1.170  0.2494 -0.6905 -0.1656
  143MOL   C13934503   5.705   6.533   1.134  0.2907  0.5168 -0.6161
  143MOL   H14034504   6.016   6.689   1.358 -0.5091 -0.7371  0.3277
  143MOL   H14134505   6.192   6.654   1.329  0.6236  0.3528  1.3022
  143MOL   H14234506   6.135   6.521   1.133 -0.7160 -2.5191  1.3747
  143MOL   H14334507   5.617   6.585   1.171  1.4289  0.6994  1.9250
  143MOL   H14434508   5.691   6.429   1.162 -1.3148  0.4763 -1.5120
  143MOL   H14534509   5.696   6.523   1.026 -0.7122 -4.4654 -0.1989
  143MOL   C14634510   6.054   6.728   1.083  0.5994 -0.3051  0.1583
  143MOL   C14734511   6.164   6.832   1.112 -0.7580 -0.4588 -0.8909
  143MOL   C14834512   6.296   6.791   1.053 -0.0477  0.0891  0.0419
  143MOL   O14934513   6.304   6.737   0.940  0.6068 -0.5132 -0.6701
  143MOL   O15034514   6.399   6.809   1.131 -0.0248  0.1405  0.1014
  143MOL   C15134515   6.524   6.769   1.082  0.2783 -0.0000 -0.2555
  143MOL   H15234516   6.049   6.706   0.976  1.4171  1.4537 -0.2610
  143MOL   H15334517   5.957   6.775   1.094 -0.7853 -2.6418 -1.5808
  143MOL   H15434518   6.175   6.830   1.221 -1.5205 -0.2311 -0.8065
  143MOL   H15534519   6.545   6.815   0.986 -1.3577 -0.3016 -0.7807
  143MOL   H15634520   6.522   6.661   1.066  2.4046 -0.3828  1.8873
  143MOL   H15734521   6.590   6.797   1.164  2.4865  0.4328 -2.1236
  143MOL   C15834522   6.124   6.975   1.081 -0.4259 -0.3293 -0.0282
  143MOL   C15934523   6.230   7.094   1.077  0.6369 -0.7022  0.3314
  143MOL   C16034524   6.171   7.216   0.992  0.0977 -0.7064 -0.4592
  143MOL   O16134525   6.188   7.224   0.871 -0.5463  0.2177  0.2211
  143MOL   O16234526   6.103   7.301   1.066  0.7870 -0.2253  0.2045
  143MOL   C16334527   6.073   7.431   1.026  0.1324 -0.0202  0.2649
  143MOL   H16434528   6.076   6.973   0.983  2.7467 -1.3853 -1.6201
  143MOL   H16534529   6.049   6.995   1.158 -0.1597  0.0276  0.1367
  143MOL   H16634530   6.311   7.056   1.014  0.8918  0.1741  0.1153
  143MOL   H16734531   5.978   7.469   1.062 -0.9640 -0.9347 -1.5666
  143MOL   H16834532   6.066   7.447   0.918 -1.6656  1.8113  0.6210
  143MOL   H16934533   6.157   7.487   1.068 -0.5094  0.6826  0.6158
  143MOL   C17034534   6.292   7.136   1.211  0.5150  0.7698  0.0521
  143MOL   C17134535   6.407   7.234   1.208 -0.9410  0.6853  0.7650
  143MOL   C17234536   6.405   7.330   1.327 -0.2808 -0.3088  0.3341
  143MOL   O17334537   6.392   7.450   1.308 -0.0558 -0.1132  0.3153
  143MOL   O17434538   6.402   7.266   1.443  0.0697  0.1609 -0.2459
  143MOL   C17534539   6.417   7.346   1.558 -0.1326  0.6345  0.0879
  143MOL   H17634540   6.202   7.171   1.261  0.0383  0.4204 -0.5540
  143MOL   H17734541   6.328   7.045   1.260  1.4802  1.8571  1.4029
  143MOL   H17834542   6.391   7.291   1.116 -0.3470 -0.2208  0.0958
  143MOL   H17934543   6.432   7.278   1.641 -1.8831  0.0290 -0.0721
  143MOL   H18034544   6.347   7.428   1.574 -0.5281 -0.1032  2.1583
  143MOL   H18134545   6.517   7.389   1.559  0.2051 -0.1643  0.3011
  143MOL   C18234546   6.543   7.164   1.195  0.2084 -0.2340 -0.0862
  143MOL   C18334547   6.660   7.257   1.154 -0.5681  0.0604 -0.2212
  143MOL   C18434548   6.796   7.212   1.202 -0.1083 -0.8428  0.0261
  143MOL   O18534549   6.888   7.193   1.123 -0.2877  0.3526 -0.2052
  143MOL   O18634550   6.809   7.191   1.327  0.0558  0.0980  0.1871
  143MOL   C18734551   6.924   7.128   1.377  0.6325 -0.2681 -1.0304
  143MOL   H18834552   6.557   7.116   1.292  1.3358 -0.0602 -0.1544
  143MOL   H18934553   6.535   7.082   1.123 -0.5295  0.3202 -0.6422
  143MOL   H19034554   6.636   7.344   1.215 -1.4204 -0.4492  0.1741
  143MOL   H19134555   6.978   7.066   1.306  0.7866 -0.5303 -0.6866
  143MOL   H19234556   6.900   7.068   1.465  0.6637 -0.0950 -0.9041
  143MOL   H19334557   7.000   7.204   1.398  0.0509 -0.0617  0.4587
  143MOL   C19434558   6.654   7.302   1.003 -0.2653  0.2286 -0.1274
  143MOL   C19534559   6.729   7.423   0.957 -0.3527 -0.5931 -0.7550
  143MOL   C19634560   6.711   7.548   1.049  0.6164 -0.6908  1.0347
  143MOL   O19734561   6.813   7.608   1.092 -0.0616  0.5576 -0.1751
  143MOL   O19834562   6.586   7.590   1.060 -0.3114 -0.1270  0.5792
  143MOL   C19934563   6.551   7.699   1.132 -0.3171 -1.0217 -0.4563
  143MOL   H20034564   6.678   7.213   0.945  0.6330  1.0734 -1.0729
  143MOL   H20134565   6.550   7.331   0.985 -0.3112  0.8644  1.1194
  143MOL   H20234566   6.678   7.455   0.866 -1.0716  0.0534 -0.1227
  143MOL   H20334567   6.562   7.670   1.236  1.6026  1.0740 -0.0318
  143MOL   H20434568   6.444   7.721   1.128 -0.1383  0.6959  2.5443
  143MOL   H20534569   6.607   7.787   1.100  0.3741 -0.7573  1.4546
  143MOL   C20634570   6.883   7.402   0.922 -0.4191  0.3524  0.1354
  143MOL   C20734571   6.957   7.492   0.814 -0.1046  0.4306 -0.3466
  143MOL   C20834572   7.105   7.455   0.800 -0.3045 -0.3628 -0.3229
  143MOL   O20934573   7.144   7.335   0.810  0.3738  0.6699 -0.1016
  143MOL   O21034574   7.179   7.557   0.775  0.0165  0.0665  0.1190
  143MOL   C21134575   7.311   7.536   0.740 -0.4592 -0.3177  0.3968
  143MOL   H21234576   6.931   7.410   1.020  0.1411  0.1792 -0.1205
  143MOL   H21334577   6.897   7.300   0.886 -0.3454  0.0390  1.0199
  143MOL   H21434578   6.956   7.593   0.854  3.1602 -0.0879  1.1771
  143MOL   H21534579   7.332   7.581   0.643 -2.5275  0.5764  0.3170
  143MOL   H21634580   7.357   7.438   0.738  0.3223  0.0252  1.1521
  143MOL   H21734581   7.378   7.582   0.812 -0.4711  1.3807 -0.6348
  143MOL   C21834582   6.889   7.501   0.680  0.4836 -0.1532  0.6701
  143MOL   C21934583   6.959   7.580   0.566  0.3908  0.2287  0.1153
  143MOL   C22034584   6.919   7.552   0.420  0.0895 -0.4516  0.2249
  143MOL   O22134585   6.998   7.498   0.344 -0.3303 -0.1899  0.4265
  143MOL   O22234586   6.792   7.593   0.385  0.0266 -0.1387  0.4407
  143MOL   C22334587   6.744   7.563   0.251  0.2322 -0.3039  0.1004
  143MOL   H22434588   6.885   7.399   0.643  0.3949 -0.3913  1.3260
  143MOL   H22534589   6.786   7.538   0.687  0.2072 -0.6715 -0.5770
  143MOL   H22634590   7.060   7.540   0.571 -0.1848 -1.5653 -2.0222
  143MOL   H22734591   6.636   7.551   0.254  0.2187  0.0114  1.2425
  143MOL   H22834592   6.792   7.471   0.219  2.6888  0.2846  1.8997
  143MOL   H22934593   6.755   7.640   0.174 -1.5273 -1.6431 -1.5251
  143MOL   C23034594   6.941   7.729   0.595  0.4061  0.5441  0.1328
  143MOL   C23134595   7.017   7.837   0.509 -0.5246  0.0597  0.1683
  143MOL   C23234596   7.168   7.808   0.506 -0.5702 -0.1296 -0.7387
  143MOL   O23334597   7.223   7.712   0.454  0.3194  0.2280  0.1120
  143MOL   O23434598   7.232   7.903   0.574  0.6017  0.3081 -0.2450
  143MOL   C23534599   7.369   7.900   0.595  0.0335 -0.1804 -0.0406
  143MOL   H23634600   6.837   7.757   0.583  0.4605  1.0435  0.7622
  143MOL   H23734601   6.961   7.743   0.702 -0.4819 -1.9572  0.6480
  143MOL   H23834602   7.007   0.004   0.553 -2.1843  0.1633 -0.4113
  143MOL   H23934603   7.424   0.018   0.516  2.0651  0.0080  1.4317
  143MOL   H24034604   7.414   7.801   0.590  0.3986 -0.1331  1.8620
  143MOL   H24134605   7.407   0.005   0.690 -1.7009 -0.5231  0.8031
  143MOL   H24234606   6.985   7.852   0.405 -1.8852 -1.4635  0.3596
  144MOL     C134607   7.091   6.399   0.448 -0.4808 -0.0488 -0.0694
  144MOL     C234608   7.006   6.503   0.378  0.4822 -0.2711 -0.6233
  144MOL     C334609   6.924   6.445   0.265 -0.6957 -0.9452 -0.6307
  144MOL     O434610   6.965   6.347   0.204  0.2777  0.0260  0.2192
  144MOL     O534611   6.813   6.521   0.220  0.2593  0.5397  0.2309
  144MOL     C634612   6.721   6.470   0.128  0.3390 -0.0054  0.0327
  144MOL     H734613   7.161   6.355   0.377 -3.1446 -0.5536 -2.5054
  144MOL     H834614   7.031   6.318   0.489 -0.6078 -0.8820 -1.8321
  144MOL     H934615   7.078   6.562   0.321  0.3456  0.3470 -0.1670
  144MOL    H1034616   6.661   6.552   0.090 -1.2524 -1.1823 -0.0442
  144MOL    H1134617   6.657   6.398   0.179  0.2518 -0.3816 -0.6006
  144MOL    H1234618   6.770   6.419   0.045  0.7794  0.8550 -0.2371
  144MOL    H1334619   7.149   6.450   0.524 -1.3831  0.5857  0.2088
  144MOL    C1434620   6.922   6.597   0.472 -0.3279  0.2553 -0.1638
  144MOL    C1534621   7.011   6.696   0.542 -0.8921 -0.0831 -0.0450
  144MOL    C1634622   7.107   6.768   0.449 -0.8125  0.7195 -0.1551
  144MOL    O1734623   7.066   6.852   0.368 -0.4289  0.5775  0.1995
  144MOL    O1834624   7.245   6.726   0.445  0.1081 -0.1902 -0.8423
  144MOL    C1934625   7.330   6.794   0.353  0.1606  0.1089  0.1114
  144MOL    H2034626   6.845   6.652   0.417 -0.8884  0.2609  0.6173
  144MOL    H2134627   6.860   6.551   0.548 -0.0070  3.1088  1.9097
  144MOL    H2234628   7.074   6.630   0.602  1.8915  2.4604 -0.0351
  144MOL    H2334629   7.319   6.902   0.357 -0.4794  0.0155  1.0662
  144MOL    H2434630   7.315   6.768   0.249 -1.3342  0.5429  0.2176
  144MOL    H2534631   7.434   6.762   0.363 -0.0648  0.1491  3.1092
  144MOL    C2634632   6.923   6.791   0.634  0.2264 -0.5900  0.5603
  144MOL    C2734633   7.004   6.910   0.690 -0.6115 -0.3137  0.2765
  144MOL    C2834634   6.998   7.045   0.622  0.4013 -0.0012  0.0682
  144MOL    O2934635   6.895   7.109   0.605  0.5127 -0.5418  0.0486
  144MOL    O3034636   7.123   7.092   0.589  0.3704  0.1184  0.0964
  144MOL    C3134637   7.132   7.216   0.521 -0.4964 -0.2502 -0.1222
  144MOL    H3234638   6.852   6.845   0.571  1.1229  1.4480  1.2473
  144MOL    H3334639   6.858   6.740   0.705 -0.5498  1.9606  1.7320
  144MOL    H3434640   7.106   6.871   0.699 -0.3235  0.3217 -0.2210
  144MOL    H3534641   7.042   7.240   0.463 -0.2925  1.8166  0.3830
  144MOL    H3634642   7.217   7.211   0.452 -2.2791 -2.0468 -2.2755
  144MOL    H3734643   7.160   7.289   0.596  0.3935  0.2569 -0.9246
  144MOL    C3834644   6.974   6.941   0.841  0.4037 -0.1874  0.0417
  144MOL    C3934645   6.964   6.819   0.936 -0.2076 -0.2471 -0.1043
  144MOL    C4034646   7.108   6.744   0.950  0.3282 -0.9730  0.9609
  144MOL    O4134647   7.137   6.657   0.868 -0.9833  0.2398  0.4157
  144MOL    O4234648   7.195   6.797   1.038 -0.4492  0.1022 -0.5286
  144MOL    C4334649   7.332   6.745   1.047  0.1165  0.3645  0.0282
  144MOL    H4434650   7.042   7.016   0.882  0.9930  0.3291 -1.8270
  144MOL    H4534651   6.880   6.996   0.846 -0.2453 -1.3280  0.4896
  144MOL    H4634652   6.910   6.736   0.891  1.1944 -0.4509 -1.4532
  144MOL    H4734653   7.377   6.755   0.949 -0.9110 -0.4200 -0.5271
  144MOL    H4834654   7.327   6.640   1.074 -1.8655 -0.1220 -2.0735
  144MOL    H4934655   7.384   6.810   1.118  0.8461 -0.4280  0.2256
  144MOL    C5034656   6.888   6.852   1.068  0.0949 -0.3856  0.8604
  144MOL    C5134657   6.892   6.741   1.178 -0.0394 -0.2590  0.1569
  144MOL    C5234658   6.849   6.790   1.320 -0.0740  0.1307  0.1214
  144MOL    O5334659   6.752   6.863   1.332  0.0978  0.1887  0.7671
  144MOL    O5434660   6.919   6.745   1.428  0.4859  0.4366  0.5036
  144MOL    C5534661   6.882   6.762   1.566 -0.0988  0.8363  0.3900
  144MOL    H5634662   6.925   6.950   1.098 -1.9320  0.4000  0.8821
  144MOL    H5734663   6.783   6.865   1.043 -0.3983 -1.7415  2.1949
  144MOL    H5834664   6.995   6.708   1.189  0.4358  0.5602 -1.5888
  144MOL    H5934665   6.926   6.676   1.618 -0.8896  0.8408  1.0713
  144MOL    H6034666   6.775   6.769   1.584 -0.1673  2.4643 -0.5882
  144MOL    H6134667   6.919   6.856   1.608  1.0581  1.9392 -2.9896
  144MOL    C6234668   6.815   6.610   1.140  0.4207  0.6118 -0.1536
  144MOL    C6334669   6.902   6.485   1.131  0.6879  0.4266 -0.4563
  144MOL    C6434670   6.967   6.458   1.265  0.4447  0.4424  0.1670
  144MOL    O6534671   6.907   6.397   1.353  0.5783 -0.7997 -0.0331
  144MOL    O6634672   7.093   6.493   1.277 -0.2662 -0.3644  0.4094
  144MOL    C6734673   7.158   6.488   1.408 -0.3724 -0.1172  0.1842
  144MOL    H6834674   6.726   6.601   1.203  3.2774 -0.5204  3.8778
  144MOL    H6934675   6.765   6.637   1.046  2.9087  1.7823 -1.1754
  144MOL    H7034676   6.982   6.504   1.060  0.3538 -0.8928 -1.1988
  144MOL    H7134677   7.122   6.568   1.473  2.9461  1.5385  0.1002
  144MOL    H7234678   7.266   6.487   1.398 -0.2969 -1.2380  1.0702
  144MOL    H7334679   7.139   6.389   1.449  2.0795 -1.4315 -1.7585
  144MOL    C7434680   6.828   6.352   1.080 -0.1835 -0.0303  0.8356
  144MOL    C7534681   6.789   6.338   0.929  0.0602  0.1835 -0.1579
  144MOL    C7634682   6.913   6.368   0.857 -0.1702 -0.1718  0.6627
  144MOL    O7734683   6.929   6.473   0.798  0.9672 -0.2897  0.1405
  144MOL    O7834684   7.010   6.271   0.875  0.6024  0.1551  0.0600
  144MOL    C7934685   7.142   6.303   0.818 -0.3529  0.7670  0.8025
  144MOL    H8034686   6.860   6.255   1.118 -2.9515 -1.2996  0.0799
  144MOL    H8134687   6.729   6.366   1.123 -0.7409  3.4069 -1.3492
  144MOL    H8234688   6.716   6.415   0.905 -0.5830 -0.7165 -1.0718
  144MOL    H8334689   7.197   6.209   0.813  0.7073  1.3544  1.3135
  144MOL    H8434690   7.198   6.383   0.867 -0.4540  0.7660  0.9203
  144MOL    H8534691   7.133   6.342   0.717  1.1759 -1.6418 -0.3065
  144MOL    C8634692   6.725   6.202   0.886 -0.5211  0.1321  0.0232
  144MOL    C8734693   6.696   6.182   0.733 -0.0437 -0.1806  0.2134
  144MOL    C8834694   6.627   6.305   0.666 -0.6459 -0.0557  0.7614
  144MOL    O8934695   6.689   6.365   0.576 -0.6765  0.1027 -0.0594
  144MOL    O9034696   6.508   6.334   0.713 -0.0273  0.1301 -0.0762
  144MOL    C9134697   6.428   6.444   0.673  0.2463 -0.2558  0.1140
  144MOL    H9234698   6.785   6.118   0.920 -0.7819 -1.1537 -2.6055
  144MOL    H9334699   6.631   6.188   0.940 -1.3170  0.0031 -1.3675
  144MOL    H9434700   6.612   6.113   0.730 -2.1384  2.2927  0.6717
  144MOL    H9534701   6.330   6.400   0.654  0.1153  0.2200 -0.3251
  144MOL    H9634702   6.470   6.489   0.583 -0.9612  0.2684 -0.2032
  144MOL    H9734703   6.430   6.518   0.753 -1.1101  0.1942 -0.2558
  144MOL    C9834704   6.809   6.119   0.646  0.0768 -0.3499 -0.5018
  144MOL    C9934705   6.763   6.068   0.507 -0.3040  0.0459 -0.0383
  144MOL   C10034706   6.872   6.065   0.404  0.3463  0.9145  0.3949
  144MOL   O10134707   6.990   6.053   0.435 -0.1025 -0.1299 -0.1899
  144MOL   O10234708   6.817   6.062   0.279  0.3403 -0.1080  0.5192
  144MOL   C10334709   6.896   6.024   0.167  0.0190 -0.3983  0.7898
  144MOL   H10434710   6.895   6.186   0.642  0.9181 -1.2473  1.7631
  144MOL   H10534711   6.858   6.037   0.697  0.4098 -0.2769 -0.7013
  144MOL   H10634712   6.697   6.145   0.466  0.7012 -0.3522 -2.4293
  144MOL   H10734713   6.931   6.115   0.120 -1.4632 -0.4994 -0.5435
  144MOL   H10834714   6.838   5.972   0.091 -2.7302  0.8605  1.9365
  144MOL   H10934715   6.985   5.966   0.189  0.5846  0.5027  0.9146
  144MOL   C11034716   6.679   5.934   0.516  0.2149  0.3529 -0.7181
  144MOL   C11134717   6.580   5.898   0.396  0.1998 -0.4397 -0.1652
  144MOL   C11234718   6.532   5.753   0.404 -0.6693  1.0726  1.0550
  144MOL   O11334719   6.413   5.720   0.403 -0.2172 -0.5198 -0.3645
  144MOL   O11434720   6.643   5.674   0.409  0.2080 -0.1657  0.2284
  144MOL   C11534721   6.621   5.530   0.398 -0.4082 -0.4276  0.7549
  144MOL   H11634722   6.759   5.861   0.521 -0.0104  0.1040 -0.7519
  144MOL   H11734723   6.617   5.918   0.604  0.3368  1.6316 -0.3918
  144MOL   H11834724   6.650   5.907   0.314 -0.2328 -3.2837 -0.8936
  144MOL   H11934725   6.715   5.481   0.421  0.2281  1.0612  1.3724
  144MOL   H12034726   6.593   5.504   0.296  0.4184  0.5409  0.2682
  144MOL   H12134727   6.545   5.496   0.468 -0.0492  1.1881  1.9658
  144MOL   C12234728   6.463   6.000   0.385 -0.0685  0.6996 -0.2571
  144MOL   C12334729   6.386   6.000   0.253  0.4671 -0.3365  0.0198
  144MOL   C12434730   6.250   6.049   0.289  0.0922 -0.6684  0.4356
  144MOL   O12534731   6.216   6.166   0.275 -0.3710 -0.2163  0.5378
  144MOL   O12634732   6.172   5.960   0.338  0.1501 -0.2115  0.3166
  144MOL   C12734733   6.039   5.996   0.389 -0.9126  0.0253  0.3736
  144MOL   H12834734   6.405   5.987   0.477 -0.5264  2.1999 -0.3152
  144MOL   H12934735   6.514   6.096   0.397  1.8346 -0.4834  1.6306
  144MOL   H13034736   6.363   5.905   0.204 -1.3259  0.9110 -1.6616
  144MOL   H13134737   6.055   6.088   0.446  1.0947  0.1396 -0.3393
  144MOL   H13234738   5.985   5.919   0.443  2.1778 -2.4907 -0.0190
  144MOL   H13334739   5.971   6.030   0.311 -1.5485  1.6993  1.6215
  144MOL   C13434740   6.462   6.091   0.156 -0.0766 -0.0109 -0.2727
  144MOL   C13534741   6.407   6.111   0.013 -0.3153  0.0159  0.1130
  144MOL   C13634742   6.497   6.202   7.860 -0.3130 -0.0488 -0.4063
  144MOL   O13734743   6.617   6.224   7.890  0.0810  0.9775 -0.0667
  144MOL   O13834744   6.432   6.256   7.753 -0.6135 -0.1505  0.7939
  144MOL   C13934745   6.506   6.351   7.677 -0.1781 -0.2171  0.3858
  144MOL   H14034746   6.469   6.188   0.205 -0.8972 -0.3157  0.4615
  144MOL   H14134747   6.559   6.041   0.148 -0.4018 -0.8312  0.6624
  144MOL   H14234748   6.326   6.183   0.020 -0.1916  0.3441 -1.5641
  144MOL   H14334749   6.573   6.405   7.745  0.8393 -0.0098 -0.7473
  144MOL   H14434750   6.431   6.416   7.633 -0.1410  0.0265  0.6812
  144MOL   H14534751   6.564   6.297   7.602  1.3581  0.3111  1.1721
  144MOL   C14634752   6.368   5.979   7.866  0.5008  0.2544  0.4298
  144MOL   C14734753   6.484   5.878   7.833  0.8681 -0.1687 -0.2299
  144MOL   C14834754   6.499   5.765   7.929 -0.5440  0.6061 -0.0843
  144MOL   O14934755   6.604   5.750   0.068  0.5256 -0.7472 -0.1505
  144MOL   O15034756   6.394   5.678   7.928 -0.0480 -0.6385  0.8999
  144MOL   C15134757   6.397   5.570   0.094  0.6097 -0.3954 -0.2126
  144MOL   H15234758   6.296   5.914   7.916  0.1658  0.4114  0.1529
  144MOL   H15334759   6.320   6.011   7.773  0.0211 -2.8325 -0.4452
  144MOL   H15434760   6.581   5.928   7.838  0.5915  0.4683 -1.1214
  144MOL   H15534761   6.497   5.538   0.122  0.3279  0.3569  1.7196
  144MOL   H15634762   6.340   5.485   0.055  1.0678 -0.9819  0.3890
  144MOL   H15734763   6.346   5.602   0.185  2.8808  1.3551  0.4903
  144MOL   C15834764   6.460   5.833   7.696 -0.8484 -0.4997 -0.1638
  144MOL   C15934765   6.503   5.928   7.583 -0.6863 -0.0095 -0.1270
  144MOL   C16034766   6.657   5.923   7.560  0.0499 -1.0160  0.2278
  144MOL   O16134767   6.735   6.022   7.584 -0.4641 -0.5586 -0.2631
  144MOL   O16234768   6.697   5.801   7.524  0.1092  0.4331  0.6555
  144MOL   C16334769   6.831   5.781   7.495 -0.1973  1.1065 -0.0246
  144MOL   H16434770   6.500   5.732   7.690 -1.6197 -0.9266  1.8238
  144MOL   H16534771   6.357   5.801   7.682 -0.3448 -2.2745  0.1017
  144MOL   H16634772   6.492   6.029   7.623  1.9107  0.5855 -0.8512
  144MOL   H16734773   6.892   5.789   7.585  1.2967  3.8450 -1.2252
  144MOL   H16834774   6.873   5.853   7.425  0.5211  2.5564  1.8524
  144MOL   H16934775   6.849   5.684   7.448 -4.2329 -0.6336  1.8423
  144MOL   C17034776   6.420   5.907   7.453 -0.0920 -0.1891  0.2787
  144MOL   C17134777   6.393   6.039   7.378 -0.0665 -0.2321 -0.2362
  144MOL   C17234778   6.519   6.077   7.296 -0.3996  0.0993  0.4948
  144MOL   O17334779   6.603   6.150   7.348 -0.2342  0.3782 -0.2533
  144MOL   O17434780   6.535   6.013   7.181 -0.5531  0.1091  0.4156
  144MOL   C17534781   6.632   6.052   7.094  0.4209 -0.3185  0.4729
  144MOL   H17634782   6.463   5.832   7.388  2.1646  0.6405  0.7892
  144MOL   H17734783   6.329   5.848   7.467  0.2771 -1.1076 -1.1355
  144MOL   H17834784   6.391   6.120   7.450  0.4994 -1.6998  1.4771
  144MOL   H17934785   6.667   5.975   7.026  0.0823  0.6674 -0.8309
  144MOL   H18034786   6.713   6.097   7.152  1.7473  0.5751 -2.0247
  144MOL   H18134787   6.603   6.137   7.032  1.2870  1.0142  1.8551
  144MOL   C18234788   6.261   6.035   7.295  0.0831 -0.2295 -0.0171
  144MOL   C18334789   6.133   6.050   7.375  0.0400  0.2280  0.5497
  144MOL   C18434790   6.123   6.189   7.438 -1.7517  0.4641  0.0688
  144MOL   O18534791   6.103   6.282   7.367  0.0283 -0.3947  0.6048
  144MOL   O18634792   6.148   6.191   7.567  0.1742  0.4481  0.1104
  144MOL   C18734793   6.143   6.321   7.636  0.1221 -0.2907 -0.1763
  144MOL   H18834794   6.279   6.117   7.226 -0.1731  0.5869  0.8816
  144MOL   H18934795   6.258   5.946   7.232 -0.5081 -0.0397 -0.2582
  144MOL   H19034796   6.137   5.981   7.459 -2.3939 -0.5494  0.0502
  144MOL   H19134797   6.205   6.394   7.585 -0.8750  1.3702  0.9104
  144MOL   H19234798   6.186   6.317   7.736 -3.5007 -1.2031  1.4398
  144MOL   H19334799   6.039   6.354   7.641  0.4969  1.0949 -1.3101
  144MOL   C19434800   6.008   6.031   7.291 -0.2635  0.5988 -0.8318
  144MOL   C19534801   5.872   6.064   7.354  0.6243  0.2267  0.0830
  144MOL   C19634802   5.758   6.097   7.245  0.2810 -0.3927 -0.7212
  144MOL   O19734803   5.775   6.094   7.123 -1.3233 -0.6652 -0.4115
  144MOL   O19834804   5.635   6.108   7.292  0.0824  0.2103  0.1114
  144MOL   C19934805   5.521   6.140   7.212  0.5930 -0.1557  0.2564
  144MOL   H20034806   6.013   6.085   7.197 -2.2087  2.4076  0.0645
  144MOL   H20134807   6.014   5.930   7.250  2.8129  0.2907  0.1821
  144MOL   H20234808   5.872   6.157   7.411 -0.4196  0.0981  0.2998
  144MOL   H20334809   5.539   6.118   7.107 -2.2050  1.0125 -0.5196
  144MOL   H20434810   5.501   6.246   7.228  2.0888  0.3111 -0.8594
  144MOL   H20534811   5.436   6.077   7.240  1.9366 -2.2242 -0.2132
  144MOL   C20634812   5.814   5.956   7.454  0.6096  0.5140 -0.0636
  144MOL   C20734813   5.808   6.009   7.598 -0.4001 -0.0779  0.2933
  144MOL   C20834814   5.710   6.122   7.612  0.4933 -0.0521  0.1234
  144MOL   O20934815   5.753   6.230   7.641 -0.7610 -0.7271 -0.2183
  144MOL   O21034816   5.584   6.087   7.608 -0.7904  0.1802 -0.3325
  144MOL   C21134817   5.479   6.183   7.607 -0.5480  0.0017  0.0595
  144MOL   H21234818   5.715   5.930   7.417 -0.0950  0.5981  1.6978
  144MOL   H21334819   5.884   5.872   7.465  1.2658  1.1108  0.3535
  144MOL   H21434820   5.903   6.048   7.633  0.2805 -2.0142  0.6861
  144MOL   H21534821   5.421   6.204   7.698 -0.5494 -0.3450  0.1377
  144MOL   H21634822   5.404   6.157   7.533 -0.8235 -1.6236  0.8781
  144MOL   H21734823   5.523   6.280   7.585  1.4841 -0.7506  0.6550
  144MOL   C21834824   5.781   5.892   7.695 -0.0857 -0.2201 -0.2167
  144MOL   C21934825   5.794   5.909   7.840 -0.3485  0.8344  1.0701
  144MOL   C22034826   5.923   5.976   7.887  0.5473  0.1763  0.2272
  144MOL   O22134827   6.026   5.914   7.914  0.1424  0.0495  0.0735
  144MOL   O22234828   5.913   6.110   7.895  0.9712 -0.0731  0.3710
  144MOL   C22334829   6.023   6.180   0.009 -0.9327  0.0380  0.4553
  144MOL   H22434830   5.695   5.830   7.668 -0.1275 -0.7897  1.2159
  144MOL   H22534831   5.854   5.814   7.675  0.1010 -0.2969  0.7617
  144MOL   H22634832   5.811   5.809   7.882  0.2192  1.5171  2.5113
  144MOL   H22734833   6.117   6.150   7.896 -1.0340  0.1898  0.1476
  144MOL   H22834834   6.021   6.175   0.118 -1.3440 -0.1868  0.4394
  144MOL   H22934835   6.016   6.282   7.906 -0.0540 -0.1907 -0.3637
  144MOL   C23034836   5.654   5.952   7.900  0.0613 -0.0526 -0.5637
  144MOL   C23134837   5.651   5.953   0.128 -0.6940 -0.5149 -0.1743
  144MOL   C23234838   5.687   5.816   0.196 -0.0738  0.1240  0.8404
  144MOL   O23334839   5.766   5.817   0.289 -0.0256 -0.3887 -0.2438
  144MOL   O23434840   5.616   5.710   0.154  0.5464  0.4089  0.1620
  144MOL   C23534841   5.653   5.587   0.207 -0.1967  0.5196  0.4809
  144MOL   H23634842   5.626   6.052   7.866 -1.2764  0.3616  1.6627
  144MOL   H23734843   5.583   5.887   7.848  1.4114 -1.2351 -0.9535
  144MOL   H23834844   5.548   5.965   0.162 -0.8298 -2.4464  0.1500
  144MOL   H23934845   5.744   5.537   0.172 -0.8788  0.0269 -0.6368
  144MOL   H24034846   5.573   5.514   0.189  0.9168 -0.5766 -0.0905
  144MOL   H24134847   5.666   5.581   0.315  1.2915 -0.3178  0.2716
  144MOL   H24234848   5.719   6.027   0.168 -0.4685 -1.2727  0.8549
  145MOL     C134849   6.329   1.344   0.113  0.4990 -0.1990  0.5273
  145MOL     C234850   6.474   1.305   0.125 -0.6893 -0.1051  0.4562
  145MOL     C334851   6.549   1.440   0.159  0.5208  0.7063 -0.0647
  145MOL     O434852   6.650   1.480   0.097  0.7253  0.2874 -0.4690
  145MOL     O534853   6.496   1.503   0.265  0.9556 -0.8032 -0.1687
  145MOL     C634854   6.557   1.621   0.304  0.2509 -0.2308 -0.3087
  145MOL     H734855   6.287   1.410   0.188  1.2317 -1.9756  2.5569
  145MOL     H834856   6.271   1.252   0.104 -0.6181  0.4428  1.0474
  145MOL     H934857   6.515   1.275   0.029 -0.7163 -1.1546  0.7705
  145MOL    H1034858   6.559   1.693   0.222  0.0981  0.0452 -0.0721
  145MOL    H1134859   6.659   1.612   0.341 -0.0323  0.6564  0.7042
  145MOL    H1234860   6.498   1.672   0.380  0.1869 -2.0741  0.9062
  145MOL    H1334861   6.306   1.398   0.021  1.5313 -0.4985  0.0879
  145MOL    C1434862   6.488   1.195   0.232 -0.0037 -0.1833  0.0369
  145MOL    C1534863   6.609   1.101   0.208 -0.0797 -1.0818 -0.8569
  145MOL    C1634864   6.596   1.005   0.092 -0.1481  0.2843 -0.1787
  145MOL    O1734865   6.553   0.890   0.102 -0.5026 -0.6162 -0.3632
  145MOL    O1834866   6.629   1.056   7.909  0.3206  0.3305  0.1241
  145MOL    C1934867   6.623   0.985   7.784  0.8936 -0.2631 -0.2025
  145MOL    H2034868   6.486   1.235   0.334 -2.1495 -0.3639  0.0924
  145MOL    H2134869   6.402   1.128   0.226  0.4453 -0.6939 -0.7114
  145MOL    H2234870   6.609   1.029   0.290 -1.3507  1.8850  1.8689
  145MOL    H2334871   6.572   0.888   7.783  1.1343 -0.4432  2.1535
  145MOL    H2434872   6.727   0.974   7.754  0.4664  0.8230 -2.1946
  145MOL    H2534873   6.582   1.047   7.704 -0.0099 -1.0166 -0.3351
  145MOL    C2634874   6.748   1.170   0.225  0.0276 -0.3056 -0.1073
  145MOL    C2734875   6.871   1.083   0.270 -0.8437 -0.2611  0.0159
  145MOL    C2834876   6.900   0.959   0.180  0.0734  0.4068 -0.0250
  145MOL    O2934877   6.910   0.959   0.060  0.5590 -0.5976 -0.1453
  145MOL    O3034878   6.900   0.843   0.248 -0.3288 -0.0554  0.0264
  145MOL    C3134879   6.926   0.711   0.197 -1.0758  0.6690 -0.2541
  145MOL    H3234880   6.770   1.229   0.137 -0.0638 -1.0357 -0.6253
  145MOL    H3334881   6.735   1.242   0.306  0.4737 -0.7067  0.3256
  145MOL    H3434882   6.833   1.044   0.365 -1.2044  2.0079  0.8264
  145MOL    H3534883   6.934   0.641   0.280  0.8838 -0.9617 -1.7679
  145MOL    H3634884   7.013   0.713   0.132  0.8096 -0.1145  2.1858
  145MOL    H3734885   6.843   0.684   0.131 -0.7556  0.1918 -0.4619
  145MOL    C3834886   7.007   1.160   0.296  0.0274  0.4210  0.2277
  145MOL    C3934887   7.106   1.077   0.387 -0.0716 -0.0543 -0.2511
  145MOL    C4034888   7.253   1.088   0.342  0.3476 -0.3607  0.4971
  145MOL    O4134889   7.344   1.139   0.412 -0.2930  0.5299 -0.3985
  145MOL    O4234890   7.259   1.023   0.219 -0.0647  0.5785 -0.4820
  145MOL    C4334891   7.385   1.012   0.162  0.0112  0.1901  0.6020
  145MOL    H4434892   7.052   1.175   0.198 -1.1521 -0.0488 -0.3864
  145MOL    H4534893   6.993   1.260   0.337  0.3607  0.3872  0.4321
  145MOL    H4634894   7.091   0.969   0.382  1.0157 -0.2020 -0.6242
  145MOL    H4734895   7.458   0.972   0.232 -1.1097  0.3229  1.8865
  145MOL    H4834896   7.409   1.095   0.096  2.7826 -0.9713  0.1036
  145MOL    H4934897   7.365   0.929   0.094 -0.0777  0.8639 -0.1988
  145MOL    C5034898   7.071   1.102   0.533  0.0877  0.3296  0.2921
  145MOL    C5134899   7.137   1.001   0.629  1.0447  0.1856 -0.6973
  145MOL    C5234900   7.142   1.067   0.771 -0.0097  0.7234  0.1743
  145MOL    O5334901   7.239   1.059   0.845 -0.2216  0.1463  0.6660
  145MOL    O5434902   7.031   1.137   0.804 -0.0870  0.1966 -0.4035
  145MOL    C5534903   7.016   1.183   0.943  0.3303  0.1058  0.9597
  145MOL    H5634904   7.097   1.205   0.556  1.0250 -0.2246  1.8473
  145MOL    H5734905   6.963   1.108   0.544  0.2496  1.3327  1.3589
  145MOL    H5834906   7.237   0.982   0.591  0.8609  2.9866 -2.7476
  145MOL    H5934907   6.923   1.161   0.994 -0.4172  3.3818  1.1138
  145MOL    H6034908   7.015   1.292   0.934  0.1931  0.1198  1.1547
  145MOL    H6134909   7.106   1.167   1.002  0.4592 -0.4420  0.6174
  145MOL    C6234910   7.056   0.868   0.628 -0.4331  0.7884 -0.2503
  145MOL    C6334911   7.109   0.747   0.707 -0.2143  0.2607 -0.0203
  145MOL    C6434912   7.008   0.642   0.740 -0.2013 -0.7488  0.8254
  145MOL    O6534913   6.911   0.623   0.664 -0.4146  0.1461 -0.1279
  145MOL    O6634914   7.019   0.589   0.861 -0.1213  0.1208 -0.5135
  145MOL    C6734915   6.933   0.481   0.887  0.0071  0.5763 -0.1856
  145MOL    H6834916   6.958   0.892   0.668 -0.7720 -1.3958  0.2487
  145MOL    H6934917   7.025   0.828   0.532 -1.3596 -2.5358  1.3753
  145MOL    H7034918   7.122   0.788   0.807  0.0110 -0.6722  0.3371
  145MOL    H7134919   6.953   0.404   0.812  0.9179  1.0225 -0.4075
  145MOL    H7234920   6.829   0.510   0.877  0.1701  0.9243 -0.8583
  145MOL    H7334921   6.958   0.431   0.981 -2.6148 -2.1462 -0.8662
  145MOL    C7434922   7.248   0.692   0.656  1.0802 -0.3571 -0.5587
  145MOL    C7534923   7.317   0.608   0.764  0.1450  0.7975 -0.1596
  145MOL    C7634924   7.423   0.521   0.698 -0.2330  0.0037 -0.8392
  145MOL    O7734925   7.521   0.573   0.643 -0.5031  0.4022  0.1914
  145MOL    O7834926   7.402   0.395   0.708  0.5069 -0.2341  0.1817
  145MOL    C7934927   7.491   0.306   0.642  0.3708 -0.2689 -0.2538
  145MOL    H8034928   7.240   0.631   0.566  0.2264 -1.7399  0.4407
  145MOL    H8134929   7.315   0.776   0.644  1.3833 -0.4049  0.7032
  145MOL    H8234930   7.241   0.547   0.813  0.8790 -0.5146 -0.6289
  145MOL    H8334931   7.452   0.204   0.649 -2.3868  0.7270 -0.4145
  145MOL    H8434932   7.585   0.309   0.697 -0.1724 -1.0658  0.7299
  145MOL    H8534933   7.532   0.330   0.544 -1.0304  0.5648 -0.6529
  145MOL    C8634934   7.377   0.686   0.879 -0.6418 -0.0064  0.3066
  145MOL    C8734935   7.411   0.592   1.001  0.1602 -0.7145  0.2085
  145MOL    C8834936   7.546   0.621   1.070  0.4717 -0.6702 -0.0798
  145MOL    O8934937   7.549   0.617   1.192 -0.2009 -0.2602  0.0152
  145MOL    O9034938   7.647   0.646   0.989 -0.1348 -0.2878 -0.6582
  145MOL    C9134939   7.764   0.703   1.046 -0.1337 -0.3672  0.1869
  145MOL    H9234940   7.458   0.753   0.850 -1.3345  1.8583  2.4970
  145MOL    H9334941   7.294   0.751   0.908 -0.2395  1.1451 -1.0800
  145MOL    H9434942   7.440   0.493   0.966  0.3920  0.0507 -1.8309
  145MOL    H9534943   7.844   0.709   0.972  0.6912 -0.6881  1.0400
  145MOL    H9634944   7.817   0.651   1.126  2.5349  2.0283  0.0665
  145MOL    H9734945   7.748   0.805   1.081  0.2762  0.3187 -1.5669
  145MOL    C9834946   7.287   0.576   1.097 -0.2990 -0.2242 -0.3202
  145MOL    C9934947   7.292   0.433   1.162 -0.5144  0.6450  0.1300
  145MOL   C10034948   7.202   0.425   1.286  0.0125 -0.1462 -0.5673
  145MOL   O10134949   7.081   0.437   1.279  0.2056 -0.3696  0.1465
  145MOL   O10234950   7.269   0.391   1.396 -1.0417  0.3729  0.0977
  145MOL   C10334951   7.196   0.341   1.509  0.1362  0.0674  0.2762
  145MOL   H10434952   7.301   0.655   1.170 -0.9179 -0.7245  0.3512
  145MOL   H10534953   7.194   0.607   1.049 -1.4926 -0.8585  1.5240
  145MOL   H10634954   7.392   0.402   1.193 -1.0048 -0.4792  0.6352
  145MOL   H10734955   7.124   0.269   1.469 -0.0875  0.2680  0.3198
  145MOL   H10834956   7.135   0.421   1.552 -1.0606 -1.0908  0.7852
  145MOL   H10934957   7.252   0.291   1.588 -0.1105  0.9659  1.0198
  145MOL   C11034958   7.246   0.328   1.061 -0.0421  0.2001 -0.4837
  145MOL   C11134959   7.253   0.179   1.112  0.1632 -0.6296  0.0390
  145MOL   C11234960   7.162   0.095   1.018 -0.1608  0.2337 -0.0979
  145MOL   O11334961   7.125   0.140   0.909  0.0790 -0.3265  0.4273
  145MOL   O11434962   7.135   7.902   1.072 -0.0319 -0.5772 -0.0824
  145MOL   C11534963   7.057   7.808   1.009 -0.0234  0.5847 -0.1168
  145MOL   H11634964   7.141   0.351   1.047 -0.5533 -1.3512  0.6620
  145MOL   H11734965   7.301   0.327   0.967  0.4471  0.2181 -0.1981
  145MOL   H11834966   7.207   0.179   1.210  0.0094  0.5006 -0.0267
  145MOL   H11934967   7.064   7.712   1.061 -1.4053  0.5614  0.0613
  145MOL   H12034968   7.090   7.781   0.909 -1.4120  2.0174 -0.9834
  145MOL   H12134969   6.953   7.842   1.001  0.3512  1.2463 -2.5054
  145MOL   C12234970   7.396   0.116   1.128  0.1113 -0.1730 -0.8644
  145MOL   C12334971   7.490   0.123   1.008 -0.4459 -0.0517 -0.0168
  145MOL   C12434972   7.609   0.217   1.029 -0.0011 -0.6227  0.4573
  145MOL   O12534973   7.614   0.293   1.126  0.0835  0.3170  0.0814
  145MOL   O12634974   7.696   0.219   0.925  0.1819 -0.2336 -0.4517
  145MOL   C12734975   7.786   0.327   0.907 -0.2156 -1.2899  1.0402
  145MOL   H12834976   7.432   0.159   1.221 -0.5521 -0.4508 -0.4792
  145MOL   H12934977   7.381   0.013   1.159  0.1336 -0.1251 -0.6951
  145MOL   H13034978   7.432   0.182   0.937 -0.3366  0.2477  0.1416
  145MOL   H13134979   7.819   0.334   0.804 -1.9421 -0.9793  0.4941
  145MOL   H13234980   7.865   0.346   0.979 -0.3298  0.0156  0.8218
  145MOL   H13334981   7.721   0.414   0.912 -1.3095 -2.0674  0.5756
  145MOL   C13434982   7.516   7.914   0.945 -0.3693 -0.0612  0.3055
  145MOL   C13534983   7.598   7.810   1.036  0.0730 -0.6670 -0.0701
  145MOL   C13634984   7.508   7.707   1.105 -0.1913  1.3102 -0.3945
  145MOL   O13734985   7.439   7.627   1.036  0.0938  0.5689 -0.2492
  145MOL   O13834986   7.523   7.713   1.242 -0.4880  0.1358 -0.2583
  145MOL   C13934987   7.452   7.625   1.326 -0.4878 -0.7607 -0.5051
  145MOL   H14034988   7.418   7.874   0.922 -1.1149  1.8137  0.0926
  145MOL   H14134989   7.559   0.004   0.847 -2.3879  1.7725 -0.1882
  145MOL   H14234990   7.655   7.857   1.116 -0.2459  0.7339 -0.6570
  145MOL   H14334991   7.458   7.520   1.297  0.9722 -0.7556 -0.2422
  145MOL   H14434992   7.347   7.654   1.333  0.0269  1.2134 -0.6272
  145MOL   H14534993   7.493   7.628   1.427 -0.4742 -0.7932 -0.5098
  145MOL   C14634994   7.695   7.734   0.943 -0.5828  0.1076  0.0897
  145MOL   C14734995   7.813   7.815   0.887 -0.2533  0.0306 -0.5556
  145MOL   C14834996   7.916   7.843   1.002  0.3376 -0.1506 -1.4156
  145MOL   O14934997   7.912   0.017   1.059 -0.1362 -0.8992  0.1928
  145MOL   O15034998   0.054   7.733   1.042 -0.1394 -0.2103  0.4013
  145MOL   C15134999   0.152   7.749   1.147 -0.2802 -0.1811  0.0577
  145MOL   H15235000   7.723   7.643   0.995  0.8571  0.9428  0.7850
  145MOL   H15335001   7.644   7.696   0.854 -0.0988  0.8387 -0.5113
  145MOL   H15435002   7.777   7.914   0.862 -1.6579 -0.1051  0.9145
  145MOL   H15535003   0.235   7.818   1.128  0.6557 -1.5459 -0.9747
  145MOL   H15635004   0.201   7.658   1.183  1.0674  1.2944  2.0076
  145MOL   H15735005   0.101   7.781   1.237  1.5316  2.9146  0.0442
  145MOL   C15835006   7.879   7.742   0.767 -0.1450  0.1360  0.7901
  145MOL   C15935007   7.850   7.803   0.626  0.4308  0.5020  0.4928
  145MOL   C16035008   7.885   0.020   0.610 -1.0025 -0.0764  0.1409
  145MOL   O16135009   7.792   0.102   0.595  0.1356 -0.0274 -0.0157
  145MOL   O16235010   0.082   0.040   0.639 -0.3662 -0.6399 -0.7288
  145MOL   C16335011   0.134   0.168   0.638 -0.2391  0.1690 -0.1363
  145MOL   H16435012   0.054   7.746   0.780 -0.1831  1.8476  0.7303
  145MOL   H16535013   7.858   7.636   0.775  1.1331 -0.3011 -1.3729
  145MOL   H16635014   7.741   7.798   0.615  0.3786  0.6135  0.9699
  145MOL   H16735015   0.238   0.159   0.670 -0.2354  2.9850  0.7867
  145MOL   H16835016   0.079   0.233   0.705 -0.5617  2.2998 -2.3795
  145MOL   H16935017   0.138   0.203   0.534 -0.6135 -0.5209 -0.3842
  145MOL   C17035018   7.920   7.718   0.527  0.1336 -0.6388 -0.2159
  145MOL   C17135019   7.874   7.743   0.380 -0.3467  0.0093  0.0912
  145MOL   C17235020   0.057   7.706   0.287  0.0625 -0.5390  0.3045
  145MOL   O17335021   0.102   7.788   0.207 -0.3016 -0.3535  0.0550
  145MOL   O17435022   0.085   7.577   0.301  0.1170  0.6006  0.1013
  145MOL   C17535023   0.203   7.517   0.245 -0.2715  0.3290  0.5803
  145MOL   H17635024   0.094   7.735   0.542  0.2740 -2.4689  1.0869
  145MOL   H17735025   7.928   7.613   0.558  1.5000 -1.1211 -2.1241
  145MOL   H17835026   7.857   7.847   0.353 -0.5950  0.0372  0.3533
  145MOL   H17935027   0.292   7.579   0.261  0.2953  0.5261 -2.8772
  145MOL   H18035028   0.182   7.506   0.138  1.4568 -1.9756  0.4227
  145MOL   H18135029   0.227   7.419   0.285 -0.3668 -0.4808 -1.2660
  145MOL   C18235030   7.740   7.667   0.352  0.4349 -0.2755  0.1428
  145MOL   C18335031   7.648   7.705   0.236 -0.4412 -0.0138  0.2817
  145MOL   C18435032   7.578   7.840   0.261 -0.1003 -0.7552 -0.4562
  145MOL   O18535033   7.460   7.834   0.299 -0.0826 -0.3971 -0.2250
  145MOL   O18635034   7.651   0.019   0.258 -0.6028  0.6535 -0.1697
  145MOL   C18735035   7.603   0.139   0.310  0.2249  0.6633  0.4168
  145MOL   H18835036   7.775   7.566   0.327  1.0651 -0.4455  1.6728
  145MOL   H18935037   7.683   7.671   0.444 -0.2153  1.3188 -0.3204
  145MOL   H19035038   7.568   7.632   0.227  0.5017 -0.9094 -1.1197
  145MOL   H19135039   7.505   0.157   0.267  0.8948  1.2699 -0.8633
  145MOL   H19235040   7.672   0.221   0.291 -0.3662  0.7572 -1.3569
  145MOL   H19335041   7.587   0.150   0.418 -1.2367  3.2266 -0.0316
  145MOL   C19435042   7.714   7.707   0.106 -0.1695 -0.2435  0.2391
  145MOL   C19535043   7.615   7.687   7.919  0.0937 -0.0676  1.1706
  145MOL   C19635044   7.630   7.808   7.819  0.5170 -0.3486  0.5665
  145MOL   O19735045   7.691   7.786   7.714 -0.2004 -0.2671  0.6027
  145MOL   O19835046   7.563   7.908   7.850  0.4562  0.1403 -0.2736
  145MOL   C19935047   7.558   0.080   7.753  0.3729  0.2036 -0.0555
  145MOL   H20035048   7.778   7.793   0.090 -3.4067  2.4005  1.1049
  145MOL   H20135049   7.769   7.613   0.108  1.5202  0.7559  3.3810
  145MOL   H20235050   7.515   7.709   0.024  0.1604 -1.3884  2.1683
  145MOL   H20335051   7.654   0.131   7.750  0.3543  0.3418  1.1557
  145MOL   H20435052   7.482   0.153   7.782 -0.8647 -0.4954 -1.4587
  145MOL   H20535053   7.535   0.037   7.656 -2.5891  0.9995  0.2353
  145MOL   C20635054   7.625   7.556   7.847 -0.0539 -0.8316  0.2469
  145MOL   C20735055   7.582   7.431   7.929 -0.1746 -0.6649 -1.0396
  145MOL   C20835056   7.430   7.448   0.021  0.3509  0.2296  0.7287
  145MOL   O20935057   7.352   7.396   7.876  0.9345  0.1236  0.1993
  145MOL   O21035058   7.394   7.522   0.130 -0.0579 -0.6799 -0.1934
  145MOL   C21135059   7.260   7.550   0.167  0.2073 -0.2378  0.6922
  145MOL   H21235060   7.574   7.557   7.750 -0.7008  1.1324  0.5828
  145MOL   H21335061   7.729   7.553   7.815 -0.4443 -2.5437 -0.9873
  145MOL   H21435062   7.635   7.434   0.091 -0.2008  0.6625 -1.0451
  145MOL   H21535063   7.232   7.459   0.220  0.2808  0.6511  2.2539
  145MOL   H21635064   7.206   7.583   0.078 -0.6411  0.9093  1.6279
  145MOL   H21735065   7.244   7.626   0.242 -4.1945  0.8674 -1.2121
  145MOL   C21835066   7.623   7.302   7.850  0.5152 -0.0277 -0.0695
  145MOL   C21935067   7.596   7.172   0.004  0.6990 -0.8154  0.1756
  145MOL   C22035068   7.566   7.054   7.838 -0.0524  0.1330 -0.5438
  145MOL   O22135069   7.467   6.986   7.868 -0.7173 -0.0577  0.1256
  145MOL   O22235070   7.655   7.021   7.743  0.6506 -0.5798  0.1822
  145MOL   C22335071   7.625   6.919   7.643  0.6487  0.7115  0.6087
  145MOL   H22435072   7.586   7.312   7.748 -0.9691 -0.1182  0.4565
  145MOL   H22535073   7.729   7.310   7.822 -0.1327 -0.7856 -2.8899
  145MOL   H22635074   7.507   7.187   0.065 -0.7017 -2.0263 -1.5098
  145MOL   H22735075   7.687   6.932   7.555 -0.8546 -1.3133 -0.7943
  145MOL   H22835076   7.523   6.924   7.604  0.3177  1.0399  1.5027
  145MOL   H22935077   7.637   6.819   7.686  1.0026  1.5927  2.6452
  145MOL   C23035078   7.705   7.141   0.104 -0.3239  0.2550  0.0513
  145MOL   C23135079   7.674   7.057   0.224  0.3536 -0.1457 -0.4112
  145MOL   C23235080   7.562   7.122   0.311 -0.9409  0.8841  0.0194
  145MOL   O23335081   7.440   7.099   0.291  0.2031 -0.1638  0.3009
  145MOL   O23435082   7.613   7.194   0.416 -0.4794 -0.1229  0.2682
  145MOL   C23535083   7.524   7.266   0.497 -0.2028 -0.3440  0.6216
  145MOL   H23635084   7.777   7.085   0.044  2.0889  1.7810  1.4075
  145MOL   H23735085   7.752   7.235   0.134  0.7802 -0.4787  0.6331
  145MOL   H23835086   7.762   7.034   0.283 -0.0049  2.5446  1.2342
  145MOL   H23935087   7.428   7.223   0.523 -0.1270 -0.2846  0.9990
  145MOL   H24035088   7.518   7.359   0.441 -1.6240 -0.2076  1.0068
  145MOL   H24135089   7.570   7.283   0.594  0.3746 -1.7947  0.6087
  145MOL   H24235090   7.636   6.960   0.191  1.2646 -1.0183  1.0465
  146MOL     C135091   5.496   6.602   6.463  0.1042 -0.4624 -0.8868
  146MOL     C235092   5.453   6.457   6.447  0.0645 -0.7223 -0.8713
  146MOL     C335093   5.554   6.377   6.368  0.8336 -0.2684  0.1367
  146MOL     O435094   5.510   6.333   6.265  0.3386 -0.2998 -0.0917
  146MOL     O535095   5.673   6.363   6.417  0.4543  0.0265  0.1333
  146MOL     C635096   5.763   6.273   6.352 -0.3801  0.2282 -0.5969
  146MOL     H735097   5.550   6.640   6.550 -0.7777  3.1069 -1.8027
  146MOL     H835098   5.409   6.668   6.469 -0.6126 -1.3652 -1.1953
  146MOL     H935099   5.364   6.447   6.385 -1.6974  3.5262  0.8263
  146MOL    H1035100   5.833   6.225   6.420  1.2967 -0.6694 -2.9197
  146MOL    H1135101   5.828   6.333   6.288 -1.8569 -0.3444 -2.6929
  146MOL    H1235102   5.714   6.200   6.287  0.2033 -1.2602  0.6106
  146MOL    H1335103   5.551   6.627   6.372 -2.0796  1.1060 -1.8375
  146MOL    C1435104   5.420   6.406   6.588  0.5460  0.0765 -0.3885
  146MOL    C1535105   5.310   6.298   6.591  0.0684 -0.8248 -0.5184
  146MOL    C1635106   5.332   6.157   6.517  1.2066 -0.9158  0.7445
  146MOL    O1735107   5.246   6.103   6.452 -0.4303  0.0009  0.4796
  146MOL    O1835108   5.454   6.111   6.539  0.0630 -0.4530  0.2406
  146MOL    C1935109   5.496   5.998   6.470  0.2738  0.6043  0.1363
  146MOL    H2035110   5.515   6.368   6.626  0.4325 -1.9690 -2.0055
  146MOL    H2135111   5.392   6.485   6.658 -0.9035 -1.2366  0.5609
  146MOL    H2235112   5.234   6.351   6.534  1.1631  0.8128 -0.4936
  146MOL    H2335113   5.604   5.985   6.483  0.2460 -0.5127 -0.7475
  146MOL    H2435114   5.486   6.017   6.363 -1.5856  0.7870  0.3288
  146MOL    H2535115   5.434   5.913   6.496  0.1880 -0.2262 -2.6541
  146MOL    C2635116   5.260   6.275   6.738  0.7570  0.1746 -0.1681
  146MOL    C2735117   5.120   6.214   6.747  0.2976  0.6346  0.6733
  146MOL    C2835118   5.091   6.163   6.892  0.3491 -0.5730 -0.1527
  146MOL    O2935119   4.978   6.181   6.941 -0.2101  0.0881 -0.2749
  146MOL    O3035120   5.195   6.100   6.940 -0.0205 -0.5748 -0.0472
  146MOL    C3135121   5.175   6.013   7.048  0.5762 -0.0723  0.5257
  146MOL    H3235122   5.338   6.223   6.795  1.5864  1.7000  0.1269
  146MOL    H3335123   5.256   6.375   6.782  0.2173  0.4599 -0.8567
  146MOL    H3435124   5.112   6.126   6.683  1.7458  1.3391 -0.5052
  146MOL    H3535125   5.179   5.910   7.014  0.5917 -0.5065  1.8082
  146MOL    H3635126   5.076   6.028   7.092 -0.6565 -1.4716 -1.6692
  146MOL    H3735127   5.253   6.030   7.122  0.3189  0.4831  0.6718
  146MOL    C3835128   4.994   6.297   6.687 -0.1896 -0.5321  0.2838
  146MOL    C3935129   4.952   6.436   6.736  0.8369 -0.4135  0.8437
  146MOL    C4035130   5.062   6.535   6.711 -0.1781 -0.5026 -0.1290
  146MOL    O4135131   5.111   6.560   6.602  0.0407 -0.3605  0.2283
  146MOL    O4235132   5.097   6.598   6.819 -0.6300 -0.7017 -0.4660
  146MOL    C4335133   5.193   6.696   6.817 -0.1152 -0.0715  0.5118
  146MOL    H4435134   5.003   6.299   6.579 -0.4271 -1.6023  0.2414
  146MOL    H4535135   4.914   6.228   6.717  0.0029  0.5023  3.3828
  146MOL    H4635136   4.935   6.426   6.843 -0.9215 -0.6217  0.5612
  146MOL    H4735137   5.284   6.659   6.771  1.2238  1.1793  2.0900
  146MOL    H4835138   5.218   6.717   6.921 -0.4656  1.5018  0.2859
  146MOL    H4935139   5.158   6.789   6.774  1.5865  0.5176  0.3686
  146MOL    C5035140   4.820   6.474   6.669 -0.1611  0.0446 -0.5666
  146MOL    C5135141   4.770   6.619   6.709 -0.2218  0.0325 -0.1912
  146MOL    C5235142   4.675   6.675   6.600  0.1591  0.6775  0.0317
  146MOL    O5335143   4.566   6.731   6.629 -0.0447  0.2278 -0.2713
  146MOL    O5435144   4.733   6.681   6.477 -0.2717  0.3676 -0.1487
  146MOL    C5535145   4.669   6.739   6.363  0.2336 -0.2875  0.1951
  146MOL    H5635146   4.838   6.481   6.562 -0.3672  0.0089 -0.6029
  146MOL    H5735147   4.760   6.387   6.696  0.4326 -0.4998 -0.9836
  146MOL    H5835148   4.850   6.693   6.716  0.4101 -0.9191  3.4698
  146MOL    H5935149   4.731   6.736   6.273 -0.4688 -1.1313 -0.2762
  146MOL    H6035150   4.623   6.834   6.388 -1.8074 -1.0423 -0.5751
  146MOL    H6135151   4.586   6.672   6.340 -0.1170  0.0650  0.4359
  146MOL    C6235152   4.709   6.622   6.853  0.2355  0.2542 -0.3011
  146MOL    C6335153   4.696   6.763   6.914 -0.7637  0.2059 -0.7952
  146MOL    C6435154   4.573   6.782   7.001  0.0015 -0.1553  0.3302
  146MOL    O6535155   4.522   6.689   7.066 -0.5285 -0.4309  0.3717
  146MOL    O6635156   4.525   6.906   7.004 -0.0362 -0.5896  0.2017
  146MOL    C6735157   4.402   6.945   7.067 -0.1473  0.7291  0.8176
  146MOL    H6835158   4.613   6.576   6.828 -0.8088  2.6726 -0.9153
  146MOL    H6935159   4.775   6.559   6.911  1.1616 -0.3543 -1.9701
  146MOL    H7035160   4.683   6.839   6.838 -0.4287  0.3869 -0.6752
  146MOL    H7135161   4.320   6.902   7.009  1.6885 -0.6173 -0.8395
  146MOL    H7235162   4.395   7.052   7.047 -2.5484  0.3135 -0.7561
  146MOL    H7335163   4.380   6.944   7.174 -0.1203 -0.0196  0.8199
  146MOL    C7435164   4.826   6.805   6.994 -0.1022 -0.3722  0.6642
  146MOL    C7535165   4.841   6.956   7.044 -0.0971 -0.5426 -0.5751
  146MOL    C7635166   4.951   6.951   7.147  0.8333 -0.0591  0.1693
  146MOL    O7735167   5.015   6.849   7.164 -0.0231  0.0869 -0.4180
  146MOL    O7835168   4.961   7.062   7.221  0.4686  0.3740 -0.6605
  146MOL    C7935169   5.062   7.085   7.312 -0.6540  0.1409 -0.8549
  146MOL    H8035170   4.840   6.729   7.070  0.5310 -0.7550  0.1758
  146MOL    H8135171   4.906   6.788   6.922 -0.3109 -3.4182  1.0945
  146MOL    H8235172   4.758   6.999   7.099  1.0404  2.1735 -0.9024
  146MOL    H8335173   5.050   7.188   7.347 -2.5986  1.2342 -4.5116
  146MOL    H8435174   5.157   7.072   7.260  0.5633  1.9637  0.8153
  146MOL    H8535175   5.046   7.013   7.392  2.0008 -0.1776 -0.5773
  146MOL    C8635176   4.875   7.048   6.915 -0.9995  0.3187  0.3531
  146MOL    C8735177   4.874   7.201   6.945 -0.0614  0.5262 -0.3641
  146MOL    C8835178   4.986   7.278   6.874 -0.1191  0.2067  0.6635
  146MOL    O8935179   5.085   7.315   6.942  0.0597  0.6333  0.5037
  146MOL    O9035180   4.957   7.298   6.747 -0.3261  0.0960  0.3824
  146MOL    C9135181   5.046   7.378   6.669 -0.2486  0.3279  0.1122
  146MOL    H9235182   4.974   7.017   6.881 -0.4240 -0.6884  2.8404
  146MOL    H9335183   4.806   7.028   6.834 -0.1605  2.2093 -0.8626
  146MOL    H9435184   4.896   7.217   7.051 -1.4214 -0.9062  0.1582
  146MOL    H9535185   5.103   7.457   6.718 -0.2331  0.9585 -0.9055
  146MOL    H9635186   4.979   7.430   6.602  1.2298 -0.1407 -1.7807
  146MOL    H9735187   5.122   7.317   6.619  1.6406  3.8237 -1.4564
  146MOL    C9835188   4.732   7.254   6.921 -0.8403 -0.3266 -0.3285
  146MOL    C9935189   4.711   7.407   6.947 -0.1030 -0.0147 -0.6159
  146MOL   C10035190   4.634   7.487   6.837 -0.0884  0.3306 -0.0924
  146MOL   O10135191   4.579   7.435   6.744 -0.2942 -0.3323  0.2247
  146MOL   O10235192   4.624   7.614   6.870 -0.2151 -0.4264  0.4392
  146MOL   C10335193   4.568   7.704   6.782  0.1870  0.2744  0.1860
  146MOL   H10435194   4.696   7.217   6.825 -1.7862 -1.1455  0.3261
  146MOL   H10535195   4.672   7.192   6.987  1.3273 -4.2039 -1.8641
  146MOL   H10635196   4.805   7.459   6.929  0.6931 -1.5183 -0.8743
  146MOL   H10735197   4.654   7.730   6.719  0.7228  2.4872  1.7844
  146MOL   H10835198   4.530   7.792   6.833  0.4871  0.1298  0.6603
  146MOL   H10935199   4.494   7.654   6.720 -0.7502 -0.7156  2.0685
  146MOL   C11035200   4.657   7.436   7.089  0.2752 -0.6114  0.0746
  146MOL   C11135201   4.758   7.418   7.214 -0.4811  0.1371 -0.0638
  146MOL   C11235202   4.881   7.514   7.197 -0.5018  0.5336  0.0398
  146MOL   O11335203   4.865   7.631   7.161 -0.8692  0.3920 -0.0560
  146MOL   O11435204   5.002   7.454   7.222 -0.0648  0.4853  0.4609
  146MOL   C11535205   5.120   7.516   7.172 -0.1486  0.3465  0.3448
  146MOL   H11635206   4.618   7.538   7.091  0.7488 -0.4216 -0.2589
  146MOL   H11735207   4.562   7.385   7.105  0.6457 -0.6468  2.2772
  146MOL   H11835208   4.803   7.319   7.215 -0.8206 -0.0170  0.3011
  146MOL   H11935209   5.198   7.442   7.191 -0.2981  0.2280  0.4936
  146MOL   H12035210   5.128   7.608   7.230  0.0040  0.0029  0.8749
  146MOL   H12135211   5.118   7.535   7.064 -0.7799  0.3071  0.3472
  146MOL   C12235212   4.690   7.444   7.348 -0.1911  0.1349  0.5333
  146MOL   C12335213   4.615   7.321   7.414 -0.5844 -0.4605  0.4640
  146MOL   C12435214   4.502   7.267   7.325  0.7130  0.5487  0.0264
  146MOL   O12535215   4.501   7.154   7.281  0.2058  0.0320 -0.8549
  146MOL   O12635216   4.412   7.362   7.314 -0.3717  0.0604  0.2149
  146MOL   C12735217   4.289   7.337   7.247  0.4629  0.3161 -0.4963
  146MOL   H12835218   4.758   7.489   7.421  1.9705 -4.5015  1.5230
  146MOL   H12935219   4.604   7.512   7.341 -1.6965 -1.9847 -2.4745
  146MOL   H13035220   4.565   7.359   7.502 -0.0003 -2.5486  1.7312
  146MOL   H13135221   4.229   7.255   7.287 -0.6114  0.9103 -0.8835
  146MOL   H13235222   4.310   7.325   7.141 -2.0797  0.6323 -1.0703
  146MOL   H13335223   4.217   7.418   7.254 -0.5955 -0.7981  2.7866
  146MOL   C13435224   4.716   7.214   7.452 -0.2530 -0.6303  0.4990
  146MOL   C13535225   4.662   7.130   7.569 -1.2292 -0.2468 -0.0399
  146MOL   C13635226   4.732   6.995   7.571 -0.4410  0.0332  0.0112
  146MOL   O13735227   4.664   6.897   7.542  0.4154  0.0320 -0.1272
  146MOL   O13835228   4.864   6.995   7.599 -0.7840 -0.1818 -0.1636
  146MOL   C13935229   4.930   6.873   7.604 -0.8812  0.1455  0.2118
  146MOL   H14035230   4.759   7.161   7.367  1.1128 -1.0098  1.4247
  146MOL   H14135231   4.806   7.261   7.490 -0.5552 -1.8643  2.8327
  146MOL   H14235232   4.556   7.118   7.545 -0.8881  0.3262 -1.9391
  146MOL   H14335233   4.903   6.816   7.693 -1.7854 -0.3857 -0.3830
  146MOL   H14435234   5.038   6.878   7.609 -0.8946  2.2380 -1.0969
  146MOL   H14535235   4.913   6.817   7.512  4.1170 -0.9251 -0.1834
  146MOL   C14635236   4.674   7.195   7.708 -0.0094 -0.3703 -0.4425
  146MOL   C14735237   4.570   7.143   7.813  0.1137 -0.3715  0.1480
  146MOL   C14835238   4.647   7.097   0.002  0.3282  0.2377 -0.5811
  146MOL   O14935239   4.641   6.980   0.040 -0.0036 -0.0675 -0.0294
  146MOL   O15035240   4.724   7.202   0.064  0.2870  0.7722  0.5835
  146MOL   C15135241   4.787   7.180   0.191  0.2782  0.6846  1.0137
  146MOL   H15235242   4.777   7.181   7.741 -1.0164 -2.7147  1.8685
  146MOL   H15335243   4.673   7.303   7.693 -1.1824 -0.3467 -0.2259
  146MOL   H15435244   4.515   7.058   7.773  1.8696 -0.6464 -1.7326
  146MOL   H15535245   4.837   7.271   0.223 -0.3259  1.3829  0.0132
  146MOL   H15635246   4.871   7.112   0.175 -0.6427 -0.1957 -0.2793
  146MOL   H15735247   4.715   7.147   0.266  1.8649  1.2557  2.8141
  146MOL   C15835248   4.459   7.243   7.865  0.7028 -0.3805  0.5618
  146MOL   C15935249   4.370   7.307   7.754 -0.0511  0.2100  0.2845
  146MOL   C16035250   4.281   7.197   7.689  0.0568  0.0123  0.5681
  146MOL   O16135251   4.285   7.170   7.568 -0.2852 -0.0739 -0.1501
  146MOL   O16235252   4.193   7.135   7.766 -0.2039 -0.3970 -0.2160
  146MOL   C16335253   4.112   7.037   7.701 -0.3547  0.3399  0.3190
  146MOL   H16435254   4.396   7.202   0.012  0.0230  0.8625  0.6804
  146MOL   H16535255   4.511   7.326   7.913  0.9398 -0.2184  0.0227
  146MOL   H16635256   4.421   7.343   7.665 -2.0095  1.9884 -0.1649
  146MOL   H16735257   4.040   6.996   7.772  0.6409  1.2486  1.8907
  146MOL   H16835258   4.171   6.962   7.649 -0.0782  2.1095 -1.9948
  146MOL   H16935259   4.053   7.087   7.624  1.1748  0.2881 -0.9121
  146MOL   C17035260   4.289   7.422   7.802  0.3528  0.6759 -0.5679
  146MOL   C17135261   4.365   7.555   7.820  0.1003  0.6766  0.3992
  146MOL   C17235262   4.413   7.620   7.695  0.5400  0.6664 -0.0778
  146MOL   O17335263   4.530   7.636   7.666  0.1794 -0.7781  0.3401
  146MOL   O17435264   4.314   7.652   7.609 -0.3921  0.5680 -0.6634
  146MOL   C17535265   4.352   7.689   7.479  0.0738  0.2603 -0.6736
  146MOL   H17635266   4.199   7.437   7.741 -0.2078 -0.8007 -0.1294
  146MOL   H17735267   4.244   7.401   7.898  2.4389 -1.2401  0.0278
  146MOL   H17835268   4.450   7.532   7.885 -0.4922 -0.1254  0.9006
  146MOL   H17935269   4.399   7.787   7.486  1.8084 -0.4473 -2.1709
  146MOL   H18035270   4.259   7.706   7.425 -1.4464 -3.4278  0.6022
  146MOL   H18135271   4.426   7.629   7.428  0.8714 -0.0774  0.8408
  146MOL   C18235272   4.279   7.651   7.902 -0.4781  0.2299  0.2229
  146MOL   C18335273   4.356   7.761   0.046 -0.0740 -0.7331 -0.4573
  146MOL   C18435274   4.454   7.850   7.897 -0.1392  0.9927 -0.3168
  146MOL   O18535275   4.424   7.929   7.809 -0.6704 -0.2645  0.2480
  146MOL   O18635276   4.578   7.813   7.917  0.2406  0.4634  0.7742
  146MOL   C18735277   4.685   7.878   7.855  0.5779 -0.3940 -0.5912
  146MOL   H18835278   4.187   7.675   7.848  0.5316 -1.2183 -2.2266
  146MOL   H18935279   4.244   7.592   0.054  0.8573 -1.8155 -0.6171
  146MOL   H19035280   4.418   7.705   0.115 -0.3446  0.3682  0.7079
  146MOL   H19135281   4.762   7.883   7.932 -1.1112  2.5419  0.9801
  146MOL   H19235282   4.662   0.035   7.798  0.6857 -1.5405 -2.4822
  146MOL   H19335283   4.734   7.818   7.778  0.9862  0.4069 -0.9628
  146MOL   C19435284   4.260   7.853   0.129  0.2942 -0.0193  0.8385
  146MOL   C19535285   4.314   7.926   0.248  0.2731  0.5970 -0.0069
  146MOL   C19635286   4.334   7.836   0.371 -0.3296 -0.2471 -0.3461
  146MOL   O19735287   4.443   7.788   0.392  0.4734 -0.1890  0.4164
  146MOL   O19835288   4.218   7.826   0.438 -0.0465 -0.4759  0.2716
  146MOL   C19935289   4.205   7.758   0.560 -0.2775 -0.2006 -0.4537
  146MOL   H20035290   4.206   7.919   0.061 -0.1771 -1.4414 -0.2109
  146MOL   H20135291   4.173   7.791   0.152 -1.0131  1.1078 -0.9199
  146MOL   H20235292   4.230   0.057   0.275  1.3295  1.4718  1.3258
  146MOL   H20335293   4.302   7.732   0.602 -0.0175  2.2106  0.4965
  146MOL   H20435294   4.147   7.670   0.532 -1.1142  0.5128 -0.9560
  146MOL   H20535295   4.154   7.820   0.633  0.6370 -1.6555  1.4595
  146MOL   C20635296   4.444   0.084   0.227 -0.9466  0.0740 -0.2378
  146MOL   C20735297   4.479   0.191   0.332 -0.8829 -0.0858  0.1825
  146MOL   C20835298   4.626   0.242   0.322 -0.3643  0.4696  0.4760
  146MOL   O20935299   4.697   0.215   0.223  0.4002 -0.1181  0.4999
  146MOL   O21035300   4.665   0.314   0.428  0.4527  0.1489  0.3637
  146MOL   C21135301   4.800   0.364   0.424 -0.1832 -0.0675  0.1188
  146MOL   H21235302   4.534   0.024   0.211 -1.6554 -1.2691  0.7313
  146MOL   H21335303   4.421   0.136   0.134 -0.6512  0.8137  0.1003
  146MOL   H21435304   4.457   0.144   0.428  1.9552 -1.3102  0.3003
  146MOL   H21535305   4.797   0.458   0.369 -0.5723 -0.0714  0.1319
  146MOL   H21635306   4.874   0.305   0.370  1.2499  2.2181 -0.4986
  146MOL   H21735307   4.842   0.369   0.525  0.9514 -3.0047 -0.1637
  146MOL   C21835308   4.373   0.309   0.331 -0.4600 -0.4961 -0.6265
  146MOL   C21935309   4.396   0.437   0.243 -0.4753 -0.8269  0.1858
  146MOL   C22035310   4.391   0.399   0.100 -0.1360  0.4378  0.7133
  146MOL   O22135311   4.483   0.435   0.027 -0.3711 -0.2063  0.1263
  146MOL   O22235312   4.273   0.338   0.072  0.8097 -0.0914  0.5286
  146MOL   C22335313   4.267   0.270   7.880 -0.5318 -0.0398  0.0577
  146MOL   H22435314   4.275   0.264   0.314 -0.6596 -0.0737 -0.5822
  146MOL   H22535315   4.374   0.341   0.435 -0.0657  0.1654 -0.8329
  146MOL   H22635316   4.495   0.477   0.264 -1.6508  2.7104 -0.5921
  146MOL   H22735317   4.195   0.188   7.887 -1.2578  0.4631 -1.4193
  146MOL   H22835318   4.359   0.223   7.847 -1.2681 -0.3096 -1.6707
  146MOL   H22935319   4.229   0.326   7.795 -0.5604 -0.2394 -0.0616
  146MOL   C23035320   4.295   0.552   0.272  0.1849  0.1686 -0.1481
  146MOL   C23135321   4.281   0.595   0.421  0.3934 -0.6986 -0.2032
  146MOL   C23235322   4.174   0.518   0.494 -0.2893  0.3004  0.3134
  146MOL   O23335323   4.062   0.501   0.449 -0.5734  0.4368  0.1214
  146MOL   O23435324   4.232   0.466   0.602 -0.2790 -0.4439  0.2771
  146MOL   C23535325   4.150   0.377   0.681  0.3756  0.3697 -0.5624
  146MOL   H23635326   4.323   0.649   0.230  2.0361 -0.1624  0.2979
  146MOL   H23735327   4.200   0.514   0.235  0.4998 -1.1003  0.2967
  146MOL   H23835328   4.254   0.701   0.419  0.7017 -0.6195 -0.1059
  146MOL   H23935329   4.145   0.287   0.620 -0.2712 -0.3746  0.5890
  146MOL   H24035330   4.046   0.411   0.686 -0.0380 -0.8022 -1.1079
  146MOL   H24135331   4.170   0.359   0.786  0.2462 -0.8577 -0.7399
  146MOL   H24235332   4.364   0.603   0.490 -0.3838  1.3837  0.5178
  147MOL     C135333   1.576   7.032   0.130  0.2046 -0.1068 -0.2697
  147MOL     C235334   1.532   6.925   0.026 -0.0083  0.3133  0.0464
  147MOL     C335335   1.482   6.796   0.083  0.4041 -0.4356  0.3412
  147MOL     O435336   1.417   6.794   0.189 -0.2203 -0.1297  0.2368
  147MOL     O535337   1.506   6.683   0.004 -0.2012  0.1892  0.0885
  147MOL     C635338   1.471   6.559   0.054 -0.3966 -0.0271  0.5295
  147MOL     H735339   1.592   7.119   0.066 -0.1608 -0.8911 -1.4347
  147MOL     H835340   1.666   7.000   0.181 -0.3982  0.3299  1.0972
  147MOL     H935341   1.621   6.895   7.903  0.3352  0.6728  0.3984
  147MOL    H1035342   1.519   6.535   0.149  2.1445 -0.7726 -0.8985
  147MOL    H1135343   1.509   6.485   7.916 -1.1038 -0.1027  0.2288
  147MOL    H1235344   1.364   6.555   0.074 -0.3589  0.3125  0.8101
  147MOL    H1335345   1.497   7.058   0.201 -0.2356 -1.6145 -0.2015
  147MOL    C1435346   1.434   6.984   7.852 -0.4513  0.4394 -0.0415
  147MOL    C1535347   1.411   6.910   7.714  0.3768 -0.0222 -0.2267
  147MOL    C1635348   1.273   6.926   7.660 -0.2215 -0.2797  0.1872
  147MOL    O1735349   1.185   6.838   7.663 -0.0590 -0.1022  1.5962
  147MOL    O1835350   1.255   7.044   7.598 -0.3438  0.0688  0.1581
  147MOL    C1935351   1.126   7.079   7.535  0.6268 -0.6662  0.0392
  147MOL    H2035352   1.334   6.980   7.895 -0.6873 -0.1904 -0.6485
  147MOL    H2135353   1.450   7.091   7.838 -0.1832  0.6447  1.7016
  147MOL    H2235354   1.410   6.806   7.748  0.0229  0.2128  0.4735
  147MOL    H2335355   1.094   7.002   7.465  0.0982 -1.4453  1.1146
  147MOL    H2435356   1.128   7.170   7.475 -2.7334 -0.5800 -0.0255
  147MOL    H2535357   1.049   7.088   7.611  0.7773  1.5979 -0.0425
  147MOL    C2635358   1.525   6.925   7.609 -0.3198 -0.0711 -0.0684
  147MOL    C2735359   1.531   6.810   7.504 -0.2488 -0.2057 -0.7934
  147MOL    C2835360   1.529   6.862   7.362  0.7505  0.4285 -0.4005
  147MOL    O2935361   1.442   6.827   7.283  0.1839  0.1322  0.1251
  147MOL    O3035362   1.637   6.951   7.329  0.6981 -0.3403  0.1186
  147MOL    C3135363   1.628   6.994   7.195 -0.0119 -0.2482  0.3810
  147MOL    H3235364   1.501   7.014   7.552  0.5308 -0.9992 -1.9217
  147MOL    H3335365   1.612   6.949   7.669  1.1010 -2.2460 -1.1868
  147MOL    H3435366   1.443   6.746   7.509 -1.0265  0.7970 -1.4513
  147MOL    H3535367   1.720   7.038   7.158  0.4875 -1.6312 -0.0804
  147MOL    H3635368   1.546   7.066   7.193 -0.9804 -1.3067  1.1281
  147MOL    H3735369   1.623   6.908   7.128 -1.8518 -0.2298  0.4482
  147MOL    C3835370   1.650   6.718   7.526 -0.0223  0.0070 -0.2061
  147MOL    C3935371   1.644   6.577   7.454  0.3055  0.4551  0.2300
  147MOL    C4035372   1.784   6.536   7.413 -0.5102 -0.1084 -0.1746
  147MOL    O4135373   1.834   6.600   7.322 -0.7670 -0.1209  0.7440
  147MOL    O4235374   1.839   6.441   7.486  0.1148 -0.5287  0.7886
  147MOL    C4335375   1.956   6.390   7.433 -0.7915 -0.3677 -0.3240
  147MOL    H4435376   1.737   6.780   7.502  2.4673 -3.2008  0.1812
  147MOL    H4535377   1.658   6.703   7.634  0.0966  0.1765 -0.1897
  147MOL    H4635378   1.589   6.583   7.361  1.5335 -0.5264 -0.5753
  147MOL    H4735379   1.991   6.302   7.488 -0.2208  0.2327  0.2826
  147MOL    H4835380   2.015   6.480   7.449 -2.6736  0.9579 -0.6600
  147MOL    H4935381   1.948   6.354   7.330  3.2955 -2.3021 -0.0796
  147MOL    C5035382   1.572   6.463   7.539  0.4927  0.4586 -0.4402
  147MOL    C5135383   1.425   6.478   7.564  0.7430 -0.1932 -0.0952
  147MOL    C5235384   1.339   6.506   7.438 -0.5626  0.7431  0.0992
  147MOL    O5335385   1.374   6.460   7.331 -0.2542  0.0231  0.2495
  147MOL    O5435386   1.234   6.584   7.470 -0.3643 -0.7630  0.1723
  147MOL    C5535387   1.178   6.667   7.365 -0.2262  0.2968  0.8878
  147MOL    H5635388   1.596   6.369   7.490 -0.1770  0.6292 -1.1160
  147MOL    H5735389   1.621   6.455   7.636  0.9363  0.8036 -0.6372
  147MOL    H5835390   1.412   6.565   7.628  0.5712 -1.4519  1.6137
  147MOL    H5935391   1.236   6.686   7.276 -0.8621  0.4471  0.5004
  147MOL    H6035392   1.181   6.768   7.406 -1.8795  0.3430  0.9610
  147MOL    H6135393   1.080   6.627   7.336 -0.6549  1.6967  0.3791
  147MOL    C6235394   1.382   6.344   7.634 -0.3792  0.0308  0.3446
  147MOL    C6335395   1.232   6.323   7.669  0.3901  0.2088 -0.6178
  147MOL    C6435396   1.186   6.181   7.717 -0.5509 -0.2044  0.6978
  147MOL    O6535397   1.091   6.130   7.670  0.0843 -0.0334  0.3049
  147MOL    O6635398   1.273   6.113   7.794 -0.5155  0.0718 -0.8291
  147MOL    C6735399   1.252   5.973   7.812 -0.3217  0.1812 -0.1133
  147MOL    H6835400   1.411   6.263   7.568  1.1122  1.0651 -0.2996
  147MOL    H6935401   1.451   6.329   7.717 -1.2186  0.2179  1.0833
  147MOL    H7035402   1.185   6.335   7.571  0.2346  0.9061 -0.4632
  147MOL    H7135403   1.336   5.922   7.859 -0.7153 -0.6229 -0.2730
  147MOL    H7235404   1.207   5.924   7.726  0.5138  1.1721 -1.1227
  147MOL    H7335405   1.176   5.959   7.889  1.0009 -1.7809  0.8840
  147MOL    C7435406   1.167   6.427   7.766  0.0593  0.1974  0.3638
  147MOL    C7535407   1.009   6.446   7.763  0.3175  0.0668  1.1541
  147MOL    C7635408   0.972   6.515   7.900 -0.9908 -0.2770 -0.0196
  147MOL    O7735409   0.887   6.457   0.040 -0.1476 -0.0068  0.7266
  147MOL    O7835410   1.042   6.624   7.928  0.0981  0.1320 -0.3709
  147MOL    C7935411   1.027   6.692   0.123  0.3238 -0.2995 -0.4175
  147MOL    H8035412   1.205   6.403   7.866  0.0581 -1.7265 -0.0750
  147MOL    H8135413   1.208   6.525   7.741  0.6017 -0.4376 -1.2444
  147MOL    H8235414   0.957   6.351   7.754 -1.0650  1.1746 -5.8849
  147MOL    H8335415   1.107   6.648   0.182 -1.8515  0.7931  3.5230
  147MOL    H8435416   0.927   6.673   0.162 -1.0446  2.8536 -2.1414
  147MOL    H8535417   1.052   6.794   0.092 -0.6633  0.8881  2.5398
  147MOL    C8635418   0.957   6.532   7.648  0.9134  0.2276  0.0968
  147MOL    C8735419   0.806   6.502   7.619  0.0128 -0.5150 -0.4843
  147MOL    C8835420   0.720   6.630   7.639  0.3540  0.5820 -0.2440
  147MOL    O8935421   0.632   6.634   7.726  0.5224 -0.3086 -0.1385
  147MOL    O9035422   0.747   6.726   7.560 -0.7717  0.0907  0.4255
  147MOL    C9135423   0.667   6.844   7.568 -0.1683  0.5059 -0.0224
  147MOL    H9235424   0.981   6.635   7.674  0.9127  0.0203  0.9532
  147MOL    H9335425   1.025   6.511   7.565  1.8791  4.1410 -0.2067
  147MOL    H9435426   0.761   6.433   7.689 -3.4344  0.6246 -1.5017
  147MOL    H9535427   0.686   6.905   7.480 -1.1411 -0.2866 -0.7883
  147MOL    H9635428   0.690   6.895   7.662 -0.5540  0.7772 -0.0774
  147MOL    H9735429   0.563   6.814   7.557 -0.0358 -0.1608  0.4657
  147MOL    C9835430   0.795   6.465   7.466 -0.3489  0.3160 -0.3531
  147MOL    C9935431   0.869   6.330   7.434 -0.1780  0.0829  0.3357
  147MOL   C10035432   0.785   6.209   7.494 -0.6715 -0.2396 -0.6956
  147MOL   O10135433   0.717   6.137   7.419  0.1351 -0.5014 -0.4615
  147MOL   O10235434   0.795   6.193   7.627  0.4167  0.3816  0.1399
  147MOL   C10335435   0.716   6.098   7.692  0.1837  0.1885  0.1154
  147MOL   H10435436   0.687   6.464   7.458 -0.3757  0.8376 -0.0863
  147MOL   H10535437   0.828   6.541   7.396  1.1388  2.1006  2.2024
  147MOL   H10635438   0.964   6.338   7.488 -1.2567 -0.1797  2.3117
  147MOL   H10735439   0.621   6.142   7.725 -0.1919  0.3010 -1.1157
  147MOL   H10835440   0.777   6.072   7.779 -0.5124  0.9527  0.8542
  147MOL   H10935441   0.692   6.011   7.632  1.1934 -0.7005  0.9804
  147MOL   C11035442   0.892   6.314   7.283 -0.1906  0.0218  0.1159
  147MOL   C11135443   0.973   6.178   7.246  0.8489  0.5020  0.2484
  147MOL   C11235444   1.007   6.168   7.091 -0.0041 -0.1887  0.8043
  147MOL   O11335445   0.973   6.069   7.024  0.0322 -0.5678 -0.2114
  147MOL   O11435446   1.073   6.276   7.035  0.0685  0.5673  0.1056
  147MOL   C11535447   1.131   6.264   6.906  0.2448  0.7450 -0.0100
  147MOL   H11635448   0.798   6.303   7.230  1.1122 -0.2957 -2.2023
  147MOL   H11735449   0.949   6.402   7.251  0.7961 -0.4050  0.6727
  147MOL   H11835450   0.910   6.092   7.266  0.1519  0.7707 -0.7475
  147MOL   H11935451   1.062   6.264   6.822  0.5688  4.0710 -0.3155
  147MOL   H12035452   1.201   6.180   6.910 -0.5613  0.1742  3.7996
  147MOL   H12135453   1.209   6.339   6.894  1.1743 -0.0894  0.6883
  147MOL   C12235454   1.102   6.154   7.326  0.0829 -0.1599 -0.1298
  147MOL   C12335455   1.175   6.022   7.305  0.2135 -0.1716  0.4450
  147MOL   C12435456   1.326   6.044   7.335  0.4741 -0.3254 -0.4058
  147MOL   O12535457   1.372   6.002   7.437 -0.1674 -1.0544 -0.5313
  147MOL   O12635458   1.379   6.127   7.243 -0.6044 -0.2652 -0.4880
  147MOL   C12735459   1.517   6.162   7.255  0.1111 -0.9718 -0.4287
  147MOL   H12835460   1.169   6.236   7.303 -0.6375  0.2960 -0.6134
  147MOL   H12935461   1.102   6.151   7.435  0.9947 -0.4993 -0.1376
  147MOL   H13035462   1.182   5.988   7.201  0.5856  0.4996  0.2519
  147MOL   H13135463   1.575   6.082   7.301  1.5245  1.7926  2.8278
  147MOL   H13235464   1.525   6.258   7.306 -1.4622 -1.6001  1.0536
  147MOL   H13335465   1.552   6.177   7.153 -2.2461 -0.0681 -1.1548
  147MOL   C13435466   1.106   5.912   7.393 -0.0337 -0.1074  0.0693
  147MOL   C13535467   1.135   5.767   7.359  0.0922  1.1755  0.6094
  147MOL   C13635468   1.132   5.738   7.206  0.3676 -0.5182  0.3633
  147MOL   O13735469   1.229   5.685   7.156 -0.4807 -0.1476  0.0912
  147MOL   O13835470   1.013   5.770   7.154 -0.2182 -0.2345  0.6595
  147MOL   C13935471   0.983   5.761   7.015  0.5491 -0.7292 -0.5025
  147MOL   H14035472   1.129   5.913   7.500 -0.2925 -3.0312  0.1923
  147MOL   H14135473   0.998   5.927   7.389  0.3554  3.5114  0.9007
  147MOL   H14235474   1.051   5.717   7.407  0.2721  0.8220  0.5591
  147MOL   H14335475   0.977   5.859   6.968  1.2059 -0.1118  0.6711
  147MOL   H14435476   0.887   5.714   6.997  0.1855 -0.0245 -0.4324
  147MOL   H14535477   1.060   5.699   6.968  1.8098 -0.6513  1.3975
  147MOL   C14635478   1.258   5.700   7.432 -0.2669 -0.1251 -0.3334
  147MOL   C14735479   1.284   5.550   7.427 -0.2938 -0.1555  0.1988
  147MOL   C14835480   1.391   5.512   7.526 -1.0135 -0.2079  0.9776
  147MOL   O14935481   1.513   5.502   7.494  0.0663  0.2041  0.0430
  147MOL   O15035482   1.338   5.501   7.648  0.0052 -0.0773  0.3250
  147MOL   C15135483   1.433   5.491   7.755  0.3105  0.7813  0.3954
  147MOL   H15235484   1.344   5.751   7.388  2.2662 -3.8422  0.0516
  147MOL   H15335485   1.256   5.733   7.536 -0.4909 -2.7104  0.5213
  147MOL   H15435486   1.329   5.529   7.330  0.7183  2.1020  0.1499
  147MOL   H15535487   1.458   5.386   7.764  1.7669  0.8248 -2.5432
  147MOL   H15635488   1.382   5.526   7.845  0.1832  1.6511 -0.0076
  147MOL   H15735489   1.523   5.551   7.741 -0.5537  1.8258 -0.8463
  147MOL   C15835490   1.150   5.466   7.446 -0.4527 -0.1201  0.6737
  147MOL   C15935491   1.160   5.320   7.436  0.2522  0.5325  0.2343
  147MOL   C16035492   1.035   5.248   7.494 -0.4794 -0.5604 -0.0483
  147MOL   O16135493   1.047   5.176   7.593  0.1975 -0.2545 -0.3335
  147MOL   O16235494   0.916   5.287   7.444 -0.3480 -0.5281 -0.1232
  147MOL   C16335495   0.808   5.200   7.475 -0.0714 -0.0065 -0.5354
  147MOL   H16435496   1.087   5.488   7.532 -2.3187  0.4761 -0.8031
  147MOL   H16535497   1.081   5.484   7.363  0.0401  0.7724  0.4500
  147MOL   H16635498   1.246   5.304   7.502 -0.4555 -1.1827  0.7674
  147MOL   H16735499   0.812   5.176   7.581 -1.1267  0.5164 -0.3729
  147MOL   H16835500   0.813   5.104   7.423  0.3480 -0.4347  0.2747
  147MOL   H16935501   0.710   5.239   7.449 -0.9801 -2.5643 -1.1800
  147MOL   C17035502   1.188   5.267   7.296  0.0942 -0.3487  0.1952
  147MOL   C17135503   1.258   5.128   7.285 -0.4190  0.4006  0.1488
  147MOL   C17235504   1.204   5.045   7.167  0.1178  0.2199  0.6744
  147MOL   O17335505   1.116   5.082   7.087 -0.0880  0.1796 -0.5379
  147MOL   O17435506   1.245   4.919   7.174 -0.2515 -0.0478 -0.3838
  147MOL   C17535507   1.219   4.820   7.077  0.3384  1.0026  0.0238
  147MOL   H17635508   1.100   5.272   7.231  2.3007 -4.2902 -3.3595
  147MOL   H17735509   1.254   5.332   7.239 -1.2356 -0.6642 -1.7628
  147MOL   H17835510   1.216   5.079   7.373 -1.8992  0.3271 -0.5920
  147MOL   H17935511   1.290   4.740   7.100 -0.1078 -0.3189 -3.0148
  147MOL   H18035512   1.264   4.844   6.981 -1.2478 -0.8944 -1.2328
  147MOL   H18135513   1.116   4.785   7.068  1.4585 -2.2696 -0.6799
  147MOL   C18235514   1.411   5.134   7.303 -0.1231 -0.5929 -0.6285
  147MOL   C18335515   1.503   5.134   7.167 -0.3972 -0.1130  0.2554
  147MOL   C18435516   1.462   5.249   7.077 -0.0739  0.0422  0.1776
  147MOL   O18535517   1.415   5.222   6.966 -0.3282 -0.1670  1.1047
  147MOL   O18635518   1.486   5.378   7.132  0.0897  0.8662 -0.1673
  147MOL   C18735519   1.459   5.490   7.061  0.2223  0.0256  0.1971
  147MOL   H18835520   1.427   5.228   7.356 -1.0863 -1.2500  0.8606
  147MOL   H18935521   1.448   5.056   7.369  0.5317 -0.5851 -0.9871
  147MOL   H19035522   1.467   5.043   7.119 -1.1905 -0.2405  1.0917
  147MOL   H19135523   1.463   5.576   7.127  2.3338 -1.2090  1.7268
  147MOL   H19235524   1.356   5.488   7.025  0.4556 -1.6067 -0.4388
  147MOL   H19335525   1.531   5.500   6.980  1.1301 -1.1375  0.8433
  147MOL   C19435526   1.654   5.126   7.181 -0.0166  0.4171  0.1752
  147MOL   C19535527   1.707   5.003   7.244 -0.3684  0.6387  0.4180
  147MOL   C19635528   1.707   4.881   7.152 -0.5768 -0.0541  1.2376
  147MOL   O19735529   1.781   4.860   7.056 -0.1564  0.1971  0.2014
  147MOL   O19835530   1.596   4.804   7.184 -0.3148 -0.0681  0.7835
  147MOL   C19935531   1.580   4.689   7.101  0.1505 -0.2175  0.2234
  147MOL   H20035532   1.693   5.139   7.080 -0.2453 -3.4124 -0.4811
  147MOL   H20135533   1.678   5.217   7.236 -2.4079  1.4200 -0.3540
  147MOL   H20235534   1.652   4.986   7.337 -1.9309 -1.7050 -0.8937
  147MOL   H20335535   1.665   4.622   7.109  1.9481  2.2269  2.4069
  147MOL   H20435536   1.564   4.724   6.998  0.4508 -2.2749 -0.5434
  147MOL   H20535537   1.486   4.635   7.113  0.9993 -1.3781  1.6737
  147MOL   C20635538   1.864   5.020   7.285 -0.0723  0.6814  0.3958
  147MOL   C20735539   1.901   5.130   7.392  0.4009  0.9622  0.1295
  147MOL   C20835540   1.807   5.101   7.508 -0.3419 -0.2358 -0.2790
  147MOL   O20935541   1.834   5.017   7.596  0.1620 -0.8556  0.1232
  147MOL   O21035542   1.701   5.181   7.512 -0.1645 -0.6836 -0.0769
  147MOL   C21135543   1.601   5.168   7.615  1.2009 -0.2760 -0.2446
  147MOL   H21235544   1.914   4.926   7.309 -1.7953 -0.5803 -0.8390
  147MOL   H21335545   1.926   5.053   7.201 -2.2603 -0.5813 -1.7898
  147MOL   H21435546   1.879   5.231   7.357  0.3744  0.8505 -0.1751
  147MOL   H21535547   1.524   5.245   7.621  1.0940 -0.3847 -0.2368
  147MOL   H21635548   1.647   5.166   7.714 -1.0242 -1.4964  0.7865
  147MOL   H21735549   1.544   5.077   7.604  1.0090 -0.2257  0.3318
  147MOL   C21835550   2.052   5.119   7.432  0.3680  0.4119 -0.1897
  147MOL   C21935551   2.098   5.245   7.508  0.2465  0.2710 -0.2550
  147MOL   C22035552   2.225   5.214   7.590 -0.2752 -0.5521  0.4239
  147MOL   O22135553   2.260   5.286   7.685 -0.2740  0.2734  0.0682
  147MOL   O22235554   2.293   5.109   7.548  0.4666  0.1516  0.1157
  147MOL   C22335555   2.411   5.067   7.607  0.0065  0.2649 -0.2938
  147MOL   H22435556   2.067   5.030   7.492  1.5896 -0.7086 -2.0952
  147MOL   H22535557   2.120   5.116   7.346  1.5788 -2.9808  0.8362
  147MOL   H22635558   2.016   5.260   7.578 -0.9974 -4.7001 -0.4604
  147MOL   H22735559   2.478   5.149   7.633  1.0778 -0.5855 -0.3474
  147MOL   H22835560   2.461   5.000   7.538  0.4933  0.6830 -0.3430
  147MOL   H22935561   2.390   5.016   7.701  0.0387  0.9402  0.0878
  147MOL   C23035562   2.120   5.373   7.426 -0.2694 -0.6770 -0.0240
  147MOL   C23135563   2.123   5.510   7.508 -0.1301  0.2707  0.1537
  147MOL   C23235564   1.979   5.553   7.551 -0.2769  0.2587  0.2994
  147MOL   O23335565   1.940   5.662   7.516 -0.2600 -0.3878 -0.0080
  147MOL   O23435566   1.912   5.463   7.632  0.6987  0.0392  0.0458
  147MOL   C23535567   1.790   5.498   7.695  0.0217  0.0961  0.0082
  147MOL   H23635568   2.213   5.363   7.370 -0.0227  0.6838  0.1271
  147MOL   H23735569   2.034   5.384   7.361 -1.4354 -0.0705  1.5771
  147MOL   H23835570   2.171   5.583   7.443  1.7317 -1.0678 -0.0259
  147MOL   H23935571   1.729   5.563   7.632  2.4387  1.1103 -1.3842
  147MOL   H24035572   1.811   5.552   7.787 -1.2069  2.1107 -0.8590
  147MOL   H24135573   1.736   5.411   7.731 -0.4725 -0.5436 -2.1660
  147MOL   H24235574   2.192   5.508   7.592 -1.1052  0.3626  0.9632
  148MOL     C135575   4.877   2.042   6.384 -0.0122 -0.2550 -0.5655
  148MOL     C235576   4.864   2.174   6.297  0.6856  0.4185  0.3015
  148MOL     C335577   4.810   2.293   6.366  0.1919 -1.1598  0.3138
  148MOL     O435578   4.846   2.320   6.481 -0.1375 -0.0953 -0.4516
  148MOL     O535579   4.754   2.381   6.275  0.1991  0.3470  0.0225
  148MOL     C635580   4.716   2.513   6.311 -0.9366 -0.3255 -0.2143
  148MOL     H735581   4.868   1.961   6.312 -0.1514  0.1308 -0.9890
  148MOL     H835582   4.797   2.046   6.458 -1.0533 -2.3927 -1.5542
  148MOL     H935583   4.781   2.154   6.230  0.1171  0.4635  0.9873
  148MOL    H1035584   4.640   2.501   6.389 -0.8456  0.0203 -0.0720
  148MOL    H1135585   4.678   2.560   6.221 -2.7065  0.4251  0.9031
  148MOL    H1235586   4.790   2.576   6.359  0.0557 -1.2739 -0.4825
  148MOL    H1335587   4.967   2.030   6.444 -0.4372 -2.0686 -0.2866
  148MOL    C1435588   4.988   2.202   6.222  0.6471 -0.3954  0.1941
  148MOL    C1535589   5.006   2.118   6.089 -0.7903  0.4665  0.2810
  148MOL    C1635590   4.917   2.170   5.971  0.7456 -0.0108  0.1505
  148MOL    O1735591   4.847   2.100   5.901  0.2451  0.0024 -0.7431
  148MOL    O1835592   4.941   2.303   5.949  0.1117  0.3214 -1.0435
  148MOL    C1935593   4.880   2.373   5.844 -0.1556  0.5263 -0.5561
  148MOL    H2035594   4.990   2.305   6.187 -1.4142 -0.6719 -0.8081
  148MOL    H2135595   5.079   2.197   6.282  0.1792 -0.9152  0.8668
  148MOL    H2235596   4.966   2.017   6.102 -3.9519  1.4804 -1.1347
  148MOL    H2335597   4.865   2.313   5.754 -0.4142  0.4684 -0.4763
  148MOL    H2435598   4.921   2.465   5.803 -0.8531  2.4017  2.7635
  148MOL    H2535599   4.778   2.403   5.871 -0.7690 -3.0795  1.4642
  148MOL    C2635600   5.156   2.116   6.055 -0.1612  0.9216  1.0010
  148MOL    C2735601   5.226   2.008   6.141  0.0237 -0.4633 -0.4440
  148MOL    C2835602   5.181   1.869   6.099  0.4444  0.1427 -0.2127
  148MOL    O2935603   5.122   1.796   6.172 -0.0126  0.2470  0.3892
  148MOL    O3035604   5.208   1.839   5.966 -0.0627 -0.3270 -0.8395
  148MOL    C3135605   5.182   1.712   5.909 -0.1812  0.2807 -0.2970
  148MOL    H3235606   5.172   2.083   5.952 -0.4318 -2.1115  1.9039
  148MOL    H3335607   5.199   2.216   6.068 -0.7384  0.8192  3.9418
  148MOL    H3435608   5.186   2.012   6.242  1.3041  0.4634  0.0502
  148MOL    H3535609   5.151   1.726   5.805 -2.0992 -1.1272  0.0370
  148MOL    H3635610   5.091   1.667   5.950  0.2063 -1.5204 -1.3496
  148MOL    H3735611   5.274   1.655   5.918  1.0861  2.3591  0.1153
  148MOL    C3835612   5.376   2.022   6.153  0.4281  0.2532 -0.3803
  148MOL    C3935613   5.447   1.998   6.283 -0.5243  0.4134 -0.7951
  148MOL    C4035614   5.429   2.115   6.378  0.5782 -0.0685 -0.0327
  148MOL    O4135615   5.516   2.199   6.405 -0.5754 -0.7701  0.3520
  148MOL    O4235616   5.300   2.124   6.427  0.4147  0.0255 -0.0171
  148MOL    C4335617   5.272   2.215   6.534  0.1877  0.3666 -0.1819
  148MOL    H4435618   5.417   1.944   6.089 -0.2381 -0.7000  0.3438
  148MOL    H4535619   5.413   2.117   6.113  1.2274 -0.4424 -1.2899
  148MOL    H4635620   5.555   2.002   6.266 -0.7674 -1.9802 -3.2407
  148MOL    H4735621   5.319   2.179   6.626  1.9774 -0.0724 -1.2459
  148MOL    H4835622   5.164   2.206   6.544  0.3487 -1.6570 -0.1393
  148MOL    H4935623   5.310   2.315   6.511  1.5482 -0.1169 -0.0955
  148MOL    C5035624   5.415   1.855   6.342  0.4895 -0.1338  0.2698
  148MOL    C5135625   5.482   1.826   6.482 -0.3087 -0.0850 -0.4553
  148MOL    C5235626   5.630   1.866   6.486  0.3741  0.1725 -0.6234
  148MOL    O5335627   5.671   1.977   6.529  0.0520 -0.3417 -0.0954
  148MOL    O5435628   5.705   1.766   6.447  0.0025  0.2139  0.3997
  148MOL    C5535629   5.847   1.784   6.434 -0.2327 -0.4014 -0.5146
  148MOL    H5635630   5.307   1.841   6.343  0.0894  2.4433 -1.9130
  148MOL    H5735631   5.457   1.785   6.269  0.9319  1.3224 -0.8993
  148MOL    H5835632   5.486   1.717   6.479 -2.5547 -0.1605 -1.8377
  148MOL    H5935633   5.868   1.813   6.331  0.0011  1.8449  0.1261
  148MOL    H6035634   5.897   1.690   6.458 -1.3473 -0.6757  0.8002
  148MOL    H6135635   5.882   1.865   6.499  0.7154 -0.5892 -0.7929
  148MOL    C6235636   5.399   1.864   6.604 -0.1111  0.8284 -0.1576
  148MOL    C6335637   5.398   1.761   6.724 -0.0436 -0.2722  0.2600
  148MOL    C6435638   5.538   1.710   6.762  0.2209 -0.3986  0.0235
  148MOL    O6535639   5.582   1.603   6.718  0.2419  0.9732 -0.3007
  148MOL    O6635640   5.604   1.796   6.841 -0.1972 -0.6463 -0.2697
  148MOL    C6735641   5.742   1.776   6.864 -0.1274  0.0246  0.5994
  148MOL    H6835642   5.434   1.952   6.658  0.1264  1.0334 -0.6446
  148MOL    H6935643   5.296   1.889   6.577 -0.6630 -1.1541  0.0150
  148MOL    H7035644   5.361   1.666   6.687  0.8419 -0.8747  0.9229
  148MOL    H7135645   5.796   1.791   6.770 -0.8743  0.1054  0.1804
  148MOL    H7235646   5.768   1.678   6.903 -0.1181 -0.1131  0.2535
  148MOL    H7335647   5.774   1.854   6.933  1.4417 -1.3371  1.4436
  148MOL    C7435648   5.327   1.806   6.854  0.2991  0.5833  0.5535
  148MOL    C7535649   5.169   1.788   6.848  1.2987  0.9382 -0.3177
  148MOL    C7635650   5.141   1.641   6.811  0.2663 -0.2471 -0.0298
  148MOL    O7735651   5.080   1.620   6.705  0.5199 -0.2282 -0.7458
  148MOL    O7835652   5.177   1.555   6.907  0.2273 -0.0733 -0.2800
  148MOL    C7935653   5.150   1.422   6.904 -0.0675 -0.3227  0.0063
  148MOL    H8035654   5.367   1.739   6.929  1.4931 -0.2256 -0.7741
  148MOL    H8135655   5.359   1.907   6.878  2.8792 -0.7597  3.0426
  148MOL    H8235656   5.137   1.854   6.768  0.9773 -0.7529 -1.6313
  148MOL    H8335657   5.043   1.401   6.910  0.0438 -0.9876 -0.3126
  148MOL    H8435658   5.200   1.378   6.990 -0.7766 -0.7716  0.1923
  148MOL    H8535659   5.191   1.370   6.818  0.4106 -1.8211  1.1251
  148MOL    C8635660   5.083   1.830   6.970  0.1898 -0.8539 -0.1381
  148MOL    C8735661   5.106   1.973   7.024 -0.0372  0.0366 -0.0887
  148MOL    C8835662   5.064   2.075   6.917  0.3379  0.2698  0.1149
  148MOL    O8935663   5.129   2.181   6.899 -0.9086  0.0032  0.3242
  148MOL    O9035664   4.943   2.046   6.858  0.6019 -0.2602  0.0391
  148MOL    C9135665   4.885   2.127   6.751 -0.0933 -0.6944  0.5885
  148MOL    H9235666   4.977   1.812   6.952  0.4903 -2.0727 -0.7197
  148MOL    H9335667   5.091   1.758   7.053 -0.5798 -1.2648 -0.4136
  148MOL    H9435668   5.211   1.993   7.043  0.0475  0.0158 -0.5470
  148MOL    H9535669   4.926   2.228   6.749  1.9843 -1.4372  2.6761
  148MOL    H9635670   4.777   2.130   6.766  0.1214 -0.2094  2.0973
  148MOL    H9735671   4.914   2.076   6.659  3.8057  0.5717  1.0133
  148MOL    C9835672   5.018   1.991   7.159  0.3095 -0.6872 -0.4377
  148MOL    C9935673   5.035   2.128   7.231  0.0590 -0.3965  0.6715
  148MOL   C10035674   4.956   2.125   7.357 -0.8554  0.5493  0.6520
  148MOL   O10135675   5.003   2.150   7.470 -0.4556  0.3031  0.2642
  148MOL   O10235676   4.829   2.091   7.337  0.0826  0.0594 -0.0129
  148MOL   C10335677   4.738   2.065   7.445  0.7793 -0.1752 -0.4690
  148MOL   H10435678   4.914   1.964   7.136 -0.2781  1.7811 -0.7840
  148MOL   H10535679   5.052   1.917   7.232  0.8019 -0.6400 -0.6180
  148MOL   H10635680   4.986   2.203   7.170  1.6233  0.2755  0.2047
  148MOL   H10735681   4.687   2.152   7.485  0.3245 -0.9541  0.6856
  148MOL   H10835682   4.783   2.023   7.535  0.9389  0.4234 -0.2671
  148MOL   H10935683   4.653   2.002   7.418  0.7196  0.5874 -2.0976
  148MOL   C11035684   5.177   2.185   7.255  0.1823  0.7317 -0.9219
  148MOL   C11135685   5.206   2.340   7.256  0.4099 -0.6060  0.2107
  148MOL   C11235686   5.149   2.401   7.125 -1.0267 -0.6565  0.1634
  148MOL   O11335687   5.035   2.448   7.111  0.0081 -0.0384 -0.1008
  148MOL   O11435688   5.241   2.396   7.027  0.1732  0.5063 -0.4389
  148MOL   C11535689   5.209   2.469   6.904 -0.7695  0.5527  0.3005
  148MOL   H11635690   5.218   2.132   7.341  0.1242  0.4397 -1.0733
  148MOL   H11735691   5.231   2.142   7.171 -0.2711 -2.1311  0.1941
  148MOL   H11835692   5.312   2.364   7.264  0.3564 -0.7912  1.5450
  148MOL   H11935693   5.261   2.410   6.829 -0.7003  1.0005  0.0014
  148MOL   H12035694   5.237   2.574   6.903 -3.1812  1.2279 -0.8942
  148MOL   H12135695   5.103   2.467   6.878 -0.7899  1.0507  0.3456
  148MOL   C12235696   5.139   2.422   7.367  0.4191  0.4753 -0.0417
  148MOL   C12335697   5.190   2.564   7.386 -0.0974  0.1518 -0.0884
  148MOL   C12435698   5.107   2.640   7.488 -1.0554  0.3543  0.3108
  148MOL   O12535699   5.017   2.717   7.456  0.5878 -0.5981 -0.0796
  148MOL   O12635700   5.151   2.618   7.615 -0.1841  0.3174 -0.8288
  148MOL   C12735701   5.087   2.683   7.726  0.0109 -0.2312 -0.1289
  148MOL   H12835702   5.033   2.424   7.344  0.5418  0.4684 -0.6078
  148MOL   H12935703   5.143   2.369   7.463  0.2323  2.2023  0.9328
  148MOL   H13035704   5.177   2.613   7.289  0.2585 -0.7694 -0.6081
  148MOL   H13135705   5.082   2.791   7.709 -0.8519  0.0874  1.9741
  148MOL   H13235706   5.129   2.655   7.823 -0.4281 -2.1603 -0.4753
  148MOL   H13335707   4.984   2.651   7.741 -0.0717 -0.1954 -0.6286
  148MOL   C13435708   5.335   2.572   7.420 -0.5850 -0.1272 -0.4619
  148MOL   C13535709   5.428   2.596   7.296  0.1916  0.3577  0.2969
  148MOL   C13635710   5.465   2.744   7.276  0.0344 -0.6337  0.1466
  148MOL   O13735711   5.585   2.775   7.257  0.4664 -0.8222 -0.1822
  148MOL   O13835712   5.356   2.824   7.277  0.3390 -0.1110  0.1971
  148MOL   C13935713   5.374   2.962   7.240  0.6782 -0.4852  0.5795
  148MOL   H14035714   5.360   2.658   7.482 -3.3187 -0.2230  0.8546
  148MOL   H14135715   5.368   2.494   7.489  1.6408 -0.0925 -1.4401
  148MOL   H14235716   5.371   2.573   7.207  0.8921 -2.1863  0.4740
  148MOL   H14335717   5.276   2.998   7.206 -0.2836 -2.8259  0.7680
  148MOL   H14435718   5.428   2.984   7.148  0.8349  0.3930  0.8727
  148MOL   H14535719   5.401   3.021   7.327 -0.8526  2.1661 -0.6616
  148MOL   C14635720   5.549   2.500   7.293 -0.1799  0.0908  0.6060
  148MOL   C14735721   5.582   2.444   7.150 -0.6478  0.4533 -0.1217
  148MOL   C14835722   5.614   2.548   7.042 -0.2149 -0.4774  0.4175
  148MOL   O14935723   5.528   2.578   6.955  0.1465  0.6398 -0.4857
  148MOL   O15035724   5.745   2.598   7.062 -0.1818 -0.3393  0.1448
  148MOL   C15135725   5.792   2.689   6.970 -0.1304 -0.6487  0.1292
  148MOL   H15235726   5.633   2.549   7.343  1.1091 -2.1103  0.6767
  148MOL   H15335727   5.532   2.412   7.354 -0.9477 -0.3404 -0.2205
  148MOL   H15435728   5.495   2.383   7.123 -2.5098  1.0395  4.0195
  148MOL   H15535729   5.730   2.778   6.955  0.8540  0.0241  0.0138
  148MOL   H15635730   5.795   2.637   6.875 -0.6698 -0.8019  0.1938
  148MOL   H15735731   5.891   2.734   6.978 -0.1632 -0.2307 -1.7843
  148MOL   C15835732   5.686   2.332   7.156 -0.1547 -0.0722  0.2575
  148MOL   C15935733   5.630   2.187   7.158  0.8486 -0.4299  0.0961
  148MOL   C16035734   5.559   2.149   7.022 -0.4124 -0.1735 -0.3935
  148MOL   O16135735   5.447   2.109   7.020 -0.7854 -0.0692 -0.0655
  148MOL   O16235736   5.636   2.170   6.920 -0.0992  0.3279  0.3117
  148MOL   C16335737   5.580   2.127   6.796  0.1816 -0.6433 -0.5202
  148MOL   H16435738   5.748   2.334   7.066 -2.3642 -0.9561 -1.3347
  148MOL   H16535739   5.747   2.348   7.245 -0.4335  0.5086  0.3449
  148MOL   H16635740   5.557   2.189   7.239  0.9646 -1.2500  0.2209
  148MOL   H16735741   5.472   2.140   6.789  0.5724  2.7821 -0.9733
  148MOL   H16835742   5.609   2.023   6.782 -1.6063 -2.0532  4.9935
  148MOL   H16935743   5.616   2.185   6.711 -0.7253 -0.2234 -0.6231
  148MOL   C17035744   5.744   2.086   7.203  0.2217 -0.8912  0.6418
  148MOL   C17135745   5.717   1.931   7.209 -0.3548 -0.5168 -0.2512
  148MOL   C17235746   5.852   1.860   7.228  0.2857 -0.1621  0.4642
  148MOL   O17335747   5.919   1.833   7.131  0.0876  0.6355  0.1401
  148MOL   O17435748   5.880   1.842   7.356  0.2833  0.4797  0.3876
  148MOL   C17535749   5.985   1.754   7.385  0.4280 -0.3398  0.1594
  148MOL   H17635750   5.825   2.108   7.134 -0.3989  0.2083  0.2621
  148MOL   H17735751   5.771   2.117   7.304 -0.5998 -0.5976  0.7735
  148MOL   H17835752   5.658   1.913   7.119 -0.2100  1.0904 -0.6817
  148MOL   H17935753   6.024   1.761   7.486  1.4176  0.9959 -0.3141
  148MOL   H18035754   6.068   1.779   7.319  0.1353 -0.7187 -0.3627
  148MOL   H18135755   5.939   1.656   7.369 -0.2093  0.2613 -1.8270
  148MOL   C18235756   5.612   1.913   7.326 -0.1280  0.4581  0.1713
  148MOL   C18335757   5.562   1.771   7.347  0.0367 -0.7332 -0.1302
  148MOL   C18435758   5.443   1.760   7.453 -0.3029  0.1104  1.0033
  148MOL   O18535759   5.469   1.724   7.566  0.1418 -0.2212 -0.0571
  148MOL   O18635760   5.315   1.773   7.410  0.1895  0.4439  0.5464
  148MOL   C18735761   5.199   1.746   7.491  0.5271  0.2452 -0.2432
  148MOL   H18835762   5.652   1.960   7.415  2.1916 -0.0512 -0.5713
  148MOL   H18935763   5.524   1.974   7.305  0.8862  1.1499 -2.2928
  148MOL   H19035764   5.649   1.721   7.390 -0.2985 -1.9949 -0.8590
  148MOL   H19135765   5.170   1.828   7.556 -0.3318 -0.5964  0.4520
  148MOL   H19235766   5.229   1.658   7.547 -1.9292  0.2856  1.2347
  148MOL   H19335767   5.117   1.730   7.421  1.7483  0.8047 -1.8294
  148MOL   C19435768   5.524   1.690   7.216  0.1690  0.2391 -0.5990
  148MOL   C19535769   5.525   1.535   7.218 -0.1787 -0.2491 -0.6156
  148MOL   C19635770   5.393   1.474   7.264 -0.2653  0.5038 -0.3659
  148MOL   O19735771   5.390   1.382   7.353 -0.2355 -0.3576 -0.1772
  148MOL   O19835772   5.284   1.515   7.192 -0.2527 -0.3503  0.3027
  148MOL   C19935773   5.159   1.472   7.239  0.6975  0.2449 -0.3080
  148MOL   H20035774   5.424   1.723   7.188 -1.2381 -0.8689  2.8579
  148MOL   H20135775   5.595   1.722   7.140  1.7650 -0.2740  0.6308
  148MOL   H20235776   5.595   1.496   7.292 -1.7038  3.6567  3.0916
  148MOL   H20335777   5.165   1.363   7.247 -0.5394  0.3824  3.3701
  148MOL   H20435778   5.086   1.517   7.173 -0.8275  0.6124  1.5893
  148MOL   H20535779   5.138   1.520   7.334 -1.6171 -0.8831 -0.2131
  148MOL   C20635780   5.565   1.483   7.084 -0.0388 -0.1711  0.0585
  148MOL   C20735781   5.563   1.327   7.058 -0.0282  0.3141  0.3454
  148MOL   C20835782   5.500   1.286   6.925  0.2499  0.1282 -0.5405
  148MOL   O20935783   5.387   1.245   6.912  0.2001 -0.0231 -0.1497
  148MOL   O21035784   5.586   1.311   6.824 -0.7130 -0.4053  0.4037
  148MOL   C21135785   5.544   1.285   6.690  0.0273  0.1063  0.6790
  148MOL   H21235786   5.502   1.528   7.007 -0.2140  0.6129  0.6518
  148MOL   H21335787   5.663   1.519   7.051  0.0250  1.0177  1.5201
  148MOL   H21435788   5.493   1.274   7.123 -0.4926 -2.1157 -2.0352
  148MOL   H21535789   5.619   1.322   6.620  0.7662  0.6656  1.7423
  148MOL   H21635790   5.450   1.338   6.674 -0.2263  1.0729  4.7064
  148MOL   H21735791   5.525   1.178   6.681 -0.7347  0.4040 -1.7283
  148MOL   C21835792   5.701   1.255   7.084  0.1983 -0.2882 -0.6142
  148MOL   C21935793   5.740   1.237   7.232 -0.0935  0.4207  0.6099
  148MOL   C22035794   5.634   1.162   7.312  0.0242  0.3555 -0.5763
  148MOL   O22135795   5.565   1.074   7.261  0.4732  0.5815  0.0053
  148MOL   O22235796   5.618   1.200   7.441 -0.0300 -0.2552 -0.1030
  148MOL   C22335797   5.520   1.139   7.519 -0.1254 -0.4973 -0.4325
  148MOL   H22435798   5.693   1.155   7.041 -1.2654 -0.4010 -0.1081
  148MOL   H22535799   5.782   1.308   7.034  1.1593 -0.9761  0.1855
  148MOL   H22635800   5.751   1.337   7.275  0.0983  0.8950 -0.5195
  148MOL   H22735801   5.544   1.033   7.513  1.3870 -0.0890 -2.4971
  148MOL   H22835802   5.418   1.152   7.484  0.9233  3.3374 -2.3786
  148MOL   H22935803   5.526   1.177   7.621 -3.4063  4.5985 -1.9241
  148MOL   C23035804   5.870   1.158   7.238 -0.4178 -0.1765 -0.0916
  148MOL   C23135805   5.951   1.157   7.370 -0.0688 -0.4029 -0.2325
  148MOL   C23235806   6.040   1.276   7.400 -0.4070  0.5795  0.6197
  148MOL   O23335807   6.049   1.368   7.327  0.0084 -0.3035 -0.2217
  148MOL   O23435808   6.096   1.252   7.519  0.0838  0.0131 -0.1298
  148MOL   C23535809   6.177   1.354   7.574  0.0303  0.5318 -0.0681
  148MOL   H23635810   5.841   1.054   7.220 -0.1780  0.1239 -2.3989
  148MOL   H23735811   5.940   1.188   7.160 -0.9232  0.6745 -0.2149
  148MOL   H23835812   6.005   1.063   7.367 -0.0654 -0.5645  2.8051
  148MOL   H23935813   6.145   1.374   7.676  0.8001 -0.6245  0.4072
  148MOL   H24035814   6.183   1.448   7.518  3.0774  1.1977  1.2897
  148MOL   H24135815   6.275   1.308   7.569  0.3178  1.2685 -1.6442
  148MOL   H24235816   5.875   1.152   7.448  0.4745 -1.0302  0.2575
  149MOL     C135817   4.532   0.277   1.726 -0.3744  0.2025 -0.3616
  149MOL     C235818   4.542   0.428   1.723 -0.5606 -0.3840 -0.3380
  149MOL     C335819   4.403   0.508   1.711 -0.0160  0.4715  0.2944
  149MOL     O435820   4.344   0.549   1.810  0.2591 -0.0615  0.2416
  149MOL     O535821   4.354   0.516   1.587 -0.3261  0.0117 -0.4901
  149MOL     C635822   4.246   0.594   1.560 -0.0631 -0.1129 -0.1836
  149MOL     H735823   4.474   0.239   1.811 -0.9308 -0.7763 -1.1635
  149MOL     H835824   4.631   0.232   1.734 -0.3485  0.4618  1.0261
  149MOL     H935825   4.584   0.446   1.624 -0.0772 -1.4904 -0.3433
  149MOL    H1035826   4.185   0.573   1.472  0.3273 -1.0380 -0.2366
  149MOL    H1135827   4.262   0.702   1.560  1.9754 -0.3935 -1.1852
  149MOL    H1235828   4.178   0.589   1.646 -0.2988  1.2448 -0.2764
  149MOL    H1335829   4.478   0.248   1.636 -1.6344 -1.4003  0.8625
  149MOL    C1435830   4.623   0.474   1.837  0.6910 -0.2949 -0.5396
  149MOL    C1535831   4.777   0.437   1.833  0.9571  0.4575 -0.2980
  149MOL    C1635832   4.846   0.561   1.774 -0.5818 -0.5214 -0.8415
  149MOL    O1735833   4.856   0.673   1.827  0.3034 -0.5416  0.3006
  149MOL    O1835834   4.885   0.535   1.645 -0.3276 -0.1369  0.1087
  149MOL    C1935835   4.947   0.638   1.564 -0.5168 -0.5628  0.0992
  149MOL    H2035836   4.617   0.583   1.849 -2.2762 -0.4682 -0.0581
  149MOL    H2135837   4.589   0.437   1.934 -0.8950 -0.2265 -1.0537
  149MOL    H2235838   4.786   0.350   1.769  0.1674 -0.2180  0.5025
  149MOL    H2335839   5.047   0.669   1.595 -0.1187  2.1809 -3.6222
  149MOL    H2435840   4.881   0.725   1.568  0.1359 -0.0474 -0.2073
  149MOL    H2535841   4.937   0.601   1.463  0.9444 -0.2049 -0.1920
  149MOL    C2635842   4.835   0.387   1.971  0.5723  0.4797 -0.1112
  149MOL    C2735843   4.988   0.402   2.000  0.0953  0.1833 -0.2433
  149MOL    C2835844   5.036   0.369   2.143 -0.5823  0.0607  0.3291
  149MOL    O2935845   5.131   0.432   2.196  0.0929  0.3424  0.6844
  149MOL    O3035846   4.972   0.271   2.203 -0.3946 -0.1739 -0.6755
  149MOL    C3135847   5.034   0.218   2.321  0.4794  0.2846 -0.6038
  149MOL    H3235848   4.777   0.433   2.052 -0.1863 -0.5417 -0.0749
  149MOL    H3335849   4.806   0.284   1.954 -1.0851  1.0530 -0.8645
  149MOL    H3435850   5.026   0.504   1.999 -1.2621  0.6954 -0.0332
  149MOL    H3535851   5.137   0.188   2.306 -0.0761 -1.9454 -0.2071
  149MOL    H3635852   4.982   0.133   2.364  1.5910 -0.4505 -0.7035
  149MOL    H3735853   5.034   0.297   2.396  2.8630 -0.3848  0.1439
  149MOL    C3835854   5.061   0.320   1.895 -0.6669 -0.2687  0.0545
  149MOL    C3935855   5.213   0.358   1.876 -0.7081  0.8582  0.3622
  149MOL    C4035856   5.281   0.234   1.809  0.4337  0.3023  0.2177
  149MOL    O4135857   5.378   0.178   1.853  0.1772 -0.2510 -0.4855
  149MOL    O4235858   5.223   0.198   1.693  0.3621 -0.3339  0.2540
  149MOL    C4335859   5.292   0.088   1.622  0.5318 -0.7836 -0.6628
  149MOL    H4435860   5.050   0.214   1.918  2.3603 -1.0105 -1.6774
  149MOL    H4535861   5.008   0.328   1.800 -0.1798  2.7365 -0.0071
  149MOL    H4635862   5.258   0.363   1.975 -1.9494  1.2120  0.9198
  149MOL    H4735863   5.400   0.098   1.613  0.4117 -1.3640 -3.0129
  149MOL    H4835864   5.268   0.083   1.516 -0.3174 -1.6449 -0.4357
  149MOL    H4935865   5.262   7.930   1.675 -1.2799 -0.6580 -1.4391
  149MOL    C5035866   5.221   0.479   1.783  0.2297  0.3225  0.4436
  149MOL    C5135867   5.364   0.508   1.730 -0.1429  0.0794 -0.1154
  149MOL    C5235868   5.357   0.598   1.604  0.2148  0.0910  0.6430
  149MOL    O5335869   5.387   0.719   1.613  0.8501  0.7178 -0.4657
  149MOL    O5435870   5.312   0.530   1.493 -0.5399 -0.5445 -0.7442
  149MOL    C5535871   5.338   0.595   1.375 -0.2105  0.3658  0.0840
  149MOL    H5635872   5.154   0.445   1.704 -0.4028 -0.4096  1.2867
  149MOL    H5735873   5.181   0.567   1.832  0.0554  0.9052 -0.7185
  149MOL    H5835874   5.414   0.422   1.687  1.1117  1.4320 -1.3848
  149MOL    H5935875   5.268   0.677   1.357  1.3117  1.4335 -1.0556
  149MOL    H6035876   5.326   0.532   1.287  0.3963  0.9624 -0.4303
  149MOL    H6135877   5.438   0.637   1.377  0.0899 -0.3775  2.2977
  149MOL    C6235878   5.451   0.564   1.853 -0.0732  0.0163 -0.6124
  149MOL    C6335879   5.600   0.564   1.815 -0.8719 -0.1570  0.3662
  149MOL    C6435880   5.676   0.682   1.866  0.5450  0.2426  0.1857
  149MOL    O6535881   5.716   0.770   1.791  0.1870  0.2193  0.4685
  149MOL    O6635882   5.684   0.679   1.993  0.3974 -0.6516  0.2825
  149MOL    C6735883   5.772   0.769   2.060  0.3031  0.1668  0.1853
  149MOL    H6835884   5.412   0.661   1.884  0.5769  0.1453 -0.1940
  149MOL    H6935885   5.430   0.500   1.939 -0.9915  0.8982 -0.1700
  149MOL    H7035886   5.604   0.582   1.707 -1.2292  1.2662  0.5768
  149MOL    H7135887   5.733   0.870   2.053  1.5278  0.6122 -0.3540
  149MOL    H7235888   5.878   0.767   2.033  0.1669 -0.9819 -0.3036
  149MOL    H7335889   5.778   0.741   2.166  1.5452 -0.2418  0.0127
  149MOL    C7435890   5.659   0.431   1.849 -0.3168 -0.7211  0.2244
  149MOL    C7535891   5.796   0.401   1.779 -0.3363  0.0628  0.2076
  149MOL    C7635892   5.784   0.414   1.624  0.7529  0.4024  0.2680
  149MOL    O7735893   5.852   0.492   1.558 -0.0632 -0.2891  0.0672
  149MOL    O7835894   5.687   0.340   1.571  0.5195 -0.7381 -0.3029
  149MOL    C7935895   5.650   0.361   1.435 -0.3561  0.4895  0.9984
  149MOL    H8035896   5.670   0.431   1.958 -0.4707 -0.1652  0.2401
  149MOL    H8135897   5.600   0.348   1.811  0.3576 -0.3112 -1.7726
  149MOL    H8235898   5.814   0.294   1.793 -1.8600  0.1445  3.2201
  149MOL    H8335899   5.579   0.440   1.413  0.9612  0.9940 -1.5423
  149MOL    H8435900   5.616   0.269   1.386  1.1815  0.9016 -0.8773
  149MOL    H8535901   5.741   0.386   1.382 -0.7435  2.2170  1.1401
  149MOL    C8635902   5.927   0.463   1.830 -0.2900  0.5038 -0.2042
  149MOL    C8735903   5.956   0.453   1.986  0.9492  0.1654 -0.9693
  149MOL    C8835904   5.955   0.308   2.043 -0.4463 -0.4077  0.0772
  149MOL    O8935905   6.039   0.225   2.016  0.3147  0.1223 -0.0921
  149MOL    O9035906   5.850   0.284   2.113 -0.1151  0.2034 -0.1051
  149MOL    C9135907   5.814   0.153   2.163  0.5561  0.4910 -0.2458
  149MOL    H9235908   6.014   0.429   1.773  0.3900 -0.2847  1.2848
  149MOL    H9335909   5.917   0.569   1.807 -1.1000  0.5169  0.1890
  149MOL    H9435910   5.889   0.516   2.045  1.4139  2.1564 -2.5045
  149MOL    H9535911   5.707   0.135   2.160  0.5927  0.3048 -0.3949
  149MOL    H9635912   5.861   0.126   2.258  2.0789 -0.4810 -1.2495
  149MOL    H9735913   5.856   0.070   2.107  0.8657  0.1938  0.4237
  149MOL    C9835914   6.094   0.515   2.013 -0.3609  0.1363 -0.1562
  149MOL    C9935915   6.139   0.549   2.157 -0.3531 -0.8261  0.8215
  149MOL   C10035916   6.191   0.433   2.239  0.7975 -0.5931 -0.4317
  149MOL   O10135917   6.308   0.394   2.236  0.1108 -0.0377  0.2945
  149MOL   O10235918   6.092   0.383   2.312  0.4766  0.3077  0.3737
  149MOL   C10335919   6.108   0.266   2.380  0.4242  0.1907  0.1734
  149MOL   H10435920   6.165   0.447   1.965 -2.1661 -1.7872 -0.1934
  149MOL   H10535921   6.095   0.609   1.958  1.2173 -0.0889 -0.5277
  149MOL   H10635922   6.043   0.574   2.200  0.1227  3.5553 -0.4082
  149MOL   H10735923   6.201   0.275   2.435  1.7820 -2.8466 -1.5227
  149MOL   H10835924   6.110   0.173   2.322 -1.9074 -1.5391  2.7284
  149MOL   H10935925   6.025   0.258   2.450 -0.5589 -1.3366 -1.1182
  149MOL   C11035926   6.244   0.666   2.156 -0.6028  0.3194  0.2939
  149MOL   C11135927   6.187   0.805   2.122  0.3665 -0.3543  0.4580
  149MOL   C11235928   6.101   0.853   2.238 -0.0743 -0.1011 -0.0172
  149MOL   O11335929   5.988   0.894   2.225  0.2303 -0.2391 -0.0756
  149MOL   O11435930   6.159   0.829   2.360  0.2760  0.0351 -0.4893
  149MOL   C11535931   6.076   0.856   2.477 -0.4209  0.0266  0.0125
  149MOL   H11635932   6.305   0.665   2.246 -0.9106 -0.6084  0.4971
  149MOL   H11735933   6.315   0.631   2.081  0.5802  1.8587  0.6596
  149MOL   H11835934   6.124   0.803   2.033  2.8303  0.1633 -1.3267
  149MOL   H11935935   6.066   0.964   2.471 -1.0042 -0.0293 -0.0212
  149MOL   H12035936   6.117   0.816   2.571 -2.1936 -0.6510  0.5171
  149MOL   H12135937   5.980   0.806   2.466 -0.9537  0.6907  1.4147
  149MOL   C12235938   6.298   0.905   2.098 -0.0288  0.7259 -0.3850
  149MOL   C12335939   6.293   0.987   1.962  0.1739  0.2334  0.5309
  149MOL   C12435940   6.171   1.083   1.953 -0.0168 -0.0623  0.1670
  149MOL   O12535941   6.160   1.180   2.033  0.6854 -0.0739  0.2433
  149MOL   O12635942   6.095   1.054   1.843  0.4526  0.0050 -0.7608
  149MOL   C12735943   5.965   1.106   1.824 -0.9897 -0.1349  0.0282
  149MOL   H12835944   6.317   0.971   2.182 -2.4054  0.8693  0.0774
  149MOL   H12935945   6.392   0.852   2.110 -1.3515 -2.0875 -1.8913
  149MOL   H13035946   6.282   0.913   1.883  0.0778  1.6651 -0.8273
  149MOL   H13135947   5.923   1.083   1.726 -2.8006  1.6248  0.3760
  149MOL   H13235948   5.967   1.214   1.821  0.3135 -0.1891 -1.2666
  149MOL   H13335949   5.890   1.065   1.892 -2.4859 -0.6680 -1.8967
  149MOL   C13435950   6.430   1.061   1.936  0.0015  0.7153  0.0549
  149MOL   C13535951   6.473   1.176   2.026  0.5527  1.2945 -0.2204
  149MOL   C13635952   6.612   1.146   2.094 -0.9286 -0.0575  0.3348
  149MOL   O13735953   6.634   1.155   2.217  0.3271  0.3422  0.7134
  149MOL   O13835954   6.709   1.120   2.010 -0.0337 -0.3360  0.1038
  149MOL   C13935955   6.837   1.098   2.062 -0.6298  0.1058 -0.6558
  149MOL   H14035956   6.508   0.985   1.945  0.4258  1.2784  1.1015
  149MOL   H14135957   6.431   1.097   1.833 -0.7562  0.0512 -0.1925
  149MOL   H14235958   6.393   1.162   2.099  2.1266 -0.4429  1.2214
  149MOL   H14335959   6.886   1.188   2.101 -0.6668 -0.6813  1.2494
  149MOL   H14435960   6.892   1.063   1.976  0.1191 -1.9676  0.6497
  149MOL   H14535961   6.829   1.021   2.139 -0.3613 -1.3998 -2.1141
  149MOL   C14635962   6.480   1.303   1.942 -1.5113 -0.2532 -0.1042
  149MOL   C14735963   6.520   1.442   2.009  0.2950 -0.0702  0.8863
  149MOL   C14835964   6.564   1.527   1.886 -0.3624 -0.1154 -0.1885
  149MOL   O14935965   6.668   1.593   1.880  0.2538  0.1433 -0.7459
  149MOL   O15035966   6.472   1.532   1.789  0.3403  0.7487  0.2589
  149MOL   C15135967   6.475   1.624   1.680  0.0335 -0.1541  0.8714
  149MOL   H15235968   6.548   1.283   1.859  1.5576 -1.2278  2.5079
  149MOL   H15335969   6.383   1.320   1.895 -0.0973  0.5968 -2.8498
  149MOL   H15435970   6.600   1.443   2.082  3.0365 -1.1796 -1.9638
  149MOL   H15535971   6.540   1.590   1.600 -0.4646  1.6937 -0.3546
  149MOL   H15635972   6.501   1.725   1.710 -3.1494  1.2554 -0.7885
  149MOL   H15735973   6.375   1.629   1.636  1.1281  1.3208 -1.5519
  149MOL   C15835974   6.399   1.500   2.073  0.2276  1.0297 -0.9170
  149MOL   C15935975   6.417   1.532   2.221  0.2423 -0.1368 -0.3228
  149MOL   C16035976   6.422   1.406   2.310  0.4313  0.4335  0.6108
  149MOL   O16135977   6.508   1.392   2.402 -0.2720  0.6767  0.4697
  149MOL   O16235978   6.319   1.325   2.293 -0.0951 -0.7488 -0.1226
  149MOL   C16335979   6.302   1.207   2.373 -0.6159 -0.0397 -0.3063
  149MOL   H16435980   6.381   1.601   2.037 -0.0922  2.0503  1.9098
  149MOL   H16535981   6.309   1.442   2.053  0.2860  0.6261 -0.0621
  149MOL   H16635982   6.324   1.585   2.239 -0.5156 -0.7202 -2.4321
  149MOL   H16735983   6.271   1.131   2.301  3.8219  0.4891 -2.9734
  149MOL   H16835984   6.218   1.218   2.441 -0.0032  1.5087  0.2248
  149MOL   H16935985   6.393   1.184   2.428  0.3881 -0.3826 -2.0660
  149MOL   C17035986   6.530   1.636   2.256 -0.3932 -0.4440  0.1146
  149MOL   C17135987   6.513   1.693   2.396 -0.4498 -0.0497  0.3892
  149MOL   C17235988   6.643   1.713   2.474 -0.5116  0.1744 -0.5738
  149MOL   O17335989   6.699   1.635   2.551 -0.0848  0.7396 -0.2566
  149MOL   O17435990   6.700   1.831   2.451 -0.3000 -0.0764  0.0311
  149MOL   C17535991   6.839   1.848   2.486 -0.2897 -0.1665 -0.3043
  149MOL   H17635992   6.630   1.592   2.244 -1.2646 -2.5236  0.2106
  149MOL   H17735993   6.518   1.712   2.179  1.2399 -0.4358 -0.1597
  149MOL   H17835994   6.470   1.612   2.455  0.0960 -0.7532 -0.1707
  149MOL   H17935995   6.837   1.884   2.589 -2.2180  1.0162 -0.7219
  149MOL   H18035996   6.884   1.922   2.419  0.0713  0.8925  1.0931
  149MOL   H18135997   6.896   1.756   2.475  0.1703 -0.2476  2.3429
  149MOL   C18235998   6.424   1.822   2.390  0.4842  0.0906 -0.5900
  149MOL   C18335999   6.339   1.851   2.516 -0.2328  0.3310  1.1397
  149MOL   C18436000   6.259   1.725   2.564  0.2382 -0.3460 -0.3258
  149MOL   O18536001   6.272   1.687   2.684  0.0728  0.2198  0.2930
  149MOL   O18636002   6.205   1.650   2.473  0.3091 -0.1264 -0.1220
  149MOL   C18736003   6.146   1.527   2.509  0.5004  0.5467 -0.4102
  149MOL   H18836004   6.474   1.918   2.372 -1.9316  1.0425 -2.4973
  149MOL   H18936005   6.345   1.818   2.315 -1.5335  1.3889  1.4251
  149MOL   H19036006   6.262   1.916   2.476 -0.9115 -1.3308 -0.3272
  149MOL   H19136007   6.118   1.478   2.415 -3.3018 -0.8163  1.3475
  149MOL   H19236008   6.050   1.529   2.561  1.3026  0.3759  1.1052
  149MOL   H19336009   6.217   1.462   2.560 -1.4805 -1.4004 -0.0509
  149MOL   C19436010   6.403   1.935   2.630  0.0009 -0.2800  0.0895
  149MOL   C19536011   6.378   2.089   2.640  0.2468 -0.0721  0.6069
  149MOL   C19636012   6.225   2.116   2.664  0.4121 -0.0282  0.4233
  149MOL   O19736013   6.154   2.034   2.728 -0.2710  0.2912  0.1700
  149MOL   O19836014   6.190   2.233   2.618  0.3095  0.4589  0.1797
  149MOL   C19936015   6.059   2.279   2.647 -0.3437  0.2722 -0.0520
  149MOL   H20036016   6.357   1.892   2.719  0.5705 -2.7976 -0.7860
  149MOL   H20136017   6.512   1.932   2.632  0.0660  2.0703  1.2649
  149MOL   H20236018   6.402   2.136   2.545 -0.0563 -1.8750 -0.3836
  149MOL   H20336019   5.990   2.227   2.580 -0.8075  0.7912  0.0208
  149MOL   H20436020   6.039   2.386   2.638 -0.8842  0.1861  0.1466
  149MOL   H20536021   6.042   2.247   2.749  0.5030 -1.2786 -0.3829
  149MOL   C20636022   6.456   2.155   2.758  0.0202  0.7650  0.9791
  149MOL   C20736023   6.436   2.308   2.780  0.4102 -0.5066  0.2684
  149MOL   C20836024   6.494   2.356   2.919 -0.2165  0.2202 -0.4085
  149MOL   O20936025   6.582   2.441   2.928  0.3416  0.2436 -0.6546
  149MOL   O21036026   6.423   2.297   3.025  0.5058  0.0422 -0.2112
  149MOL   C21136027   6.460   2.328   3.156  0.3640  0.0588  0.1384
  149MOL   H21236028   6.433   2.096   2.847 -2.5688  0.8595  0.4026
  149MOL   H21336029   6.562   2.142   2.738 -0.6063 -1.4552 -1.1473
  149MOL   H21436030   6.331   2.336   2.790  0.9883  2.0375 -0.4417
  149MOL   H21536031   6.370   2.363   3.206  1.5428  2.3656  0.7062
  149MOL   H21636032   6.526   2.410   3.183 -2.5798  2.2324  0.9240
  149MOL   H21736033   6.494   2.237   3.207  1.1008  0.1471 -0.1858
  149MOL   C21836034   6.490   2.389   2.659 -0.2256 -0.2367 -0.4033
  149MOL   C21936035   6.449   2.535   2.653 -0.3742 -0.2589  0.0004
  149MOL   C22036036   6.540   2.610   2.551 -0.4044 -0.3637  0.2172
  149MOL   O22136037   6.592   2.540   2.463 -0.2689  0.1135 -0.7672
  149MOL   O22236038   6.567   2.741   2.586  0.0162 -0.3444 -0.0256
  149MOL   C22336039   6.628   2.822   2.492  0.2531 -0.0774  0.5040
  149MOL   H22436040   6.599   2.389   2.666 -0.2307  0.6296 -0.2795
  149MOL   H22536041   6.480   2.332   2.567  1.8773 -1.5388  0.1322
  149MOL   H22636042   6.468   2.581   2.751 -1.5729  0.2416  0.0089
  149MOL   H22736043   6.564   2.843   2.406 -0.8981 -0.8100  1.1778
  149MOL   H22836044   6.728   2.781   2.473 -0.0161 -1.2781  1.6325
  149MOL   H22936045   6.640   2.923   2.531  0.9764 -0.2803  0.8338
  149MOL   C23036046   6.297   2.554   2.617 -0.0855  0.0149  0.4668
  149MOL   C23136047   6.233   2.686   2.637 -0.1187 -0.6606  0.3425
  149MOL   C23236048   6.092   2.689   2.573 -0.8634 -0.6079  0.1462
  149MOL   O23336049   5.997   2.625   2.620  0.3845 -0.8485  0.4910
  149MOL   O23436050   6.087   2.763   2.468  0.2937  0.4333  0.0850
  149MOL   C23536051   5.964   2.802   2.411 -0.1070 -0.2814 -0.7770
  149MOL   H23636052   6.270   2.513   2.520  0.2085  1.9577 -0.4579
  149MOL   H23736053   6.248   2.484   2.685 -0.1691 -0.6011 -0.2208
  149MOL   H23836054   6.287   2.761   2.579  0.2496 -1.2366 -0.0672
  149MOL   H23936055   5.891   2.841   2.482  1.2348  1.6218 -0.4198
  149MOL   H24036056   5.923   2.725   2.345 -0.9220 -2.4306  2.1242
  149MOL   H24136057   5.971   2.876   2.331 -2.9655 -1.1863 -1.9201
  149MOL   H24236058   6.232   2.719   2.741  1.3050  1.1631 -0.2079
  150MOL     C136059   3.599   5.611   3.604 -0.5490  0.3636  0.4378
  150MOL     C236060   3.647   5.644   3.750 -0.1507  0.1611  0.3170
  150MOL     C336061   3.788   5.704   3.756 -0.1642 -0.0516  0.3737
  150MOL     O436062   3.829   5.780   3.670  0.2400 -0.3739 -0.2011
  150MOL     O536063   3.847   5.667   3.866 -0.4468 -0.0432 -0.2980
  150MOL     C636064   3.968   5.735   3.901  0.2119  0.4223 -0.6914
  150MOL     H736065   3.684   5.573   3.546 -0.1521 -1.7356  2.3143
  150MOL     H836066   3.558   5.698   3.553 -0.2278  0.6687  0.6946
  150MOL     H936067   3.671   5.552   3.804 -1.2847 -0.7230 -0.6599
  150MOL    H1036068   3.942   5.838   3.924  0.5688  0.7738 -1.8544
  150MOL    H1136069   4.041   5.738   3.821 -0.2716 -0.4868 -1.1819
  150MOL    H1236070   4.012   5.692   3.991  0.0953 -0.5709 -1.1022
  150MOL    H1336071   3.514   5.543   3.604  0.1862 -0.6016 -1.3823
  150MOL    C1436072   3.546   5.719   3.841 -0.4547 -0.6907  0.4617
  150MOL    C1536073   3.538   5.876   3.828  0.3073 -0.3149 -0.1289
  150MOL    C1636074   3.415   5.914   3.734  0.1183  0.1639 -0.4572
  150MOL    O1736075   3.324   5.980   3.781  0.3159  0.1413 -0.2382
  150MOL    O1836076   3.418   5.872   3.605 -0.5138 -0.4532 -0.7630
  150MOL    C1936077   3.331   5.932   3.515  0.3094 -0.4071  0.3840
  150MOL    H2036078   3.453   5.672   3.807  0.7987 -2.5208 -0.5194
  150MOL    H2136079   3.558   5.689   3.945 -0.3859  0.5648  0.8210
  150MOL    H2236080   3.623   5.921   3.776  1.6930 -0.0191  2.2615
  150MOL    H2336081   3.231   5.946   3.557  0.4336 -1.9950  1.2186
  150MOL    H2436082   3.323   5.869   3.427  0.0830 -1.5335  1.1999
  150MOL    H2536083   3.372   6.032   3.498  1.3961 -0.7633  0.8474
  150MOL    C2636084   3.529   5.941   3.971 -0.4472 -0.1481 -0.4472
  150MOL    C2736085   3.647   5.937   4.066 -0.8830 -0.2679 -0.1581
  150MOL    C2836086   3.744   6.051   4.058  0.1838 -0.5818  0.5688
  150MOL    O2936087   3.870   6.040   4.043  0.2079 -0.2602  0.5676
  150MOL    O3036088   3.684   6.167   4.084 -0.1225 -0.3118  0.1818
  150MOL    C3136089   3.751   6.292   4.103  0.4594  0.4989 -0.0859
  150MOL    H3236090   3.490   6.043   3.972 -0.4456 -0.1094  3.0833
  150MOL    H3336091   3.443   5.892   4.017  1.5171 -1.5821  1.8455
  150MOL    H3436092   3.705   5.855   4.024 -1.6416 -1.3801  0.9046
  150MOL    H3536093   3.857   6.286   4.131  0.0427  1.8965  1.8951
  150MOL    H3636094   3.689   6.337   4.181 -0.8762  1.1776 -1.5171
  150MOL    H3736095   3.741   6.359   4.018  2.0910  1.5314  0.4993
  150MOL    C3836096   3.608   5.907   4.214  0.4535 -0.7741  0.3227
  150MOL    C3936097   3.571   5.759   4.257  0.0884 -0.4300 -0.0919
  150MOL    C4036098   3.682   5.653   4.218  0.1364  0.1803  0.4287
  150MOL    O4136099   3.800   5.679   4.229 -0.1871  0.4815  0.2136
  150MOL    O4236100   3.631   5.536   4.173  0.0147  0.1271  0.7208
  150MOL    C4336101   3.726   5.445   4.120  0.8521 -0.3798 -0.1138
  150MOL    H4436102   3.682   5.953   4.280  0.3350  0.6970 -0.5507
  150MOL    H4536103   3.516   5.964   4.229  0.4321 -0.1346 -2.0219
  150MOL    H4636104   3.484   5.735   4.196  0.0335  0.1967 -0.2577
  150MOL    H4736105   3.671   5.357   4.086 -0.4375 -0.0644  1.0964
  150MOL    H4836106   3.789   5.409   4.201  0.9623 -2.0741 -0.9190
  150MOL    H4936107   3.791   5.487   4.043 -1.3358  2.3511 -0.5566
  150MOL    C5036108   3.542   5.754   4.405  0.0115 -0.3252  0.8920
  150MOL    C5136109   3.457   5.632   4.449  0.7288  0.4020 -0.1684
  150MOL    C5236110   3.502   5.583   4.581 -0.6638  0.1179 -0.2469
  150MOL    O5336111   3.485   5.651   4.684  0.2783  1.0733 -0.5050
  150MOL    O5436112   3.574   5.471   4.576 -0.2087 -0.5370 -0.1458
  150MOL    C5536113   3.643   5.437   4.697 -0.3058 -0.1728  0.5201
  150MOL    H5636114   3.636   5.763   4.458  0.1056  0.9891  0.5141
  150MOL    H5736115   3.491   5.848   4.426  3.0852  1.9144 -1.3299
  150MOL    H5836116   3.475   5.550   4.381 -0.0844  0.0877 -0.0150
  150MOL    H5936117   3.679   5.519   4.759 -2.6334  1.4999 -0.3121
  150MOL    H6036118   3.730   5.378   4.666 -0.7357 -0.6654  0.2488
  150MOL    H6136119   3.584   5.376   4.766 -3.2729  0.9388 -0.9729
  150MOL    C6236120   3.304   5.666   4.461  0.5043 -0.2231  0.2188
  150MOL    C6336121   3.248   5.756   4.336  0.0628 -0.5947  0.5089
  150MOL    C6436122   3.227   5.680   4.209  0.9510 -0.5760 -0.7553
  150MOL    O6536123   3.218   5.557   4.217 -0.8101  0.8874  0.1433
  150MOL    O6636124   3.215   5.760   4.101  0.1779  0.7263 -0.0165
  150MOL    C6736125   3.215   5.708   3.972  0.0895  0.1390  0.2937
  150MOL    H6836126   3.254   5.572   4.485 -0.7059  0.7866  1.6684
  150MOL    H6936127   3.297   5.726   4.552 -2.2669  0.1638 -0.2154
  150MOL    H7036128   3.323   5.826   4.301  0.4445 -1.1737  0.1694
  150MOL    H7136129   3.301   5.641   3.966 -0.4360 -0.4891 -0.2375
  150MOL    H7236130   3.230   5.789   3.901  2.3265 -1.0546 -0.6563
  150MOL    H7336131   3.117   5.664   3.953  0.3488  0.2180 -1.3219
  150MOL    C7436132   3.127   5.848   4.376  0.2266 -0.2896 -0.1035
  150MOL    C7536133   3.159   5.977   4.456 -0.2448  0.0648 -0.0363
  150MOL    C7636134   3.262   6.059   4.381 -0.3703  0.3087  0.0793
  150MOL    O7736135   3.374   6.082   4.430 -0.0152 -0.4808 -0.9487
  150MOL    O7836136   3.223   6.094   4.255 -0.6331  0.0245  0.0134
  150MOL    C7936137   3.285   6.206   4.195  0.8059  0.5574 -0.3445
  150MOL    H8036138   3.076   5.894   4.291  2.9895  1.9037 -0.6653
  150MOL    H8136139   3.055   5.784   4.427 -0.2019  0.0668 -0.2626
  150MOL    H8236140   3.216   5.952   4.546 -0.0797 -3.1123 -0.9452
  150MOL    H8336141   3.393   6.201   4.178  0.7182  0.7990 -1.0020
  150MOL    H8436142   3.261   6.292   4.256  3.9555  1.2878 -0.0365
  150MOL    H8536143   3.233   6.221   4.100 -0.8690 -2.4782  0.0082
  150MOL    C8636144   3.030   6.057   4.489 -0.2162 -0.0215  0.3087
  150MOL    C8736145   2.937   5.994   4.593  0.7846 -0.4930 -0.5952
  150MOL    C8836146   3.002   5.995   4.729  0.0984  0.2800 -0.3983
  150MOL    O8936147   3.105   6.056   4.751  0.1222  0.3225 -0.4134
  150MOL    O9036148   2.925   5.930   4.820 -0.3083  0.1850 -0.5003
  150MOL    C9136149   2.961   5.938   4.955  0.1206  0.4047 -0.0604
  150MOL    H9236150   3.052   6.156   4.527  0.7045 -0.0239 -0.2046
  150MOL    H9336151   2.981   6.076   4.393  1.4955 -1.1891 -0.8417
  150MOL    H9436152   2.925   5.888   4.569  0.1833 -1.0702  2.1967
  150MOL    H9536153   2.952   6.040   4.994  0.8442  0.1721  0.7316
  150MOL    H9636154   3.061   5.894   4.963 -0.2744 -0.4034  0.3913
  150MOL    H9736155   2.891   5.873   5.007  1.0423 -1.5658 -1.2259
  150MOL    C9836156   2.800   6.066   4.602 -0.4526  0.0889  0.7026
  150MOL    C9936157   2.787   6.217   4.644  0.1732  0.1980 -0.6207
  150MOL   C10036158   2.828   6.307   4.525  0.6103  0.8622  0.0295
  150MOL   O10136159   2.908   6.400   4.536 -0.1864 -0.5777  0.0591
  150MOL   O10236160   2.752   6.283   4.423  0.0447  0.6692 -0.1863
  150MOL   C10336161   2.782   6.336   4.291 -0.4821  0.1446  0.3193
  150MOL   H10436162   2.745   6.061   4.508 -1.0875 -2.3900  1.1543
  150MOL   H10536163   2.738   5.997   4.660  1.3187 -2.5235 -0.4013
  150MOL   H10636164   2.855   6.238   4.728 -0.6220  1.4269 -0.2663
  150MOL   H10736165   2.872   6.287   4.254 -0.0847  0.7617  0.4617
  150MOL   H10836166   2.788   6.445   4.281  2.8193 -0.0077  0.1738
  150MOL   H10936167   2.699   6.309   4.224 -0.2871 -0.4197  0.3049
  150MOL   C11036168   2.650   6.265   4.699  0.5458  0.1711  0.3947
  150MOL   C11136169   2.608   6.200   4.829 -0.2938 -0.0945  0.4000
  150MOL   C11236170   2.661   6.273   4.949  0.0773 -0.2365  0.4438
  150MOL   O11336171   2.725   6.213   5.039  0.3897  0.3248 -0.0226
  150MOL   O11436172   2.642   6.400   4.939 -0.2203 -0.6961 -0.2124
  150MOL   C11536173   2.703   6.488   5.029  0.0417 -0.1930  0.1765
  150MOL   H11636174   2.636   6.372   4.683 -0.4748 -0.0329 -0.1112
  150MOL   H11736175   2.579   6.230   4.624  1.4356 -0.8348  0.0156
  150MOL   H11836176   2.668   6.109   4.830  0.5414  0.4329 -0.3860
  150MOL   H11936177   2.694   6.590   4.991  2.1546 -0.1703 -0.3249
  150MOL   H12036178   2.811   6.474   5.041  0.1409 -3.0048 -3.1329
  150MOL   H12136179   2.650   6.487   5.125 -2.2991  0.8481 -1.0716
  150MOL   C12236180   2.456   6.181   4.838 -0.1204  0.0082 -0.2857
  150MOL   C12336181   2.389   6.064   4.760  0.9455 -0.1012  0.0010
  150MOL   C12436182   2.422   5.930   4.816 -0.1910  0.6114  0.0045
  150MOL   O12536183   2.362   5.868   4.901 -0.1517  0.2211  0.2202
  150MOL   O12636184   2.532   5.881   4.761  0.1781  0.5696 -0.2043
  150MOL   C12736185   2.583   5.754   4.811  0.0433  0.9804 -0.5087
  150MOL   H12836186   2.424   6.178   4.942  0.9535 -2.5191 -0.0102
  150MOL   H12936187   2.419   6.279   4.805 -0.4067  1.1744  3.2985
  150MOL   H13036188   2.434   6.065   4.660  1.6436 -1.4036  0.2904
  150MOL   H13136189   2.503   5.688   4.844  0.2071 -0.0196 -2.0288
  150MOL   H13236190   2.646   5.771   4.899  0.5789  0.1174 -0.7157
  150MOL   H13336191   2.635   5.688   4.741 -0.1316  2.5962 -2.2046
  150MOL   C13436192   2.238   6.085   4.745  0.2874 -0.3495  0.8104
  150MOL   C13536193   2.201   6.190   4.641  0.7142  0.6199 -0.2618
  150MOL   C13636194   2.254   6.154   4.496  0.4621  0.8255  0.3809
  150MOL   O13736195   2.218   6.055   4.430 -0.3969  0.0136 -0.3385
  150MOL   O13836196   2.345   6.244   4.446 -0.3032  0.2608 -0.4957
  150MOL   C13936197   2.411   6.224   4.325  0.1445  0.9332  1.0315
  150MOL   H14036198   2.194   5.989   4.717  0.8434 -0.3627 -0.0064
  150MOL   H14136199   2.189   6.110   4.839  0.4054  0.3097  0.6984
  150MOL   H14236200   2.259   6.279   4.662  1.3323  0.1859 -0.1095
  150MOL   H14336201   2.458   6.310   4.277 -1.0781  1.0365  0.0068
  150MOL   H14436202   2.349   6.184   4.245  1.2139  1.8121 -0.2702
  150MOL   H14536203   2.478   6.139   4.338 -0.9416  0.3379  2.9900
  150MOL   C14636204   2.044   6.214   4.640 -0.8821 -0.1649 -0.3693
  150MOL   C14736205   1.998   6.353   4.708 -0.1746  0.5741 -0.5035
  150MOL   C14836206   2.023   6.356   4.857 -0.6500  0.4780  0.1140
  150MOL   O14936207   1.933   6.332   4.933  0.5902 -0.5543  0.4176
  150MOL   O15036208   2.155   6.388   4.886  0.6422  0.0076  0.3321
  150MOL   C15136209   2.191   6.407   5.024  0.3994  0.1192  0.2874
  150MOL   H15236210   1.996   6.184   4.548 -1.0419  0.6868 -0.5656
  150MOL   H15336211   2.000   6.137   4.703 -1.1178  0.3149  0.0577
  150MOL   H15436212   1.891   6.359   4.689 -0.2973 -1.2259 -0.4518
  150MOL   H15536213   2.218   6.314   5.074  2.2178  0.9113  0.7932
  150MOL   H15636214   2.111   6.461   5.074 -1.2475 -1.2827 -0.7701
  150MOL   H15736215   2.282   6.465   5.016 -0.5306  1.5083 -0.4520
  150MOL   C15836216   2.057   6.482   4.635  0.2044 -0.1555  0.4849
  150MOL   C15936217   1.962   6.601   4.631 -0.0879 -0.3584 -0.3441
  150MOL   C16036218   2.027   6.731   4.612 -0.3395 -0.3670 -0.3570
  150MOL   O16136219   2.032   6.815   4.695 -0.3485 -0.2145 -0.2584
  150MOL   O16236220   2.073   6.748   4.487 -0.1593  0.1829  0.2327
  150MOL   C16336221   2.166   6.859   4.473  0.3416  0.4039  0.0839
  150MOL   H16436222   2.152   6.513   4.678  0.4391  0.0682 -0.1907
  150MOL   H16536223   2.076   6.457   4.531  2.8064  4.8598 -0.4012
  150MOL   H16636224   1.926   6.607   4.734 -0.0263 -1.2946 -0.2589
  150MOL   H16736225   2.126   6.960   4.463  0.1240  0.4553  1.3604
  150MOL   H16836226   2.226   6.842   4.384  0.6225 -0.7581  0.4859
  150MOL   H16936227   2.234   6.870   4.558  0.9314  0.3358 -0.3771
  150MOL   C17036228   1.842   6.573   4.524 -0.5743  0.3308  0.1560
  150MOL   C17136229   1.698   6.639   4.542 -0.0545  0.0637  0.0595
  150MOL   C17236230   1.655   6.615   4.688 -0.3914  0.1296 -0.2666
  150MOL   O17336231   1.649   6.701   4.778 -0.2321  0.1509 -0.2171
  150MOL   O17436232   1.632   6.483   4.706  0.1875  0.6902  0.0858
  150MOL   C17536233   1.633   6.436   4.841 -0.5371  0.4319 -0.2192
  150MOL   H17636234   1.877   6.604   4.425 -0.4742  0.6089  0.2794
  150MOL   H17736235   1.823   6.466   4.515  1.3621 -0.0140 -0.0652
  150MOL   H17836236   1.626   6.577   4.488 -0.5112 -1.2213  2.0732
  150MOL   H17936237   1.661   6.333   4.866  0.3629 -0.0462 -3.0877
  150MOL   H18036238   1.532   6.450   4.879 -0.9134 -0.0207 -1.0459
  150MOL   H18136239   1.704   6.489   4.904 -0.1009  0.3035 -0.6057
  150MOL   C18236240   1.687   6.788   4.495 -0.2814  0.4552 -0.0547
  150MOL   C18336241   1.680   6.813   4.340  0.3943 -0.1510 -0.0874
  150MOL   C18436242   1.548   6.750   4.292 -0.7269  0.2014  0.6370
  150MOL   O18536243   1.456   6.733   4.367 -0.3127  0.0156 -0.0081
  150MOL   O18636244   1.538   6.734   4.156  0.2739  0.0336 -0.2316
  150MOL   C18736245   1.435   6.652   4.105  0.1737 -0.4730 -0.1289
  150MOL   H18836246   1.607   6.845   4.543  0.9806  2.4662 -0.2574
  150MOL   H18936247   1.775   6.832   4.540 -0.0235  0.2695 -0.3752
  150MOL   H19036248   1.753   6.758   4.280  1.9417  0.2564  1.3843
  150MOL   H19136249   1.406   6.695   4.009  1.8735 -0.0053 -0.4365
  150MOL   H19236250   1.345   6.659   4.167 -0.3405  1.7613 -1.1017
  150MOL   H19336251   1.465   6.548   4.089  3.0682  0.0959  1.4004
  150MOL   C19436252   1.683   6.966   4.307 -0.1558 -0.5452  0.0611
  150MOL   C19536253   1.827   7.024   4.281 -1.0843  0.6187 -0.0291
  150MOL   C19636254   1.907   6.940   4.183  0.2497 -0.0830  0.6895
  150MOL   O19736255   2.019   6.908   4.203 -0.3768  0.8561 -0.0467
  150MOL   O19836256   1.838   6.922   4.072 -0.1074 -0.0303  0.4234
  150MOL   C19936257   1.888   6.835   3.973  0.5030 -0.3343 -0.4314
  150MOL   H20036258   1.616   6.991   4.224 -0.5202  1.2255  0.8739
  150MOL   H20136259   1.646   7.024   4.391 -0.2304 -0.8885  0.2694
  150MOL   H20236260   1.870   7.024   4.381  0.3420  0.2699 -0.6371
  150MOL   H20336261   1.877   6.731   4.005 -1.5885  0.1848  0.6182
  150MOL   H20436262   1.991   6.865   3.954  1.1726 -2.1374  0.2063
  150MOL   H20536263   1.830   6.848   3.883 -0.0568  0.4805  0.0442
  150MOL   C20636264   1.810   7.170   4.238 -0.2145  0.0664  0.3448
  150MOL   C20736265   1.931   7.261   4.241  0.5752 -0.1602  0.4311
  150MOL   C20836266   1.909   7.394   4.167 -0.3004  0.7444 -0.3303
  150MOL   O20936267   1.812   7.412   4.096 -0.0481 -0.4529  0.0568
  150MOL   O21036268   2.022   7.469   4.163  0.3958  0.1788 -0.3595
  150MOL   C21136269   2.025   7.593   4.091  0.1147 -0.2482  0.9360
  150MOL   H21236270   1.782   7.160   4.133 -1.1315 -0.9765  0.6789
  150MOL   H21336271   1.726   7.220   4.286 -0.7027  0.0558 -0.4937
  150MOL   H21436272   2.020   7.221   4.192 -0.6484 -0.8134 -1.2665
  150MOL   H21536273   1.937   7.655   4.109 -0.0246 -0.1352 -0.1198
  150MOL   H21636274   2.033   7.581   3.983 -1.4516  0.4842  0.7240
  150MOL   H21736275   2.115   7.643   4.126 -0.4269  0.3043  1.5516
  150MOL   C21836276   1.969   7.284   4.386  0.1991  1.0166  0.9952
  150MOL   C21936277   1.875   7.358   4.492 -1.4528  1.2894  0.5443
  150MOL   C22036278   1.794   7.252   4.571  0.1853 -0.3333  0.2875
  150MOL   O22136279   1.676   7.239   4.552 -0.8878 -0.3454 -0.1210
  150MOL   O22236280   1.863   7.174   4.656 -0.0530 -0.3275  0.6919
  150MOL   C22336281   1.782   7.079   4.739 -0.2991 -0.3227  0.0184
  150MOL   H22436282   2.000   7.191   4.434  1.8949  0.3582 -1.2790
  150MOL   H22536283   2.070   7.323   4.393  1.5138 -2.3674  1.7604
  150MOL   H22636284   1.797   7.415   4.440 -0.5810 -0.5743 -2.9506
  150MOL   H22736285   1.753   6.992   4.681 -1.5412  0.5535 -0.7169
  150MOL   H22836286   1.686   7.124   4.764  0.4685  2.1408 -1.2722
  150MOL   H22936287   1.846   7.050   4.822  0.4620  0.1588 -0.3916
  150MOL   C23036288   1.962   7.451   4.584  0.3797  0.4189 -0.3644
  150MOL   C23136289   1.912   7.489   4.730 -0.0374 -0.0674 -0.8526
  150MOL   C23236290   1.782   7.565   4.729  0.6084 -0.3357  0.3386
  150MOL   O23336291   1.683   7.523   4.789  0.5323  0.2141  0.4217
  150MOL   O23436292   1.789   7.683   4.674 -0.2794 -0.0868  0.5564
  150MOL   C23536293   1.664   7.761   4.683  0.1868  0.2466  0.0022
  150MOL   H23636294   2.067   7.423   4.593 -0.0725 -1.6096 -1.2220
  150MOL   H23736295   1.972   7.542   4.525  0.9719  0.4364 -0.2491
  150MOL   H23836296   1.993   7.545   4.777  0.0856 -1.8408  1.1162
  150MOL   H23936297   1.610   7.750   4.777 -2.0638  0.0197 -1.2918
  150MOL   H24036298   1.595   7.737   4.603 -1.7944 -1.5070  2.1677
  150MOL   H24136299   1.700   7.863   4.676  1.2390 -0.2230 -1.8390
  150MOL   H24236300   1.893   7.403   4.794  1.1194 -0.6264 -1.2578
  151MOL     C136301   0.132   1.348   7.874 -0.6684 -0.4048 -0.7675
  151MOL     C236302   0.073   1.377   0.077  0.0875  0.0593  0.2348
  151MOL     C336303   7.856   1.362   0.082  0.1533 -0.0691 -0.5102
  151MOL     O436304   7.783   1.454   0.058  0.2944 -0.1445 -0.0462
  151MOL     O536305   7.821   1.238   0.092  0.5282  0.9030 -0.0976
  151MOL     C636306   7.685   1.207   0.108 -0.3231 -0.0926  0.2794
  151MOL     H736307   0.241   1.358   7.876 -0.7247  0.0440  0.7203
  151MOL     H836308   0.095   1.419   7.799 -3.0732 -2.2068 -1.3316
  151MOL     H936309   0.069   1.484   0.096 -1.5291 -0.0659  0.6557
  151MOL    H1036310   7.626   1.290   0.147  0.8535 -0.2165  2.4006
  151MOL    H1136311   7.664   1.130   0.182 -1.4848  0.2387  0.3104
  151MOL    H1236312   7.648   1.166   0.014 -0.1255 -2.3367  1.1656
  151MOL    H1336313   0.103   1.249   7.839 -0.5953 -0.1227 -1.6307
  151MOL    C1436314   0.137   1.313   0.198  0.3228  0.4121  0.1755
  151MOL    C1536315   0.117   1.380   0.334  0.1100  0.6759  0.3488
  151MOL    C1636316   7.903   1.363   0.390  0.3614  0.2560 -0.1138
  151MOL    O1736317   7.832   1.462   0.399  0.0201  0.4701  0.0581
  151MOL    O1836318   7.872   1.231   0.418 -0.9190 -0.0472 -0.3743
  151MOL    C1936319   7.751   1.195   0.472  0.5297  0.6310 -0.2212
  151MOL    H2036320   0.099   1.212   0.210 -0.7191  0.5421 -1.8342
  151MOL    H2136321   0.244   1.293   0.188 -0.0681 -1.1883 -1.0141
  151MOL    H2236322   0.121   1.487   0.313 -0.4998  1.0594  2.1997
  151MOL    H2336323   7.755   1.086   0.470 -0.7252  0.5185  1.8874
  151MOL    H2436324   7.665   1.211   0.406  1.8166  2.1920 -1.5627
  151MOL    H2536325   7.733   1.223   0.576 -0.1317  2.0794 -0.7180
  151MOL    C2636326   0.226   1.342   0.441  0.5050 -0.8186  0.0069
  151MOL    C2736327   0.246   1.197   0.493 -0.2574 -0.6639 -0.1342
  151MOL    C2836328   0.310   1.101   0.387 -0.5560 -0.1995 -0.1017
  151MOL    O2936329   0.256   0.996   0.358 -0.0891  0.8999 -0.1061
  151MOL    O3036330   0.431   1.141   0.344 -0.1467  0.1700  0.2307
  151MOL    C3136331   0.513   1.047   0.271  0.0917 -0.2009 -0.2696
  151MOL    H3236332   0.325   1.372   0.407  1.6905 -1.7792  2.4496
  151MOL    H3336333   0.209   1.407   0.526  2.8059  0.3931 -0.4207
  151MOL    H3436334   0.145   1.155   0.493 -0.1013 -1.0362  0.7785
  151MOL    H3536335   0.608   1.089   0.239  0.0114  0.0520 -0.1774
  151MOL    H3636336   0.461   1.014   0.181  1.3716  0.6418 -1.3349
  151MOL    H3736337   0.543   0.973   0.345 -0.6496 -0.4332 -0.1891
  151MOL    C3836338   0.312   1.198   0.629  0.3969 -0.4735 -0.5566
  151MOL    C3936339   0.285   1.069   0.721 -0.4286 -0.5855  0.6619
  151MOL    C4036340   0.428   0.998   0.749  0.4886 -0.2039 -0.3165
  151MOL    O4136341   0.466   0.966   0.864 -0.8188 -0.0499 -0.0098
  151MOL    O4236342   0.487   0.973   0.632  0.6506 -0.5118 -0.7615
  151MOL    C4336343   0.603   0.894   0.633 -0.2413 -0.3984  0.4345
  151MOL    H4436344   0.416   1.229   0.616  0.0965  0.7831 -0.0202
  151MOL    H4536345   0.280   1.285   0.687 -2.5020  1.4379 -4.7090
  151MOL    H4636346   0.227   0.991   0.671 -3.8211  2.3093 -0.0540
  151MOL    H4736347   0.568   0.794   0.662  0.6288 -0.2684  1.9791
  151MOL    H4836348   0.673   0.935   0.706  1.0647 -1.5427 -0.1508
  151MOL    H4936349   0.661   0.890   0.541 -1.8124 -1.3310 -0.5423
  151MOL    C5036350   0.213   1.109   0.852 -0.3831  0.4519 -0.4610
  151MOL    C5136351   0.061   1.152   0.838  0.2649 -0.1351 -0.5039
  151MOL    C5236352   7.904   1.044   0.784 -0.7425 -0.0306  0.2311
  151MOL    O5336353   0.019   0.931   0.776 -0.8833  0.5145 -0.3125
  151MOL    O5436354   7.773   1.076   0.760 -0.0103 -0.4650  0.0207
  151MOL    C5536355   7.684   0.975   0.714 -0.4124  0.5435  0.2997
  151MOL    H5636356   0.219   1.016   0.908  1.1307  0.0888 -1.2043
  151MOL    H5736357   0.274   1.177   0.911 -0.1704 -0.5035  0.4397
  151MOL    H5836358   0.050   1.244   0.779 -0.5630 -0.2757 -0.5730
  151MOL    H5936359   7.580   1.005   0.710 -1.3832 -2.7327  0.1004
  151MOL    H6036360   7.692   0.891   0.783  2.1238 -0.8763 -1.6423
  151MOL    H6136361   7.713   0.929   0.620  0.7645  0.7965  0.5195
  151MOL    C6236362   0.032   1.198   0.982  1.0808 -0.2524 -0.5481
  151MOL    C6336363   0.107   1.327   1.029  0.6833  0.6395 -0.2066
  151MOL    C6436364   0.093   1.441   0.924 -0.3157  0.4488  0.2407
  151MOL    O6536365   0.193   1.485   0.868  0.2642 -0.2619  0.2318
  151MOL    O6636366   7.901   1.464   0.897 -0.1022 -0.1890  0.3866
  151MOL    C6736367   7.854   1.515   0.773  0.5285  0.1317 -0.7835
  151MOL    H6836368   7.857   1.214   0.983  0.9467 -1.0519  1.5863
  151MOL    H6936369   0.048   1.121   1.058 -0.5379 -0.0709  0.0005
  151MOL    H7036370   0.211   1.307   1.055  0.0080 -0.7974  1.4705
  151MOL    H7136371   7.916   1.584   0.716 -1.1559  1.1669 -1.4060
  151MOL    H7236372   7.753   1.556   0.776  0.1025 -0.9207 -0.6422
  151MOL    H7336373   7.840   1.425   0.713  0.1160 -0.8444  0.7484
  151MOL    C7436374   0.052   1.380   1.158  0.3177  0.4272  0.2884
  151MOL    C7536375   0.146   1.470   1.241 -0.9961 -0.2085 -0.8655
  151MOL    C7636376   0.062   1.534   1.355  0.2336  0.6506  0.5521
  151MOL    O7736377   0.051   1.658   1.369 -0.1939  0.2387 -0.3798
  151MOL    O7836378   7.924   1.445   1.429  0.0184 -0.0874  0.3163
  151MOL    C7936379   7.819   1.488   1.524 -0.4323 -0.7642 -1.0190
  151MOL    H8036380   7.902   1.442   1.125  1.2704  0.0561 -3.0048
  151MOL    H8136381   0.007   1.299   1.215 -1.3080  0.3897 -1.0099
  151MOL    H8236382   0.177   1.557   1.183  2.2691  0.1986  1.3489
  151MOL    H8336383   7.717   1.494   1.485 -0.5544 -1.5706 -0.8173
  151MOL    H8436384   7.852   1.571   1.587  0.0885 -1.7630  0.0341
  151MOL    H8536385   7.822   1.410   1.600 -1.6489 -0.6833 -0.8772
  151MOL    C8636386   0.272   1.402   1.297  0.5354 -0.3089 -0.3795
  151MOL    C8736387   0.248   1.271   1.382  1.1956 -0.3116 -0.2060
  151MOL    C8836388   0.269   1.149   1.295 -0.6660 -0.0378  0.3562
  151MOL    O8936389   0.178   1.070   1.280  0.4589  0.0484  0.3661
  151MOL    O9036390   0.389   1.131   1.253  0.1866 -0.0596 -0.6574
  151MOL    C9136391   0.423   1.010   1.188 -0.5606  1.3180  0.4431
  151MOL    H9236392   0.331   1.379   1.209 -1.8229 -0.7937 -1.8573
  151MOL    H9336393   0.330   1.474   1.354 -0.7905 -1.8784  3.1172
  151MOL    H9436394   0.140   1.264   1.399  1.1722  1.5260  0.5704
  151MOL    H9536395   0.344   0.980   1.118 -0.6430 -0.2842  1.1847
  151MOL    H9636396   0.448   0.931   1.260 -0.8869 -0.6790 -1.5606
  151MOL    H9736397   0.514   1.037   1.137  0.7194 -1.4222  1.1496
  151MOL    C9836398   0.325   1.253   1.514  0.2080  0.5305  0.5619
  151MOL    C9936399   0.271   1.350   1.632  0.4813 -0.3416 -0.1613
  151MOL   C10036400   0.136   1.300   1.701 -0.4820  0.3934  0.9500
  151MOL   O10136401   0.102   1.182   1.685  0.0761 -0.5273  0.3951
  151MOL   O10236402   0.079   1.384   1.777  0.2665  0.2582 -0.1628
  151MOL   C10336403   7.906   1.342   1.855  0.0100 -0.0994 -0.1863
  151MOL   H10436404   0.314   1.154   1.558  1.4061 -0.1773 -0.7004
  151MOL   H10536405   0.432   1.270   1.500  0.3187  0.7827  1.6965
  151MOL   H10636406   0.250   1.446   1.586  3.1694  0.2855 -0.1487
  151MOL   H10736407   7.809   1.359   1.809 -0.4138  0.9603  1.0543
  151MOL   H10836408   7.910   1.416   1.935 -2.1651 -0.3279  0.1745
  151MOL   H10936409   7.913   1.242   1.896 -1.8141  0.1605  0.8266
  151MOL   C11036410   0.383   1.367   1.740  0.4495  0.9101  0.3724
  151MOL   C11136411   0.493   1.466   1.679  0.4377 -0.4930 -0.2144
  151MOL   C11236412   0.442   1.611   1.675 -0.3958  0.2721 -0.3268
  151MOL   O11336413   0.444   1.682   1.774  0.3401 -0.0664 -0.1842
  151MOL   O11436414   0.406   1.648   1.549 -0.1392  0.4091 -0.0611
  151MOL   C11536415   0.348   1.770   1.524  0.0664  0.5036  0.0255
  151MOL   H11636416   0.357   1.403   1.839  0.3262 -0.4615  0.8594
  151MOL   H11736417   0.423   1.268   1.764 -1.1327  0.5603  1.6702
  151MOL   H11836418   0.520   1.449   1.575  0.8847 -2.3380  0.1716
  151MOL   H11936419   0.431   1.838   1.503  0.5508  0.3188  1.2974
  151MOL   H12036420   0.286   1.815   1.602  1.4853 -0.2116  1.5888
  151MOL   H12136421   0.282   1.758   1.438  0.8440 -1.4545 -0.3291
  151MOL   C12236422   0.617   1.456   1.770  0.3653 -0.0924 -0.4345
  151MOL   C12336423   0.685   1.319   1.765 -0.1028 -0.1174 -0.0767
  151MOL   C12436424   0.716   1.277   1.615  0.1953  0.4182 -0.5752
  151MOL   O12536425   0.786   1.356   1.543 -0.4215  0.5007 -0.5164
  151MOL   O12636426   0.664   1.161   1.586 -0.3470  0.1994  0.4941
  151MOL   C12736427   0.673   1.119   1.451 -0.4558  0.4272 -0.2622
  151MOL   H12836428   0.682   1.540   1.744  1.3847 -0.9861 -0.8170
  151MOL   H12936429   0.575   1.466   1.871 -1.3997  0.9167 -1.2417
  151MOL   H13036430   0.626   1.236   1.804  0.3184 -1.5908 -2.4431
  151MOL   H13136431   0.608   1.175   1.384 -1.5644  1.0564  1.3078
  151MOL   H13236432   0.652   1.012   1.454 -0.0716  0.3693  0.4266
  151MOL   H13336433   0.776   1.135   1.421  0.0549 -0.8639  0.7675
  151MOL   C13436434   0.816   1.327   1.841  0.3466  0.0338 -0.8011
  151MOL   C13536435   0.799   1.347   1.996  0.2539 -0.2370 -0.1985
  151MOL   C13636436   0.747   1.225   2.068  0.8090 -0.6644  0.2583
  151MOL   O13736437   0.736   1.119   2.005  0.0433  0.3368  0.2396
  151MOL   O13836438   0.727   1.236   2.205 -0.2018  0.3921 -0.6194
  151MOL   C13936439   0.673   1.123   2.273 -0.2078  0.0280  0.1243
  151MOL   H14036440   0.880   1.239   1.832 -1.0850 -1.4072  1.9904
  151MOL   H14136441   0.883   1.409   1.816 -1.1736  1.4215 -0.4195
  151MOL   H14236442   0.725   1.426   2.014 -1.1194 -2.0391  2.4180
  151MOL   H14336443   0.761   1.058   2.283 -0.9216 -0.5187  3.4028
  151MOL   H14436444   0.601   1.075   2.206  2.1099  0.0909 -2.5173
  151MOL   H14536445   0.633   1.152   2.370  2.4811  2.4728  0.5617
  151MOL   C14636446   0.931   1.405   2.057 -0.1416 -0.5281  0.2048
  151MOL   C14736447   1.061   1.325   2.036 -0.7275  0.3265 -0.7064
  151MOL   C14836448   1.181   1.409   1.984 -1.6925  0.5729 -0.0155
  151MOL   O14936449   1.217   1.393   1.869 -0.0918 -0.4434 -0.0799
  151MOL   O15036450   1.226   1.487   2.074 -0.3694  0.3304 -0.3138
  151MOL   C15136451   1.311   1.594   2.035  0.3933 -0.2632  0.4298
  151MOL   H15236452   0.953   1.497   2.005  0.1197 -1.4395 -1.3170
  151MOL   H15336453   0.917   1.441   2.159 -3.1524 -0.6697 -0.1183
  151MOL   H15436454   1.037   1.273   1.944 -1.0442  2.2322 -1.7204
  151MOL   H15536455   1.252   1.658   1.969  1.2778 -3.2573 -3.3935
  151MOL   H15636456   1.393   1.558   1.973  0.8925  1.5262  0.0094
  151MOL   H15736457   1.353   1.651   2.118 -0.3923  0.1731  0.5375
  151MOL   C15836458   1.094   1.239   2.158 -0.0719  0.5724  0.8264
  151MOL   C15936459   1.139   1.095   2.124 -0.4233 -0.2461 -0.1302
  151MOL   C16036460   1.288   1.078   2.074  0.5173  0.2163  0.5154
  151MOL   O16136461   1.369   1.166   2.085  0.0317 -0.0505 -0.5421
  151MOL   O16236462   1.306   0.959   2.015 -0.4716  0.1482 -0.4680
  151MOL   C16336463   1.423   0.938   1.942 -0.4104  0.0394  1.1274
  151MOL   H16436464   1.174   1.287   2.215  1.0654 -1.1628  0.7137
  151MOL   H16536465   1.016   1.249   2.234  0.4586 -0.9902  1.6039
  151MOL   H16636466   1.078   1.062   2.039  0.1521  0.8907 -1.0069
  151MOL   H16736467   1.416   0.980   1.842 -1.7539 -2.0092  0.3551
  151MOL   H16836468   1.429   0.832   1.920  0.0696  0.2367  0.2823
  151MOL   H16936469   1.516   0.969   1.992 -1.6399  2.0622  2.2500
  151MOL   C17036470   1.119   1.011   2.248 -0.6199 -0.1975 -0.3991
  151MOL   C17136471   1.074   0.867   2.221 -0.3114  0.7883  0.3506
  151MOL   C17236472   1.099   0.789   2.345 -0.3425  0.2275 -0.3457
  151MOL   O17336473   1.027   0.772   2.442  0.2713 -0.4491  0.3481
  151MOL   O17436474   1.229   0.745   2.336  0.1276  0.3008  0.1906
  151MOL   C17536475   1.293   0.680   2.446  0.6582 -0.5214 -0.5174
  151MOL   H17636476   1.217   0.995   2.293 -0.7270  1.4006  0.4435
  151MOL   H17736477   1.050   1.059   2.317 -0.0142  0.9536 -0.5737
  151MOL   H17836478   1.130   0.816   2.143 -1.1262  0.0313  0.2612
  151MOL   H17936479   1.352   0.596   2.408  0.5197 -0.8510 -0.0023
  151MOL   H18036480   1.228   0.649   2.528  2.2121 -1.2265  0.4699
  151MOL   H18136481   1.353   0.759   2.489 -1.9867  0.8588  0.7113
  151MOL   C18236482   0.923   0.862   2.187 -0.2137  0.3528 -0.1293
  151MOL   C18336483   0.892   0.749   2.078  0.2455  0.1551  0.3840
  151MOL   C18436484   0.906   0.605   2.130 -0.1151  0.2441  0.4164
  151MOL   O18536485   0.982   0.529   2.069 -0.1250 -0.1722  0.1761
  151MOL   O18636486   0.843   0.581   2.247  0.1729 -0.6435 -0.5654
  151MOL   C18736487   0.855   0.457   2.310 -0.3182 -0.6007  0.1046
  151MOL   H18836488   0.857   0.855   2.273 -0.2351 -1.5117 -0.2959
  151MOL   H18936489   0.884   0.954   2.141 -1.7894  0.1309  0.7192
  151MOL   H19036490   0.961   0.766   1.996  1.3501 -1.1967  0.9946
  151MOL   H19136491   0.961   0.436   2.321 -0.9405 -3.0023  2.1081
  151MOL   H19236492   0.805   0.377   2.256 -1.1922  0.0017  0.0188
  151MOL   H19336493   0.810   0.484   2.406 -0.1748  1.3644 -0.3548
  151MOL   C19436494   0.753   0.768   2.023 -0.0055  0.4642  0.7534
  151MOL   C19536495   0.702   0.736   1.879  0.0202 -0.6188  0.2698
  151MOL   C19636496   0.750   0.835   1.775  0.4854 -0.6266 -1.0268
  151MOL   O19736497   0.668   0.893   1.698 -0.3485 -0.9670  0.1025
  151MOL   O19836498   0.880   0.850   1.771 -0.3633  0.3751  0.7945
  151MOL   C19936499   0.946   0.960   1.705 -0.2975  0.5109 -0.1338
  151MOL   H20036500   0.684   0.716   2.090  2.1397  0.5882  3.1213
  151MOL   H20136501   0.733   0.874   2.040  0.2542  0.2800  2.3185
  151MOL   H20236502   0.594   0.742   1.873  0.0188 -0.8603  0.0163
  151MOL   H20336503   0.987   0.920   1.612  4.1310  0.9460  1.5427
  151MOL   H20436504   1.031   1.004   1.758  0.7128 -1.1788 -0.3208
  151MOL   H20536505   0.879   1.043   1.681 -0.3787  0.1926 -1.0107
  151MOL   C20636506   0.724   0.588   1.840 -0.1304  0.3092  0.4627
  151MOL   C20736507   0.667   0.472   1.929  0.0089  0.3582 -0.1641
  151MOL   C20836508   0.516   0.480   1.928  0.0648 -0.2697  0.4647
  151MOL   O20936509   0.462   0.509   2.036 -0.2956 -0.3904 -0.1286
  151MOL   O21036510   0.453   0.459   1.811  0.3428  0.0385  0.1306
  151MOL   C21136511   0.316   0.481   1.802  0.0989  0.0479  0.0595
  151MOL   H21236512   0.674   0.573   1.744  1.7696  2.5450 -0.9463
  151MOL   H21336513   0.832   0.576   1.832 -0.3219 -1.7784  0.7482
  151MOL   H21436514   0.689   0.484   2.035 -0.6879  2.7146 -0.2517
  151MOL   H21536515   0.278   0.413   1.725  0.1768  0.0064  0.0586
  151MOL   H21636516   0.287   0.581   1.769 -0.2028  0.3971  1.3462
  151MOL   H21736517   0.255   0.469   1.892  0.7604 -2.5867  0.1829
  151MOL   C21836518   0.712   0.334   1.861  0.7119  0.0607 -0.1353
  151MOL   C21936519   0.684   0.209   1.946  0.0297 -0.2417  0.6175
  151MOL   C22036520   0.625   0.090   1.877  0.3942 -0.2953 -0.1300
  151MOL   O22136521   0.651   0.074   1.758 -0.1281 -0.1444 -0.2517
  151MOL   O22236522   0.543   0.012   1.943 -0.0639 -0.0940 -0.3809
  151MOL   C22336523   0.494   7.833   1.867 -0.2876 -0.9917 -0.3998
  151MOL   H22436524   0.660   0.328   1.765 -0.5677 -0.2069  0.5638
  151MOL   H22536525   0.816   0.331   1.827  1.2804 -0.3493  1.6117
  151MOL   H22636526   0.606   0.239   2.016  0.2718  1.3566  0.2315
  151MOL   H22736527   0.462   7.764   1.945 -2.8835 -2.7209 -2.9102
  151MOL   H22836528   0.571   7.784   1.808  1.0201  0.0961  0.3861
  151MOL   H22936529   0.403   7.861   1.813 -1.9781 -2.4464  1.5974
  151MOL   C23036530   0.815   0.168   2.017  0.1085  0.0826 -0.8948
  151MOL   C23136531   0.803   0.063   2.129 -0.2337  0.2099  0.2489
  151MOL   C23236532   0.701   0.088   2.242 -0.8033  0.3385 -1.1020
  151MOL   O23336533   0.668   0.201   2.275  0.3728 -0.2876 -0.3451
  151MOL   O23436534   0.641   7.911   2.296  0.0265 -0.4529 -0.6159
  151MOL   C23536535   0.541   7.929   2.396  1.0835  0.4424 -0.2456
  151MOL   H23636536   0.882   0.145   1.934  1.2057  0.4421 -0.1159
  151MOL   H23736537   0.854   0.252   2.075  0.6899  0.1790 -1.4204
  151MOL   H23836538   0.899   0.021   2.158 -0.0291  0.6787  0.2428
  151MOL   H23936539   0.496   7.831   2.418  0.0645  0.9648  0.0445
  151MOL   H24036540   0.453   0.058   2.379  1.2148  0.8674  0.6401
  151MOL   H24136541   0.585   0.015   2.494  0.7207  2.2313 -0.4196
  151MOL   H24236542   0.759   7.911   2.076  0.7660 -0.3789  0.3477
  152MOL     C136543   0.473   2.963   5.077  0.7332 -0.0620 -0.3582
  152MOL     C236544   0.421   3.099   5.045  0.3152  0.1249  0.1755
  152MOL     C336545   0.329   3.156   5.156 -0.2269 -1.0640  0.5517
  152MOL     O436546   0.337   3.128   5.270 -0.1219 -0.1810 -0.1477
  152MOL     O536547   0.248   3.254   5.114  0.1406  0.2183  0.4840
  152MOL     C636548   0.176   3.324   5.210 -0.2558  0.7238  0.8368
  152MOL     H736549   0.555   2.948   5.008  1.1609 -2.3644  0.5824
  152MOL     H836550   0.395   2.890   5.055  0.2220  0.9692 -2.0095
  152MOL     H936551   0.350   3.077   4.966  2.0838 -1.1083 -1.1328
  152MOL    H1036552   0.115   3.387   5.145  0.8540 -0.9975 -2.0046
  152MOL    H1136553   0.241   3.393   5.263 -2.3065  1.7295  2.1040
  152MOL    H1236554   0.121   3.261   5.279 -0.4822 -0.3166 -0.2654
  152MOL    H1336555   0.506   2.968   5.181 -0.4353 -1.2808  0.0912
  152MOL    C1436556   0.528   3.206   4.997 -0.2338 -0.2529  0.1137
  152MOL    C1536557   0.647   3.237   5.089  0.0083 -1.0708  0.5336
  152MOL    C1636558   0.769   3.149   5.060 -0.3968  0.5099  0.3545
  152MOL    O1736559   0.776   3.041   5.116  0.2209 -0.0378  0.2568
  152MOL    O1836560   0.851   3.198   4.973 -0.1332  0.2951  0.8365
  152MOL    C1936561   0.974   3.135   4.938 -0.2537  0.1556  0.3918
  152MOL    H2036562   0.573   3.192   4.899  2.2932 -0.0678  1.2002
  152MOL    H2136563   0.469   3.296   4.985 -2.1173 -1.7243 -2.0544
  152MOL    H2236564   0.617   3.200   5.188 -1.2916 -0.1431  0.5015
  152MOL    H2336565   1.024   3.116   5.033 -0.2073 -1.6252  0.0320
  152MOL    H2436566   1.043   3.196   4.881  0.2636 -0.5982  0.2015
  152MOL    H2536567   0.958   3.048   4.875  1.4558  1.5621 -2.0211
  152MOL    C2636568   0.688   3.384   5.100 -0.2801  0.9257 -0.2174
  152MOL    C2736569   0.606   3.470   5.202 -0.0075 -0.7506 -0.5992
  152MOL    C2836570   0.610   3.407   5.341  0.6011 -0.7775 -0.3682
  152MOL    O2936571   0.712   3.355   5.377  0.3135  0.0421 -0.4334
  152MOL    O3036572   0.492   3.426   5.407  0.3983  0.0667 -0.2942
  152MOL    C3136573   0.473   3.363   5.530 -0.5429 -0.1449  0.1679
  152MOL    H3236574   0.789   3.401   5.137 -0.6486  0.3036  1.1388
  152MOL    H3336575   0.687   3.429   5.001  0.1054 -2.9077 -2.0503
  152MOL    H3436576   0.499   3.468   5.178 -0.7134  0.1716  2.3074
  152MOL    H3536577   0.405   3.418   5.596  1.6653  0.6963  1.8261
  152MOL    H3636578   0.570   3.330   5.568 -1.0081 -0.4938  1.0554
  152MOL    H3736579   0.423   3.268   5.512 -0.5984 -0.5087  2.1150
  152MOL    C3836580   0.645   3.622   5.210  0.1754  0.5311  0.2663
  152MOL    C3936581   0.553   3.723   5.285 -0.3239  0.5964 -0.1176
  152MOL    C4036582   0.616   3.859   5.276  0.1964 -0.2753 -0.4875
  152MOL    O4136583   0.722   3.880   5.221 -0.3311 -0.0276 -0.4650
  152MOL    O4236584   0.542   3.957   5.338  0.0318 -0.0617 -0.0713
  152MOL    C4336585   0.587   4.088   5.336 -0.1212  0.1689 -0.8650
  152MOL    H4436586   0.746   3.619   5.251 -0.2857 -1.1051  1.3008
  152MOL    H4536587   0.648   3.663   5.109 -2.0937 -0.6819 -0.3175
  152MOL    H4636588   0.564   3.686   5.387  0.4612 -1.8619 -1.0357
  152MOL    H4736589   0.506   4.154   5.367  1.0487  0.8373  0.8562
  152MOL    H4836590   0.622   4.108   5.235  0.9110  1.4746 -0.2649
  152MOL    H4936591   0.673   4.088   5.402  0.8151  0.6894 -2.0819
  152MOL    C5036592   0.408   3.723   5.233 -0.2646 -0.1683 -0.5606
  152MOL    C5136593   0.385   3.785   5.088  0.3337 -0.2216  0.3462
  152MOL    C5236594   0.394   3.682   4.974 -0.0607 -0.3054 -0.6763
  152MOL    O5336595   0.491   3.678   4.906  0.3313  0.0830 -0.2942
  152MOL    O5436596   0.287   3.602   4.977 -0.1733  0.2162  1.0106
  152MOL    C5536597   0.267   3.501   4.880  0.4951 -0.3216  0.3774
  152MOL    H5636598   0.368   3.623   5.252  1.2859 -0.7673 -0.3584
  152MOL    H5736599   0.356   3.785   5.305 -1.6959 -1.5635 -0.3653
  152MOL    H5836600   0.464   3.859   5.073 -0.0490  0.3457  1.1091
  152MOL    H5936601   0.160   3.501   4.860  0.5295 -0.9866  0.1898
  152MOL    H6036602   0.313   3.405   4.904 -0.7246 -1.2463 -0.9215
  152MOL    H6136603   0.328   3.528   4.794  2.7259 -4.4325  0.5600
  152MOL    C6236604   0.237   3.843   5.081  0.5073  0.0563 -0.5766
  152MOL    C6336605   0.223   3.980   5.158  0.1296 -0.6072 -0.0127
  152MOL    C6436606   0.305   4.097   5.087  0.4432 -0.0300  0.1485
  152MOL    O6536607   0.364   4.083   4.977  0.8182  0.2676  0.4278
  152MOL    O6636608   0.322   4.202   5.168  0.3988 -0.2322  0.4219
  152MOL    C6736609   0.413   4.301   5.140  0.1999  0.0633 -0.4800
  152MOL    H6836610   0.206   3.864   4.979 -1.0477  1.1420  0.0984
  152MOL    H6936611   0.172   3.761   5.113  1.3458 -0.6337 -0.6192
  152MOL    H7036612   0.283   3.980   5.249  1.7956 -1.5541 -1.0874
  152MOL    H7136613   0.510   4.253   5.130 -0.1347 -0.9151  0.8773
  152MOL    H7236614   0.434   4.376   5.217  1.6066 -0.7826 -0.0295
  152MOL    H7336615   0.392   4.356   5.048 -0.3153 -0.5549 -0.7311
  152MOL    C7436616   0.077   4.024   5.173 -0.1557 -0.2692  0.7049
  152MOL    C7536617   7.928   3.945   5.290 -0.1465 -0.0620  0.2780
  152MOL    C7636618   0.078   3.933   5.420 -0.6800 -0.0480 -0.1583
  152MOL    O7736619   0.123   3.824   5.461 -0.0185  0.0485 -0.1679
  152MOL    O7836620   0.104   4.050   5.466  0.6413  0.2550  0.4663
  152MOL    C7936621   0.157   4.072   5.595 -0.8833  0.2723  0.3619
  152MOL    H8036622   0.060   4.131   5.185 -3.5167 -0.7536  0.8099
  152MOL    H8136623   0.030   4.007   5.076  1.7626 -3.3582  0.2546
  152MOL    H8236624   7.909   3.844   5.254 -1.4115  0.0031  0.7363
  152MOL    H8336625   0.247   4.013   5.607 -1.2060 -0.4147 -0.5493
  152MOL    H8436626   0.091   4.039   5.675 -1.2976 -0.3822 -0.2467
  152MOL    H8536627   0.180   4.176   5.619 -1.4383  0.8796 -1.7034
  152MOL    C8636628   7.788   4.012   5.306  0.0347 -0.4920  0.8943
  152MOL    C8736629   7.691   3.962   5.201  0.2999  0.1283  0.3174
  152MOL    C8836630   7.647   3.818   5.234 -0.4989 -0.3818 -0.1314
  152MOL    O8936631   7.680   3.732   5.158 -0.4681 -0.0860  0.3850
  152MOL    O9036632   7.592   3.806   5.345 -0.0049 -0.3598  0.2572
  152MOL    C9136633   7.547   3.676   5.382 -0.0640  0.0388  0.6273
  152MOL    H9236634   7.762   3.992   5.410 -0.1060  0.0725  0.9674
  152MOL    H9336635   7.794   4.121   5.311  0.3811 -0.4794  0.2895
  152MOL    H9436636   7.737   3.968   5.102 -1.8980  0.7427 -0.7081
  152MOL    H9536637   7.495   3.671   5.478 -3.0538 -0.7882 -0.9635
  152MOL    H9636638   7.633   3.610   5.383  0.1932  0.3813  1.6352
  152MOL    H9736639   7.462   3.649   5.319  1.5129  1.3668 -2.1441
  152MOL    C9836640   7.568   4.053   5.195 -0.1463  0.1745 -0.4231
  152MOL    C9936641   7.573   4.175   5.100 -0.3362 -0.2214  0.0715
  152MOL   C10036642   7.544   4.136   4.956 -0.1550  0.3718  0.9896
  152MOL   O10136643   7.468   4.041   4.921  0.0219  0.1318  0.4845
  152MOL   O10236644   7.587   4.230   4.864 -0.5113  0.2917  0.0425
  152MOL   C10336645   7.552   4.212   4.725  0.1355 -0.1420 -0.5893
  152MOL   H10436646   7.480   3.990   5.181  1.2957 -2.4893  1.9631
  152MOL   H10536647   7.542   4.099   5.290 -1.9457 -0.2582 -0.6769
  152MOL   H10636648   7.679   4.201   5.106 -0.1733 -0.9850  0.5217
  152MOL   H10736649   7.602   4.284   4.660  0.5457 -0.8031 -1.0172
  152MOL   H10836650   7.444   4.226   4.716  0.0349 -2.1001 -2.9550
  152MOL   H10936651   7.580   4.113   4.688  0.4596  0.6037 -2.3675
  152MOL   C11036652   7.494   4.298   5.141  0.4037 -0.8008 -0.5733
  152MOL   C11136653   7.567   4.383   5.256  0.6120 -0.2183  0.2119
  152MOL   C11236654   7.704   4.439   5.209  0.6182 -0.5442  0.0278
  152MOL   O11336655   7.809   4.395   5.244  0.3889 -1.1127 -0.0461
  152MOL   O11436656   7.697   4.534   5.120 -0.4485  0.6903 -0.3423
  152MOL   C11536657   7.815   4.600   5.078  0.1368  0.1167  0.0511
  152MOL   H11636658   7.457   4.366   5.064 -0.9958  0.1546  0.8942
  152MOL   H11736659   7.398   4.263   5.180 -0.5445  1.4707 -0.7851
  152MOL   H11836660   7.590   4.317   5.340  0.3908 -2.1005 -1.1839
  152MOL   H11936661   7.866   4.515   5.032  0.3054 -0.7414  1.7782
  152MOL   H12036662   7.874   4.638   5.161 -0.8876 -2.7400  2.1828
  152MOL   H12136663   7.788   4.671   5.000  1.7431 -0.6241 -1.2253
  152MOL   C12236664   7.485   4.496   5.318 -0.2867  0.3102  0.4031
  152MOL   C12336665   7.365   4.445   5.403  0.5511 -0.6583 -0.3850
  152MOL   C12436666   7.408   4.370   5.526 -0.8321 -0.1749 -0.2647
  152MOL   O12536667   7.423   4.418   5.635  0.4759  0.6660 -0.0816
  152MOL   O12636668   7.428   4.246   5.497 -0.1249  0.3336 -0.4716
  152MOL   C12736669   7.527   4.166   5.570  0.0301 -0.1263 -0.7426
  152MOL   H12836670   7.537   4.574   5.373  0.1288 -0.4072  1.0480
  152MOL   H12936671   7.433   4.535   5.231 -2.2860 -2.2681  0.3655
  152MOL   H13036672   7.297   4.382   5.345  1.2533 -2.4455  0.7039
  152MOL   H13136673   7.499   4.061   5.571 -0.8734  0.0641  2.9630
  152MOL   H13236674   7.525   4.197   5.675 -1.6558  0.4987 -0.9387
  152MOL   H13336675   7.630   4.183   5.541  0.0513 -0.6142 -0.9633
  152MOL   C13436676   7.278   4.578   5.421 -0.0156  0.0958 -0.5845
  152MOL   C13536677   7.168   4.590   5.316 -0.3940 -0.2935 -0.1852
  152MOL   C13636678   7.047   4.522   5.368  0.1466 -0.0654 -0.4737
  152MOL   O13736679   7.006   4.421   5.305  0.1585  0.0863  0.2505
  152MOL   O13836680   6.988   4.590   5.459  0.4566  0.3771  0.5145
  152MOL   C13936681   6.852   4.560   5.484 -0.2614 -0.3445  0.0305
  152MOL   H14036682   7.249   4.588   5.526  1.1590 -0.9677 -0.1376
  152MOL   H14136683   7.346   4.663   5.414  1.2496 -0.6035  2.3432
  152MOL   H14236684   7.211   4.544   5.227 -2.6240 -0.3785 -1.2524
  152MOL   H14336685   6.846   4.459   5.525 -0.8803 -0.4771 -0.3685
  152MOL   H14436686   6.791   4.570   5.394  1.2317 -1.2717 -1.1035
  152MOL   H14536687   6.810   4.630   5.557 -0.4594  0.2702 -0.6655
  152MOL   C14636688   7.133   4.736   5.269  0.0549 -0.6756 -0.6445
  152MOL   C14736689   7.140   4.765   5.117 -0.1838  0.5605 -0.3823
  152MOL   C14836690   7.280   4.740   5.074  0.6113  0.8848  0.8400
  152MOL   O14936691   7.306   4.656   4.988 -0.7024 -0.1715  0.3621
  152MOL   O15036692   7.370   4.830   5.131 -0.4244 -0.0673  0.4224
  152MOL   C15136693   7.507   4.813   5.111 -0.1238 -0.0778 -0.5561
  152MOL   H15236694   7.029   4.762   5.289  0.5048  1.8022 -1.2620
  152MOL   H15336695   7.191   4.812   5.322  0.3038  0.7776 -2.9239
  152MOL   H15436696   7.131   4.873   5.107  0.1508  0.5659 -0.6558
  152MOL   H15536697   7.533   4.878   5.028 -0.3607  2.0653  1.0112
  152MOL   H15636698   7.520   4.708   5.086 -1.1903 -0.5776  0.9149
  152MOL   H15736699   7.569   4.834   5.199  0.8035 -1.1211 -0.9451
  152MOL   C15836700   7.036   4.691   5.026  0.2074  0.2971 -0.3261
  152MOL   C15936701   6.886   4.722   5.048  0.8269  0.1478  0.4046
  152MOL   C16036702   6.865   4.869   5.031  0.1079 -0.5375 -0.1013
  152MOL   O16136703   6.848   4.938   5.127  0.2076  0.0658 -0.1698
  152MOL   O16236704   6.855   4.920   4.900  0.2578 -0.5253  0.5844
  152MOL   C16336705   6.817   5.054   4.878  0.1959  0.5553 -0.4387
  152MOL   H16436706   7.046   4.714   4.920  0.0370 -0.5630 -0.5316
  152MOL   H16536707   7.049   4.583   5.027 -1.4079  0.0640 -1.2263
  152MOL   H16636708   6.857   4.709   5.153  1.4877  1.7469  0.7944
  152MOL   H16736709   6.872   5.131   4.932  0.3754 -0.1000  0.3112
  152MOL   H16836710   6.711   5.073   4.899  0.4605 -0.5534  2.0983
  152MOL   H16936711   6.813   5.084   4.774 -0.2399 -0.1426 -0.6280
  152MOL   C17036712   6.795   4.628   4.971  0.4130 -0.0556 -0.1917
  152MOL   C17136713   6.790   4.481   5.005  0.5284  0.8800 -0.1806
  152MOL   C17236714   6.722   4.453   5.139 -0.5654 -0.0750  0.1736
  152MOL   O17336715   6.659   4.535   5.200 -0.0897 -0.3450  0.2395
  152MOL   O17436716   6.750   4.335   5.181  0.0777  0.3335 -0.1873
  152MOL   C17536717   6.687   4.290   5.305  0.2471 -0.0160  0.4860
  152MOL   H17636718   6.692   4.661   4.971  0.9140  1.5559 -0.0775
  152MOL   H17736719   6.822   4.644   4.866  1.0176 -1.2577 -0.2283
  152MOL   H17836720   6.891   4.440   5.008  0.0134 -0.3533  0.7655
  152MOL   H17936721   6.663   4.379   5.363 -1.0014  1.5286 -2.3025
  152MOL   H18036722   6.752   4.224   5.363 -1.3035 -1.5837  0.4904
  152MOL   H18136723   6.593   4.237   5.292  1.0515 -1.4192  0.2685
  152MOL   C18236724   6.718   4.398   4.895  0.1133  0.0224 -0.3347
  152MOL   C18336725   6.694   4.243   4.909  0.0649 -0.0533 -0.2668
  152MOL   C18436726   6.582   4.192   4.813 -0.3536 -0.3248 -0.4532
  152MOL   O18536727   6.574   4.220   4.700 -0.3876 -0.8857 -0.3580
  152MOL   O18636728   6.493   4.110   4.879 -0.3870 -0.3868  0.2138
  152MOL   C18736729   6.400   4.022   4.826  0.0268  0.1153 -0.2100
  152MOL   H18836730   6.621   4.447   4.893 -0.1148 -0.3069  1.8266
  152MOL   H18936731   6.763   4.432   4.801  0.1012 -0.5666 -0.5551
  152MOL   H19036732   6.656   4.230   5.010  0.7674  0.7625  0.1060
  152MOL   H19136733   6.403   4.034   4.718 -2.1980 -2.8963 -0.6655
  152MOL   H19236734   6.300   4.053   4.853  1.0124  2.3868  0.9315
  152MOL   H19336735   6.432   3.921   4.853 -1.6426 -0.2282  0.5201
  152MOL   C19436736   6.827   4.167   4.887 -0.7186  0.3374  0.1251
  152MOL   C19536737   6.815   4.017   4.942  0.6087  0.0895 -0.1356
  152MOL   C19636738   6.932   3.934   4.878  0.2760  0.4906 -0.0857
  152MOL   O19736739   7.033   3.902   4.948 -0.4898 -0.5458 -0.3800
  152MOL   O19836740   6.908   3.887   4.750  0.2903  0.2834  0.0002
  152MOL   C19936741   6.996   3.795   4.693 -0.2642 -0.3396 -0.1801
  152MOL   H20036742   6.846   4.176   4.780  3.6036  1.7917  0.8785
  152MOL   H20136743   6.901   4.216   4.951 -1.3627 -0.4767  1.5108
  152MOL   H20236744   6.718   3.974   4.918  0.1384 -0.7293  2.9515
  152MOL   H20336745   7.094   3.839   4.677 -0.6994  0.6096 -0.2838
  152MOL   H20436746   6.959   3.765   4.595  0.0566  1.0852 -0.7563
  152MOL   H20536747   6.998   3.699   4.744  1.4167 -1.2024 -1.8048
  152MOL   C20636748   6.818   4.016   5.101  0.1302  0.4664 -0.1498
  152MOL   C20736749   6.751   3.883   5.159 -0.3249 -0.3112 -0.2572
  152MOL   C20836750   6.861   3.781   5.201 -0.3152  0.1573  0.7755
  152MOL   O20936751   6.875   3.676   5.137  0.1173  0.2556 -0.5006
  152MOL   O21036752   6.935   3.822   5.300  0.6136 -0.2531  0.3386
  152MOL   C21136753   7.028   3.736   5.348 -0.1543 -0.0791 -0.2902
  152MOL   H21236754   6.920   4.038   5.133  0.7068 -2.2799 -0.0261
  152MOL   H21336755   6.754   4.100   5.131  0.7948  1.5411 -1.6458
  152MOL   H21436756   6.705   3.822   5.082  1.7135  0.4267 -2.1026
  152MOL   H21536757   7.102   3.735   5.268 -1.1435  1.1679 -1.2305
  152MOL   H21636758   6.999   3.632   5.363  1.1358 -0.7717 -2.3185
  152MOL   H21736759   7.055   3.785   5.442 -1.7213  2.1649 -0.9844
  152MOL   C21836760   6.631   3.907   5.257  0.0355 -0.0218 -0.3646
  152MOL   C21936761   6.493   3.913   5.183 -0.1254 -0.3406  0.2588
  152MOL   C22036762   6.434   3.778   5.137 -0.1009 -0.1647  0.0482
  152MOL   O22136763   6.356   3.780   5.043 -0.0484 -0.1573  0.2906
  152MOL   O22236764   6.473   3.671   5.211 -0.2672 -0.4971  0.7450
  152MOL   C22336765   6.407   3.550   5.209 -0.2520 -0.4830  0.1128
  152MOL   H22436766   6.633   3.835   5.339 -0.3071 -0.1846 -0.4996
  152MOL   H22536767   6.645   4.006   5.303 -1.4952  0.1423 -0.2204
  152MOL   H22636768   6.506   3.953   5.082  2.2149 -2.7313 -0.4548
  152MOL   H22736769   6.313   3.567   5.262  0.2468 -0.7963  1.1179
  152MOL   H22836770   6.467   3.478   5.265  0.9510  1.0763  0.8298
  152MOL   H22936771   6.396   3.515   5.106 -1.0617  2.6386 -0.8962
  152MOL   C23036772   6.390   4.008   5.254  0.4284  0.2431 -0.5424
  152MOL   C23136773   6.337   4.123   5.166  1.0962 -0.6204 -1.0039
  152MOL   C23236774   6.277   4.247   5.233 -0.9399  0.0129 -0.9733
  152MOL   O23336775   6.262   4.248   5.356  0.1382  0.2640 -0.0648
  152MOL   O23436776   6.239   4.343   5.145  0.2548 -0.5677 -0.5394
  152MOL   C23536777   6.183   4.458   5.212 -0.4409  0.4233 -0.3355
  152MOL   H23636778   6.302   3.947   5.274  0.7467  0.0476  0.2610
  152MOL   H23736779   6.431   4.052   5.345 -0.6607  0.5980 -0.2113
  152MOL   H23836780   6.264   4.077   5.099 -0.3703  0.2072 -0.0007
  152MOL   H23936781   6.092   4.436   5.266 -0.3933  0.5485 -0.2069
  152MOL   H24036782   6.170   4.548   5.152  1.0358  0.6789 -0.2919
  152MOL   H24136783   6.259   4.495   5.280 -1.4011  0.6018  0.6495
  152MOL   H24236784   6.415   4.163   5.100  0.8237  1.6917  0.0081
  153MOL     C136785   5.293   1.820   3.614  0.2007 -0.0603  0.0042
  153MOL     C236786   5.293   1.900   3.482 -0.0062  1.3311 -0.6459
  153MOL     C336787   5.434   1.966   3.452  0.1855 -0.5091 -0.1756
  153MOL     O436788   5.519   1.911   3.379 -0.3023  0.3340  0.0038
  153MOL     O536789   5.442   2.084   3.502 -0.0691  0.1374 -0.1893
  153MOL     C636790   5.558   2.162   3.475 -0.2165  0.7228 -0.0396
  153MOL     H736791   5.347   1.726   3.608  1.1875  0.4415  0.9897
  153MOL     H836792   5.188   1.800   3.638 -0.4687  1.3638 -1.6272
  153MOL     H936793   5.229   1.987   3.499 -0.0295  1.0088  1.0815
  153MOL    H1036794   5.606   2.118   3.388 -0.5419 -0.5608  0.4217
  153MOL    H1136795   5.626   2.165   3.560  0.4275 -0.7735 -0.4864
  153MOL    H1236796   5.525   2.264   3.455  1.9360  1.1181 -1.7191
  153MOL    H1336797   5.338   1.870   3.699  0.4343 -2.8255  1.5570
  153MOL    C1436798   5.243   1.815   3.369 -0.5415 -0.5887 -0.1029
  153MOL    C1536799   5.234   1.894   3.232 -0.7524  0.0473  0.4922
  153MOL    C1636800   5.176   1.800   3.120 -0.2399 -0.4922  0.3663
  153MOL    O1736801   5.056   1.778   3.105 -0.1921 -0.2294  0.1366
  153MOL    O1836802   5.270   1.739   3.051 -0.0816  0.0883 -0.5574
  153MOL    C1936803   5.230   1.648   2.953 -0.2559 -0.4832 -0.2359
  153MOL    H2036804   5.308   1.728   3.359  2.3520  1.6187 -1.2314
  153MOL    H2136805   5.148   1.769   3.395 -1.0668  0.7822  0.4016
  153MOL    H2236806   5.332   1.934   3.206 -1.6150  0.2982 -2.6150
  153MOL    H2336807   5.151   1.696   2.896 -1.4153 -1.8957  0.1316
  153MOL    H2436808   5.202   1.557   3.006  1.8320 -1.8081 -1.3479
  153MOL    H2536809   5.312   1.626   2.884  0.0535  0.0564 -0.0423
  153MOL    C2636810   5.144   2.015   3.252  0.0040 -0.3724  0.1421
  153MOL    C2736811   5.209   2.149   3.210  0.0388  0.2029 -0.1311
  153MOL    C2836812   5.219   2.163   3.058  0.1557 -0.9290 -0.3114
  153MOL    O2936813   5.116   2.164   2.991 -0.1381 -0.3015 -0.1050
  153MOL    O3036814   5.340   2.201   3.019  0.5027 -0.3134 -0.4195
  153MOL    C3136815   5.371   2.197   2.887 -0.0757 -0.7628 -0.6924
  153MOL    H3236816   5.054   2.005   3.191 -1.3293 -2.6444  2.3822
  153MOL    H3336817   5.096   2.026   3.349 -0.3290 -0.3007 -0.0333
  153MOL    H3436818   5.311   2.153   3.247 -0.8122 -1.0373  2.4684
  153MOL    H3536819   5.314   2.273   2.833  1.4070  1.4664  0.8056
  153MOL    H3636820   5.359   2.100   2.839 -1.6117 -2.0348  2.1250
  153MOL    H3736821   5.478   2.218   2.882 -0.2633  0.5008  0.3348
  153MOL    C3836822   5.139   2.270   3.272  0.2622  0.2758 -0.2922
  153MOL    C3936823   5.217   2.404   3.277  0.1428  0.7799 -0.0257
  153MOL    C4036824   5.186   2.494   3.158 -0.4731 -0.0689 -0.2787
  153MOL    O4136825   5.271   2.534   3.079  0.7084 -0.9469  0.0276
  153MOL    O4236826   5.053   2.524   3.149 -0.3416 -0.6714  0.4700
  153MOL    C4336827   5.018   2.612   3.040 -0.9862 -0.5789  0.8099
  153MOL    H4436828   5.045   2.279   3.218  0.9925  0.7369 -1.5205
  153MOL    H4536829   5.116   2.246   3.375 -0.5478 -1.3527 -0.8373
  153MOL    H4636830   5.323   2.375   3.272  0.4879  0.5919  5.2349
  153MOL    H4736831   5.070   2.707   3.053 -1.6428  0.2098 -2.0144
  153MOL    H4836832   4.910   2.627   3.042 -0.8355  1.0905 -1.2631
  153MOL    H4936833   5.059   2.565   2.950  0.6408 -0.7650  1.6320
  153MOL    C5036834   5.210   2.472   3.417  0.7673  0.1968  0.0145
  153MOL    C5136835   5.271   2.608   3.433  0.1828 -0.5171 -0.2285
  153MOL    C5236836   5.176   2.721   3.412  0.2311  0.2517 -0.2656
  153MOL    O5336837   5.188   2.781   3.308  0.2064 -0.2317  0.0638
  153MOL    O5436838   5.088   2.748   3.510  0.0047 -0.4446 -0.1223
  153MOL    C5536839   4.974   2.827   3.478 -0.7102  0.1080 -0.6972
  153MOL    H5636840   5.105   2.480   3.446  0.5943 -2.5706  0.2520
  153MOL    H5736841   5.259   2.397   3.478  0.1805  0.0814  0.3488
  153MOL    H5836842   5.347   2.637   3.361 -1.5320  0.2868 -1.7253
  153MOL    H5936843   4.946   2.878   3.570  2.8908  0.5705  0.2203
  153MOL    H6036844   4.898   2.761   3.437 -0.7957 -0.0854 -0.2271
  153MOL    H6136845   5.001   2.903   3.405  1.9517 -0.1621 -0.0624
  153MOL    C6236846   5.352   2.619   3.567 -0.4247 -0.0257 -0.2653
  153MOL    C6336847   5.278   2.604   3.699  0.5014  0.1897  0.6859
  153MOL    C6436848   5.268   2.448   3.739  0.3546  0.2960  0.0379
  153MOL    O6536849   5.165   2.377   3.726 -1.3279  0.0006  0.6658
  153MOL    O6636850   5.386   2.403   3.768  0.3053  0.4975 -0.0774
  153MOL    C6736851   5.393   2.265   3.792  0.1741 -0.0388  0.4475
  153MOL    H6836852   5.438   2.552   3.563  0.5683  1.2201 -0.0677
  153MOL    H6936853   5.391   2.721   3.561  1.6243 -0.7235  0.6582
  153MOL    H7036854   5.174   2.636   3.698 -0.0545 -1.5318 -1.8045
  153MOL    H7136855   5.296   2.219   3.811  1.5025 -2.3838  1.7486
  153MOL    H7236856   5.464   2.238   3.870  0.4531  0.7137  0.4560
  153MOL    H7336857   5.432   2.222   3.700 -2.0037  2.6008 -1.7984
  153MOL    C7436858   5.338   2.689   3.816  0.1827 -0.3810 -0.2093
  153MOL    C7536859   5.487   2.699   3.855 -0.4362 -0.4776  0.1337
  153MOL    C7636860   5.560   2.789   3.746 -0.3216  0.1143  0.4192
  153MOL    O7736861   5.646   2.738   3.678 -0.2575  0.2596  0.5939
  153MOL    O7836862   5.517   2.914   3.732  0.1863  0.4343 -0.4937
  153MOL    C7936863   5.584   2.992   3.639 -0.2474 -0.1944 -0.2192
  153MOL    H8036864   5.294   2.788   3.802 -1.8685 -1.3032 -0.5245
  153MOL    H8136865   5.284   2.658   3.906  0.1885 -1.3395 -0.5330
  153MOL    H8236866   5.525   2.601   3.829 -0.8030  0.1165 -2.7838
  153MOL    H8336867   5.641   3.068   3.693  1.4180 -2.5623  1.4530
  153MOL    H8436868   5.509   3.045   3.579  1.8181 -2.1657 -4.7038
  153MOL    H8536869   5.650   2.944   3.568  3.7480  1.4604  2.1852
  153MOL    C8636870   5.505   2.744   4.005 -0.3769  0.4447  0.2256
  153MOL    C8736871   5.467   2.655   4.114  0.1804 -0.0113  0.4571
  153MOL    C8836872   5.542   2.521   4.105 -0.2713  0.4808  0.4001
  153MOL    O8936873   5.489   2.427   4.042 -0.6429  0.2549  0.0125
  153MOL    O9036874   5.657   2.523   4.168 -0.1552 -0.2489 -0.5964
  153MOL    C9136875   5.749   2.410   4.159  0.5414 -0.3541 -0.2879
  153MOL    H9236876   5.614   2.752   4.010 -0.2240 -0.1601 -1.5826
  153MOL    H9336877   5.472   2.846   4.022 -2.6545 -0.7825  3.4587
  153MOL    H9436878   5.362   2.627   4.113  0.9399 -3.0214 -0.7859
  153MOL    H9536879   5.745   2.380   4.055 -1.1568  1.4567 -0.7868
  153MOL    H9636880   5.729   2.337   4.238 -1.0386 -0.4048 -0.7259
  153MOL    H9736881   5.850   2.450   4.172  0.0701  0.6687  0.3624
  153MOL    C9836882   5.483   2.721   4.260 -0.0160  0.3744 -0.2444
  153MOL    C9936883   5.397   2.665   4.384 -0.3556 -0.5019  0.3493
  153MOL   C10036884   5.389   2.515   4.389  0.1676  0.0769  0.3613
  153MOL   O10136885   5.281   2.455   4.381  0.0345  0.0103  0.1880
  153MOL   O10236886   5.504   2.466   4.423 -0.9602 -0.6501 -0.6305
  153MOL   C10336887   5.505   2.329   4.450  0.1496  0.3583 -0.4744
  153MOL   H10436888   5.588   2.726   4.290  0.0281  0.5354 -0.4212
  153MOL   H10536889   5.458   2.827   4.257  0.0939  0.4331  0.8207
  153MOL   H10636890   5.293   2.696   4.376 -0.4379 -1.0888 -0.9061
  153MOL   H10736891   5.490   2.270   4.360  0.3711 -1.1564  0.4630
  153MOL   H10836892   5.422   2.304   4.515 -0.1311  0.3809 -0.8232
  153MOL   H10936893   5.590   2.303   4.514  1.2096  1.0712 -1.5562
  153MOL   C11036894   5.449   2.739   4.510 -0.3705 -0.3338 -0.0351
  153MOL   C11136895   5.375   2.714   4.643 -0.8121  0.0117 -0.5490
  153MOL   C11236896   5.440   2.778   4.767 -0.2829 -0.2489  0.2179
  153MOL   O11336897   5.508   2.710   4.845  0.6778  0.1481 -0.2973
  153MOL   O11436898   5.427   2.909   4.778  0.9355  0.1834  0.3101
  153MOL   C11536899   5.493   2.982   4.879 -0.2734  0.6605  0.4546
  153MOL   H11636900   5.556   2.721   4.517 -0.4245 -1.0629 -0.9461
  153MOL   H11736901   5.453   2.846   4.492  2.9945 -0.3759  0.2497
  153MOL   H11836902   5.391   2.607   4.657  0.4578 -0.0795 -2.5459
  153MOL   H11936903   5.597   2.979   4.846 -0.3128  0.6027  0.3360
  153MOL   H12036904   5.489   2.932   4.976 -1.3913  0.3545  0.2640
  153MOL   H12136905   5.456   3.084   4.884  0.2976  0.8252  1.2510
  153MOL   C12236906   5.218   2.726   4.652  0.6305  0.3283 -0.0794
  153MOL   C12336907   5.146   2.648   4.769 -0.1885  0.2593  0.4052
  153MOL   C12436908   5.009   2.716   4.801 -0.6191 -0.4911  0.4620
  153MOL   O12536909   4.905   2.657   4.804  0.4975 -0.5686 -0.7528
  153MOL   O12636910   5.024   2.842   4.841 -0.9412  0.3224 -0.1195
  153MOL   C12736911   4.902   2.913   4.876  0.0600 -0.0285  0.3503
  153MOL   H12836912   5.198   2.833   4.666  0.7540  0.1548  1.4363
  153MOL   H12936913   5.165   2.709   4.558  1.7325 -1.8866 -0.3267
  153MOL   H13036914   5.209   2.666   4.857  0.0581  0.2530  0.2300
  153MOL   H13136915   4.848   2.863   4.956  0.6885 -0.7625  0.3223
  153MOL   H13236916   4.830   2.917   4.795 -1.1301  1.9115  1.4519
  153MOL   H13336917   4.942   3.011   4.904  0.4512  0.0590 -0.4951
  153MOL   C13436918   5.123   2.496   4.729 -0.0850 -0.5682 -1.1247
  153MOL   C13536919   5.137   2.394   4.842  0.0187 -0.2766 -0.3447
  153MOL   C13636920   5.277   2.401   4.900  0.4233  0.3500 -0.2864
  153MOL   O13736921   5.300   2.456   5.004 -0.1140 -0.5704  0.0072
  153MOL   O13836922   5.368   2.337   4.815 -0.0274  0.0917  0.3683
  153MOL   C13936923   5.497   2.332   4.866 -0.3321 -0.3005 -0.0155
  153MOL   H14036924   5.030   2.477   4.676 -0.5786 -0.4137 -0.3292
  153MOL   H14136925   5.194   2.461   4.655 -1.5123 -0.2774 -2.6641
  153MOL   H14236926   5.136   2.295   4.796 -0.6018 -1.2532  1.7535
  153MOL   H14336927   5.542   2.430   4.849 -1.0917  0.1268  0.4037
  153MOL   H14436928   5.564   2.265   4.813  0.5459  1.8621 -1.7397
  153MOL   H14536929   5.488   2.303   4.971 -0.5743  0.4661  0.1855
  153MOL   C14636930   5.028   2.405   4.951  0.1652  0.3442 -0.5459
  153MOL   C14736931   5.012   2.273   5.024  0.6008  0.3808 -0.6370
  153MOL   C14836932   4.928   2.275   5.152  0.0439  0.6355 -0.2769
  153MOL   O14936933   4.986   2.242   5.260 -0.2692 -0.3807 -0.8261
  153MOL   O15036934   4.803   2.319   5.137 -0.0059  0.0840 -0.0829
  153MOL   C15136935   4.710   2.321   5.239 -0.0881 -0.0323 -0.0789
  153MOL   H15236936   5.048   2.490   5.016  0.4564 -0.8907  1.0068
  153MOL   H15336937   4.927   2.424   4.916 -1.1826 -0.5457  2.6910
  153MOL   H15436938   5.111   2.239   5.052 -0.5321 -1.5690  1.1281
  153MOL   H15536939   4.636   2.395   5.208 -0.7164 -1.0297 -0.9697
  153MOL   H15636940   4.764   2.345   5.331  2.8202 -1.4054 -1.3866
  153MOL   H15736941   4.661   2.224   5.239 -2.7836  1.2852 -0.2313
  153MOL   C15836942   4.962   2.158   4.928 -0.4644  0.3318 -0.4338
  153MOL   C15936943   5.062   2.041   4.911  0.0382  0.9307  0.9921
  153MOL   C16036944   5.091   1.957   5.040 -0.5695 -0.4185  0.2533
  153MOL   O16136945   5.212   1.959   5.070  0.7483  0.0578 -0.5363
  153MOL   O16236946   4.990   1.905   5.099  0.3254 -0.0258  0.5813
  153MOL   C16336947   5.002   1.843   5.226  0.4773  0.0148  0.4129
  153MOL   H16436948   4.867   2.115   4.961 -1.8588  2.9209 -0.9419
  153MOL   H16536949   4.949   2.197   4.827  1.3895  0.2390 -0.7232
  153MOL   H16636950   5.156   2.088   4.881 -1.4889  2.9125 -0.9210
  153MOL   H16736951   4.956   1.744   5.223  2.1512 -0.7714  0.3680
  153MOL   H16836952   4.959   1.902   5.307  1.5012 -2.1902  2.6272
  153MOL   H16936953   5.107   1.819   5.241  0.7580  0.3576 -0.9207
  153MOL   C17036954   5.008   1.948   4.793  0.9442 -0.6547 -0.2554
  153MOL   C17136955   5.108   1.847   4.748  0.0494  0.3675 -0.1702
  153MOL   C17236956   5.044   1.751   4.652  0.5618 -0.1424 -0.0598
  153MOL   O17336957   4.946   1.775   4.586 -0.4416 -0.0557 -0.2289
  153MOL   O17436958   5.099   1.627   4.655  0.1498 -0.2102 -0.2951
  153MOL   C17536959   5.044   1.520   4.573  0.0742  0.2766 -0.0330
  153MOL   H17636960   4.911   1.913   4.829  0.5942 -0.6504 -1.1661
  153MOL   H17736961   4.970   2.022   4.723  1.1447  0.5686  0.9218
  153MOL   H17836962   5.133   1.798   4.842  0.1511  0.4807 -0.1385
  153MOL   H17936963   4.943   1.486   4.592 -0.6085  0.6004 -2.8784
  153MOL   H18036964   5.101   1.428   4.587 -0.7973 -0.3370 -0.4784
  153MOL   H18136965   5.050   1.553   4.469  3.6229 -1.3646 -0.4240
  153MOL   C18236966   5.229   1.913   4.684 -0.5919  0.0884 -0.0648
  153MOL   C18336967   5.347   1.827   4.628  0.0396  0.2055 -0.6462
  153MOL   C18436968   5.451   1.926   4.573  0.5281  0.3826 -0.6514
  153MOL   O18536969   5.526   1.993   4.639 -0.0132  0.0051  0.3672
  153MOL   O18636970   5.462   1.910   4.441  0.2202  0.4277 -0.0703
  153MOL   C18736971   5.576   1.957   4.368 -0.6798  0.1357 -0.3914
  153MOL   H18836972   5.191   1.978   4.606  0.4810  0.6470 -0.1299
  153MOL   H18936973   5.274   1.981   4.756 -0.7294  0.5436 -0.4043
  153MOL   H19036974   5.316   1.758   4.549 -0.0830 -2.0233  1.2886
  153MOL   H19136975   5.586   1.900   4.276  0.4980 -0.2687 -0.0180
  153MOL   H19236976   5.670   1.930   4.415 -0.0963 -2.3391 -2.8107
  153MOL   H19336977   5.568   2.059   4.330  1.5234  0.5756  0.2733
  153MOL   C19436978   5.406   1.724   4.731 -0.3405  0.0029  0.2108
  153MOL   C19536979   5.492   1.608   4.687  0.2621  0.0949 -0.7693
  153MOL   C19636980   5.615   1.657   4.620  0.2257  0.2772  0.8735
  153MOL   O19736981   5.618   1.641   4.501  0.1872  0.0961  0.7214
  153MOL   O19836982   5.714   1.693   4.703  0.0232  0.4849  0.2995
  153MOL   C19936983   5.838   1.721   4.643  0.3198  0.5353 -0.2552
  153MOL   H20036984   5.469   1.780   4.801  1.6942  0.4958 -1.9598
  153MOL   H20136985   5.328   1.679   4.793 -0.7796 -1.2391 -1.2337
  153MOL   H20236986   5.429   1.557   4.614 -0.1099 -0.1255 -0.2964
  153MOL   H20336987   5.802   1.799   4.576 -1.4460  1.9285  2.2038
  153MOL   H20436988   5.871   1.633   4.588 -1.9224 -0.4207 -0.1213
  153MOL   H20536989   5.917   1.749   4.714  1.5517 -0.5833 -1.1600
  153MOL   C20636990   5.519   1.508   4.805 -0.0913 -0.6789  0.2921
  153MOL   C20736991   5.503   1.359   4.772 -0.5894 -0.2363 -0.4115
  153MOL   C20836992   5.620   1.302   4.688  0.0800 -0.3542 -0.6625
  153MOL   O20936993   5.599   1.231   4.586  0.5328 -0.5634 -0.7818
  153MOL   O21036994   5.740   1.351   4.732  0.6060  0.3958  0.1376
  153MOL   C21136995   5.850   1.318   4.660 -0.2662 -0.2853  0.2317
  153MOL   H21236996   5.614   1.530   4.853 -0.4638  1.2822  0.1566
  153MOL   H21336997   5.441   1.519   4.881 -0.9770 -1.1338 -0.5368
  153MOL   H21436998   5.408   1.347   4.721 -0.5341  2.6631 -1.2803
  153MOL   H21536999   5.871   1.381   4.574 -2.1192 -1.4763 -1.1280
  153MOL   H21637000   5.853   1.215   4.623 -2.8975  0.7650 -3.0814
  153MOL   H21737001   5.932   1.335   4.730 -1.2824  1.4371  1.0217
  153MOL   C21837002   5.505   1.270   4.898 -0.0126 -0.8332  0.0034
  153MOL   C21937003   5.433   1.138   4.880 -0.1825 -0.2820  0.6674
  153MOL   C22037004   5.505   1.021   4.946 -0.3210 -0.1773 -0.3941
  153MOL   O22137005   5.565   0.939   4.880  0.4214 -0.3693 -0.0503
  153MOL   O22237006   5.486   1.009   5.081  0.3387  0.5678 -0.6317
  153MOL   C22337007   5.554   0.901   5.155  0.4328  0.6855  0.0460
  153MOL   H22437008   5.608   1.244   4.920  1.0474  2.4276 -0.7130
  153MOL   H22537009   5.469   1.333   4.980  0.3290 -0.1364 -0.3737
  153MOL   H22637010   5.432   1.106   4.776  3.2565  1.7650 -0.0611
  153MOL   H22737011   5.552   0.914   5.263  0.1210 -0.5884  0.2132
  153MOL   H22837012   5.658   0.887   5.126  0.6141 -0.4260  1.1629
  153MOL   H22937013   5.500   0.810   5.125 -0.4995  1.1134  0.4156
  153MOL   C23037014   5.284   1.156   4.927  0.4883 -0.0429  0.5185
  153MOL   C23137015   5.193   1.029   4.900  0.4618  0.1607  0.3515
  153MOL   C23237016   5.177   0.991   4.749 -0.1221 -0.0597 -0.6395
  153MOL   O23337017   5.161   1.085   4.672  0.1282  0.2677 -0.5024
  153MOL   O23437018   5.188   0.856   4.726 -0.3604  0.2425 -0.2903
  153MOL   C23537019   5.162   0.811   4.590  0.9100 -0.3953 -0.4536
  153MOL   H23637020   5.288   1.187   5.031 -0.2390 -0.6382  0.7311
  153MOL   H23737021   5.250   1.242   4.870 -1.0168 -1.2897 -0.5266
  153MOL   H23837022   5.099   1.032   4.954 -0.9177 -3.4418 -1.6556
  153MOL   H23937023   5.082   0.741   4.569  0.2581  0.1670  0.1439
  153MOL   H24037024   5.249   0.752   4.560  1.8718 -0.9235  3.1278
  153MOL   H24137025   5.158   0.889   4.514  1.4834 -1.1322 -1.2418
  153MOL   H24237026   5.243   0.950   4.957  1.3199  0.1304 -0.4238
  154MOL     C137027   2.673   5.383   2.508  0.1118 -0.2991 -0.2986
  154MOL     C237028   2.710   5.230   2.496 -0.2529  0.1010 -0.0614
  154MOL     C337029   2.781   5.195   2.627  0.1295  0.9691  0.7192
  154MOL     O437030   2.725   5.120   2.710  0.0596  0.1941 -0.0950
  154MOL     O537031   2.908   5.245   2.634 -0.1027 -0.1164 -0.3950
  154MOL     C637032   2.990   5.215   2.740  0.5547 -0.4512 -0.3020
  154MOL     H737033   2.651   5.426   2.411 -2.8145  0.2421  0.5283
  154MOL     H837034   2.749   5.443   2.557 -1.7715  0.9340  1.2138
  154MOL     H937035   2.779   5.225   2.412 -0.5539  0.1996 -0.3121
  154MOL    H1037036   3.088   5.262   2.742 -0.8690  2.5927  1.3299
  154MOL    H1137037   3.002   5.107   2.748 -1.5964 -0.8019 -1.1998
  154MOL    H1237038   2.930   5.241   2.827  0.0610  0.2153 -0.8281
  154MOL    H1337039   2.589   5.406   2.575  0.2814 -2.0591  0.5451
  154MOL    C1437040   2.584   5.142   2.467  0.1210 -0.0702  0.1906
  154MOL    C1537041   2.613   4.982   2.455 -0.4043 -0.6218 -0.9427
  154MOL    C1637042   2.483   4.901   2.456  0.0938 -0.6431 -0.9927
  154MOL    O1737043   2.412   4.879   2.357  0.5812  0.6916 -0.5333
  154MOL    O1837044   2.455   4.866   2.593  0.2517  0.1808  0.4023
  154MOL    C1937045   2.325   4.802   2.615 -0.1289  0.1093 -0.2588
  154MOL    H2037046   2.496   5.160   2.529  1.0094  0.3030  1.3510
  154MOL    H2137047   2.551   5.161   2.365 -1.2989  1.6615  0.9481
  154MOL    H2237048   2.673   4.956   2.542 -1.9237  0.9729  0.6054
  154MOL    H2337049   2.303   4.722   2.544 -0.1268  0.2898 -0.4608
  154MOL    H2437050   2.241   4.871   2.608 -1.6425 -1.5041  1.3479
  154MOL    H2537051   2.332   4.740   2.705  0.2461  0.5810  0.0416
  154MOL    C2637052   2.699   4.947   2.328  0.3811 -0.5644 -1.1410
  154MOL    C2737053   2.848   4.944   2.359  1.0750  0.7919 -0.1121
  154MOL    C2837054   2.878   4.832   2.458 -0.7986  0.0622  0.4244
  154MOL    O2937055   2.882   4.715   2.419  0.5425 -0.0641 -1.0322
  154MOL    O3037056   2.887   4.871   2.590  0.3538  0.3269  0.8352
  154MOL    C3137057   2.890   4.772   2.694  0.4473 -0.5441  0.0343
  154MOL    H3237058   2.655   4.857   2.285  0.2789  0.3351 -2.9245
  154MOL    H3337059   2.675   5.022   2.253 -1.5495 -0.3095 -0.2905
  154MOL    H3437060   2.882   5.038   2.402  2.0135  1.1959 -1.6771
  154MOL    H3537061   2.868   4.831   2.783 -0.4888 -1.9494  0.7502
  154MOL    H3637062   2.991   4.732   2.689  0.6165 -0.0798 -0.3289
  154MOL    H3737063   2.807   4.702   2.692  1.0245 -1.2875  1.5041
  154MOL    C3837064   2.925   4.917   2.235  0.2643  0.1195 -0.1425
  154MOL    C3937065   3.072   4.976   2.245 -0.3456  0.5908 -0.1028
  154MOL    C4037066   3.174   4.889   2.168 -0.0919  0.3196  0.2213
  154MOL    O4137067   3.151   4.834   2.063 -0.3914  0.0365  0.1041
  154MOL    O4237068   3.289   4.885   2.233 -0.1742 -0.3412 -0.7590
  154MOL    C4337069   3.398   4.821   2.172 -0.2786 -1.0254  0.2941
  154MOL    H4437070   2.924   4.813   2.203 -0.9244  0.4853 -1.3586
  154MOL    H4537071   2.868   4.961   2.153 -1.1439  1.1921  1.3912
  154MOL    H4637072   3.112   4.956   2.344 -0.2116 -0.5940 -0.3844
  154MOL    H4737073   3.363   4.748   2.099  0.1984 -0.7457 -0.2143
  154MOL    H4837074   3.472   4.777   2.240  0.6350 -0.3683 -0.2609
  154MOL    H4937075   3.449   4.899   2.115 -0.0224 -1.0430  0.4971
  154MOL    C5037076   3.073   5.122   2.204 -0.4067 -0.1625  0.4281
  154MOL    C5137077   3.199   5.211   2.240  0.0532 -0.0945 -0.4796
  154MOL    C5237078   3.197   5.342   2.156  0.2100 -0.3565  0.1807
  154MOL    O5337079   3.120   5.435   2.180  0.1358 -0.5487 -0.3419
  154MOL    O5437080   3.283   5.335   2.053 -0.1781 -0.2564 -0.0428
  154MOL    C5537081   3.285   5.441   1.961  0.4304  0.3267  0.4253
  154MOL    H5637082   3.051   5.131   2.097 -1.6366  0.4731  0.7179
  154MOL    H5737083   2.985   5.176   2.241 -0.4606 -1.1425  1.7424
  154MOL    H5837084   3.284   5.146   2.224  0.0886 -0.3371  0.6693
  154MOL    H5937085   3.298   5.533   2.019 -0.3477  0.2202  0.7638
  154MOL    H6037086   3.200   5.447   1.893  0.1087  3.2794  0.9824
  154MOL    H6137087   3.370   5.420   1.896 -0.4723  1.5217 -1.1784
  154MOL    C6237088   3.183   5.244   2.393  0.0137  0.2578  0.1733
  154MOL    C6337089   3.303   5.300   2.466 -0.6879 -0.4896  0.4262
  154MOL    C6437090   3.429   5.211   2.441  0.2737 -0.4278 -0.7003
  154MOL    O6537091   3.483   5.219   2.333 -0.7353  0.1975  0.2163
  154MOL    O6637092   3.449   5.133   2.544 -0.1472 -0.1037  0.8485
  154MOL    C6737093   3.540   5.022   2.527  0.2270 -0.3090  0.1598
  154MOL    H6837094   3.093   5.304   2.398  0.5742  1.3651 -2.1324
  154MOL    H6937095   3.143   5.159   2.448  0.0213  0.8638  1.1198
  154MOL    H7037096   3.286   5.291   2.574 -0.0173 -0.6950  0.5138
  154MOL    H7137097   3.502   4.930   2.482  0.7886 -0.8537  0.7914
  154MOL    H7237098   3.566   4.982   2.625 -0.2234 -1.4833 -0.1854
  154MOL    H7337099   3.633   5.054   2.481  0.2831  0.1943  0.6183
  154MOL    C7437100   3.343   5.445   2.429  0.0697 -0.4437 -0.3909
  154MOL    C7537101   3.443   5.514   2.521  0.1920  0.5774  0.1045
  154MOL    C7637102   3.471   5.656   2.462  0.2522 -0.5502 -0.8176
  154MOL    O7737103   3.399   5.708   2.378 -0.6060 -0.4415  0.7187
  154MOL    O7837104   3.584   5.710   2.509 -0.1013  0.0321  0.5968
  154MOL    C7937105   3.643   5.833   2.460  0.4905 -0.1279 -0.0026
  154MOL    H8037106   3.389   5.457   2.331 -1.0616  1.0644 -0.7644
  154MOL    H8137107   3.246   5.495   2.429  0.9350  1.2978  0.9247
  154MOL    H8237108   3.535   5.458   2.508 -0.9295 -1.4851  0.8712
  154MOL    H8337109   3.672   5.809   2.357 -0.6989 -0.1316 -0.3424
  154MOL    H8437110   3.727   5.854   2.526 -0.9575 -2.1627  2.5617
  154MOL    H8537111   3.572   5.915   2.467 -0.2752 -0.7486 -0.4596
  154MOL    C8637112   3.415   5.505   2.675  0.0579 -0.1039 -0.0685
  154MOL    C8737113   3.494   5.408   2.756 -0.8877  0.4050 -0.2651
  154MOL    C8837114   3.640   5.455   2.760 -1.0556 -0.6492 -0.3267
  154MOL    O8937115   3.680   5.555   2.814 -0.2239 -0.5667 -0.1412
  154MOL    O9037116   3.723   5.364   2.703  0.6703  0.1103 -0.5954
  154MOL    C9137117   3.863   5.384   2.698  0.9385  0.4066  0.4800
  154MOL    H9237118   3.429   5.601   2.725 -0.3806 -0.7854  1.3867
  154MOL    H9337119   3.308   5.492   2.691 -0.0975 -3.1172 -2.9798
  154MOL    H9437120   3.489   5.314   2.700 -3.1536 -0.1970  0.9011
  154MOL    H9537121   3.921   5.294   2.677 -1.8056 -0.7106 -2.6057
  154MOL    H9637122   3.903   5.433   2.788  0.8712  2.7852 -0.7481
  154MOL    H9737123   3.889   5.452   2.617 -0.9551  1.6285  0.8588
  154MOL    C9837124   3.430   5.370   2.888 -0.4623 -0.3898  0.0048
  154MOL    C9937125   3.483   5.261   2.982 -0.6675  0.1335 -0.2208
  154MOL   C10037126   3.490   5.120   2.914  1.1217 -0.0415  0.1189
  154MOL   O10137127   3.591   5.057   2.898  0.3436 -0.6677 -0.6659
  154MOL   O10237128   3.367   5.088   2.886  0.5871  0.5562 -0.4304
  154MOL   C10337129   3.351   4.953   2.860 -0.3641  0.0598 -0.2616
  154MOL   H10437130   3.410   5.462   2.944  1.6564  0.1968 -0.1456
  154MOL   H10537131   3.333   5.342   2.849 -0.0422 -1.2831 -0.3998
  154MOL   H10637132   3.411   5.269   3.063 -2.1512  2.0068 -1.6774
  154MOL   H10737133   3.324   4.890   2.946  0.7995 -0.4887 -0.2836
  154MOL   H10837134   3.429   4.906   2.799  0.1580  2.2025 -1.2609
  154MOL   H10937135   3.268   4.941   2.790 -0.7166 -0.9246  0.3150
  154MOL   C11037136   3.617   5.298   3.057 -0.1621 -0.3987  0.3560
  154MOL   C11137137   3.618   5.432   3.142  0.7766  0.1157 -0.5199
  154MOL   C11237138   3.504   5.432   3.252  0.3177 -0.3828  0.0106
  154MOL   O11337139   3.526   5.386   3.363  0.4923  0.0670 -0.0084
  154MOL   O11437140   3.395   5.494   3.212  0.0978 -0.4595  0.1303
  154MOL   C11537141   3.281   5.494   3.296  0.0378 -0.4502  0.2378
  154MOL   H11637142   3.643   5.206   3.109 -0.6830 -0.0230  1.2900
  154MOL   H11737143   3.695   5.303   2.981  2.8310 -2.6626  3.1629
  154MOL   H11837144   3.587   5.512   3.075  1.1137  1.7041  1.1804
  154MOL   H11937145   3.197   5.542   3.246  1.3670  2.6894  0.9001
  154MOL   H12037146   3.313   5.537   3.391  0.5478 -1.2912  0.4480
  154MOL   H12137147   3.245   5.393   3.315  0.4817 -0.6981 -0.2136
  154MOL   C12237148   3.767   5.455   3.188  0.1902  0.1950  0.6682
  154MOL   C12337149   3.796   5.602   3.239 -0.2353 -0.0182 -0.4315
  154MOL   C12437150   3.932   5.611   3.324  0.2378 -0.3726 -0.6604
  154MOL   O12537151   4.010   5.519   3.334  0.3171 -0.0128  0.1330
  154MOL   O12637152   3.953   5.728   3.370 -0.3954  0.3053  0.2006
  154MOL   C12737153   4.077   5.750   3.441  0.0901 -0.4278  0.0641
  154MOL   H12837154   3.801   5.387   3.267  0.9460  0.0813  0.2524
  154MOL   H12937155   3.830   5.424   3.104 -0.1996 -0.5759  0.6526
  154MOL   H13037156   3.728   5.629   3.319  0.4496  0.9457 -0.1706
  154MOL   H13137157   4.054   5.771   3.546  1.9200  2.3720 -0.0370
  154MOL   H13237158   4.107   5.853   3.421 -2.8239  0.3920 -0.3313
  154MOL   H13337159   4.159   5.682   3.420 -0.0417 -0.3255 -0.7631
  154MOL   C13437160   3.777   5.707   3.129 -0.3337 -0.7361  0.0693
  154MOL   C13537161   3.661   5.805   3.158  0.7117  0.1983  0.1443
  154MOL   C13637162   3.691   5.901   3.278 -0.5490 -0.4593  0.1418
  154MOL   O13737163   3.613   5.907   3.366 -0.0808  0.7345 -0.9563
  154MOL   O13837164   3.813   5.963   3.268 -0.5764  0.7622 -0.5041
  154MOL   C13937165   3.866   6.035   3.373 -0.7786 -0.1103 -0.3296
  154MOL   H14037166   3.871   5.760   3.112  0.5444 -2.2542  0.0497
  154MOL   H14137167   3.748   5.656   3.037 -1.0239 -0.6986  0.2690
  154MOL   H14237168   3.571   5.746   3.176 -0.8428  2.3922 -0.3212
  154MOL   H14337169   3.822   6.134   3.377 -1.1840 -0.3459  3.0069
  154MOL   H14437170   3.973   6.049   3.361 -0.5109 -1.0357  0.8028
  154MOL   H14537171   3.840   5.992   3.470  0.6129  1.0896  0.5953
  154MOL   C14637172   3.614   5.889   3.034  0.0623 -0.3633  0.0411
  154MOL   C14737173   3.511   5.820   2.940 -0.2575  0.0915 -0.0211
  154MOL   C14837174   3.372   5.801   2.996  0.7851  0.3029 -0.2475
  154MOL   O14937175   3.339   5.848   3.105  0.1883 -0.0025 -0.1163
  154MOL   O15037176   3.296   5.724   2.918 -0.2144  0.6758  0.4033
  154MOL   C15137177   3.156   5.710   2.955  0.3146 -0.9190  0.5954
  154MOL   H15237178   3.568   5.981   3.072  0.2177 -1.1528  2.2453
  154MOL   H15337179   3.698   5.916   2.971  0.1551 -3.9594 -1.4799
  154MOL   H15437180   3.549   5.721   2.915  2.7443  1.8132 -2.5933
  154MOL   H15537181   3.112   5.641   2.883  1.4082 -1.5147  0.4932
  154MOL   H15637182   3.102   5.805   2.953  1.9536  0.0045 -0.6232
  154MOL   H15737183   3.147   5.666   3.055 -0.9247 -0.9918  0.4672
  154MOL   C15837184   3.498   5.882   2.800  0.4525 -0.2643  0.1069
  154MOL   C15937185   3.453   6.031   2.792  0.2782  0.0367 -0.6239
  154MOL   C16037186   3.580   6.117   2.771  0.8156 -0.0676 -0.5099
  154MOL   O16137187   3.592   6.225   2.832 -0.3097 -0.3814  0.2590
  154MOL   O16237188   3.669   6.076   2.678  0.3703 -0.4427 -0.7189
  154MOL   C16337189   3.789   6.147   2.658  0.0295  0.2379  0.0522
  154MOL   H16437190   3.589   5.855   2.746  2.1903 -2.0729  3.7431
  154MOL   H16537191   3.420   5.828   2.747 -0.5215 -0.9668  2.2115
  154MOL   H16637192   3.417   6.073   2.886  1.4737 -0.8124  0.2270
  154MOL   H16737193   3.768   6.246   2.619  0.6113 -0.3857 -1.8839
  154MOL   H16837194   3.847   6.100   2.578  0.6760  1.9145 -0.4787
  154MOL   H16937195   3.849   6.152   2.749 -1.7967  0.5611  1.2679
  154MOL   C17037196   3.354   6.066   2.680 -0.0637  0.0899 -0.2961
  154MOL   C17137197   3.207   6.059   2.718  0.8735  0.1613 -0.0512
  154MOL   C17237198   3.160   6.151   2.838 -1.1920  0.8664 -0.5487
  154MOL   O17337199   3.131   6.106   2.946  0.3066 -0.6086  0.0263
  154MOL   O17437200   3.145   6.280   2.808  1.0025  0.3801 -0.0815
  154MOL   C17537201   3.110   6.375   2.905  0.0173 -0.2400 -0.1011
  154MOL   H17637202   3.369   6.168   2.648 -0.2630  0.1636 -0.1615
  154MOL   H17737203   3.375   6.002   2.595  0.6579  0.0040 -0.0587
  154MOL   H17837204   3.182   5.958   2.753 -2.6904  0.9878  0.0077
  154MOL   H17937205   3.018   6.342   2.952 -2.6681 -0.3280 -5.0616
  154MOL   H18037206   3.092   6.475   2.865 -0.3853  0.9389  2.9351
  154MOL   H18137207   3.194   6.387   2.974  0.7973  1.4458 -1.3162
  154MOL   C18237208   3.118   6.095   2.592 -0.2122  0.0192  0.1997
  154MOL   C18337209   3.081   5.965   2.503  0.1829 -0.7535 -0.0788
  154MOL   C18437210   2.998   5.857   2.573 -0.4286 -0.8190 -0.1699
  154MOL   O18537211   2.922   5.875   2.667 -0.2355 -0.7306  0.4030
  154MOL   O18637212   3.022   5.739   2.511 -0.5171 -0.4042 -0.0183
  154MOL   C18737213   2.953   5.630   2.570 -0.0170  0.1645  0.3213
  154MOL   H18837214   3.022   6.125   2.634 -0.2176  0.5471 -0.1819
  154MOL   H18937215   3.165   6.175   2.534 -0.6117 -0.8484 -1.3620
  154MOL   H19037216   3.178   5.917   2.491  1.6877  2.2129 -0.1536
  154MOL   H19137217   2.845   5.643   2.575 -0.2928 -1.3489 -1.0123
  154MOL   H19237218   2.980   5.616   2.675  1.3408 -0.6898 -0.1305
  154MOL   H19337219   2.986   5.547   2.507  0.9517 -0.9016  2.1798
  154MOL   C19437220   3.018   5.996   2.367 -0.3994  0.3942  0.6384
  154MOL   C19537221   3.109   6.018   2.245 -0.4407 -1.2205 -0.3827
  154MOL   C19637222   3.205   6.138   2.272 -0.5852  0.6358 -0.6283
  154MOL   O19737223   3.175   6.251   2.242  0.0117  0.5695 -0.1826
  154MOL   O19837224   3.312   6.101   2.331  0.4901 -0.3645  0.1094
  154MOL   C19937225   3.418   6.191   2.358 -0.5742 -0.3930  0.2564
  154MOL   H20037226   2.942   5.924   2.334  0.7708 -1.4536  1.8489
  154MOL   H20137227   2.962   6.087   2.388 -2.1062  0.0758 -2.1860
  154MOL   H20237228   3.051   6.064   2.164  0.6296 -2.6892 -2.0252
  154MOL   H20337229   3.507   6.148   2.403 -0.9916  0.3781  1.8529
  154MOL   H20437230   3.401   6.287   2.406 -0.9771 -1.2690  1.9202
  154MOL   H20537231   3.456   6.216   2.259 -0.6485 -0.5416  0.1899
  154MOL   C20637232   3.176   5.890   2.197  0.3699  0.6813 -0.0820
  154MOL   C20737233   3.116   5.838   2.062 -0.4323  0.6374 -0.5487
  154MOL   C20837234   2.961   5.806   2.076  0.2497  0.0822  0.1286
  154MOL   O20937235   2.874   5.880   2.026  0.2550  0.0047 -0.4577
  154MOL   O21037236   2.946   5.690   2.151 -0.7584  0.7327  0.4602
  154MOL   C21137237   2.818   5.631   2.165  0.0701 -0.2414  0.0906
  154MOL   H21237238   3.284   5.902   2.190  0.3339  1.7875  1.0142
  154MOL   H21337239   3.160   5.811   2.271  0.3606 -0.2474 -1.0543
  154MOL   H21437240   3.154   5.740   2.033 -1.7415  0.2098 -0.8771
  154MOL   H21537241   2.742   5.703   2.196 -0.4769 -0.1196 -1.4747
  154MOL   H21637242   2.821   5.549   2.237  0.2710  0.9671  1.4998
  154MOL   H21737243   2.780   5.584   2.074  2.3563 -0.0093 -1.0204
  154MOL   C21837244   3.158   5.943   1.948  0.1770  0.1990  0.2066
  154MOL   C21937245   3.210   5.879   1.814  0.4090 -0.3273  0.4538
  154MOL   C22037246   3.121   5.776   1.750 -0.0497  0.8632  0.3407
  154MOL   O22137247   3.151   5.657   1.764 -0.2843 -0.5026 -0.3775
  154MOL   O22237248   3.016   5.824   1.677  0.3172 -0.3640 -0.0722
  154MOL   C22337249   2.916   5.741   1.620  0.2740 -0.9783  0.2412
  154MOL   H22437250   3.072   6.006   1.927 -0.6021 -0.1295  2.1893
  154MOL   H22537251   3.236   6.010   1.983  1.3816 -1.6294  1.1408
  154MOL   H22637252   3.306   5.834   1.841  2.0161  0.4250 -3.6072
  154MOL   H22737253   2.901   5.768   1.516 -0.0957  1.2264  0.8385
  154MOL   H22837254   2.827   5.773   1.676  1.1089  2.4429 -0.2975
  154MOL   H22937255   2.940   5.635   1.615 -0.9080 -1.2891  0.8754
  154MOL   C23037256   3.254   5.987   1.712  0.2305 -0.8663 -0.0751
  154MOL   C23137257   3.342   5.935   1.597  0.2685 -1.0451  0.6377
  154MOL   C23237258   3.488   5.919   1.632  0.4878  0.7620 -0.5090
  154MOL   O23337259   3.524   5.825   1.709  0.1956 -0.0184  0.0749
  154MOL   O23437260   3.564   6.009   1.582 -0.2570  0.2247 -0.3740
  154MOL   C23537261   3.708   5.991   1.578  0.3460 -0.1759 -0.2300
  154MOL   H23637262   3.165   6.025   1.663  0.8125  0.2878 -0.2588
  154MOL   H23737263   3.301   6.074   1.758 -0.4826  0.5154 -1.8878
  154MOL   H23837264   3.337   6.009   1.517  2.5627  1.0112  2.3679
  154MOL   H23937265   3.744   6.054   1.496  0.7476 -0.9446 -0.6604
  154MOL   H24037266   3.740   5.892   1.545 -0.5233 -1.5452  2.8841
  154MOL   H24137267   3.753   6.014   1.674  2.0483 -0.6918 -0.8732
  154MOL   H24237268   3.307   5.837   1.563  1.6401 -1.1427 -0.5578
  155MOL     C137269   0.953   3.940   6.332 -0.2152 -0.0284 -0.1489
  155MOL     C237270   0.880   3.830   6.249 -0.2173  0.2820 -0.0097
  155MOL     C337271   0.746   3.876   6.191  0.4482  0.4959 -0.3509
  155MOL     O437272   0.734   3.992   6.163 -0.3752 -0.2421 -0.5627
  155MOL     O537273   0.654   3.778   6.155 -0.1054 -0.4870 -0.2647
  155MOL     C637274   0.529   3.809   6.096  0.9812  0.4590 -0.0092
  155MOL     H737275   0.885   4.009   6.381 -0.2344  0.2030 -0.4990
  155MOL     H837276   1.016   3.993   6.261 -0.7953 -2.4333 -2.5298
  155MOL     H937277   0.862   3.747   6.318 -0.5919 -0.2731 -0.7733
  155MOL    H1037278   0.536   3.887   6.020 -0.4444  0.0510 -0.5832
  155MOL    H1137279   0.446   3.817   6.167 -0.2871 -2.0811 -1.1175
  155MOL    H1237280   0.496   3.725   6.036  1.3446  0.6220 -0.4337
  155MOL    H1337281   1.019   3.900   6.410  1.2854  1.7670 -0.4428
  155MOL    C1437282   0.968   3.775   6.137 -0.0409 -0.4574  0.1750
  155MOL    C1537283   1.087   3.693   6.189 -0.0111 -0.4987  0.2214
  155MOL    C1637284   1.047   3.553   6.241  0.2162  0.1817  0.1387
  155MOL    O1737285   1.079   3.517   6.353  0.3493 -0.3264 -0.1274
  155MOL    O1837286   0.976   3.480   6.154 -0.4561  0.3952 -0.0819
  155MOL    C1937287   0.925   3.354   6.198  0.1593 -0.2830  0.1679
  155MOL    H2037288   0.913   3.706   6.073 -2.6528  0.2793  1.5360
  155MOL    H2137289   0.990   3.867   6.083 -1.3742  0.5975  1.3947
  155MOL    H2237290   1.129   3.754   6.268 -0.5536  2.8542 -1.9875
  155MOL    H2337291   1.005   3.285   6.224  0.1835 -0.2906  0.0707
  155MOL    H2437292   0.859   3.317   6.120 -1.6754  0.2694  1.4025
  155MOL    H2537293   0.857   3.370   6.282  1.9386  1.0476  1.4108
  155MOL    C2637294   1.199   3.687   6.085 -0.6288 -0.4271  0.4563
  155MOL    C2737295   1.340   3.713   6.138 -0.1097  0.0616  0.1920
  155MOL    C2837296   1.398   3.609   6.239 -0.0755  0.5124  0.3997
  155MOL    O2937297   1.378   3.489   6.227  0.3943 -0.4053 -0.6180
  155MOL    O3037298   1.461   3.670   6.341 -0.2106 -0.6535 -0.1790
  155MOL    C3137299   1.539   3.593   6.432 -0.4731  0.0630  0.0237
  155MOL    H3237300   1.190   3.596   6.026 -2.7301  0.6837 -1.0257
  155MOL    H3337301   1.175   3.754   6.002 -1.6853 -0.4120  0.7676
  155MOL    H3437302   1.340   3.810   6.187  1.2594 -0.0150  0.3473
  155MOL    H3537303   1.481   3.566   6.520 -0.9346  3.3251  0.8106
  155MOL    H3637304   1.636   3.629   6.465  1.1252 -3.2719 -0.8703
  155MOL    H3737305   1.574   3.500   6.387  1.4437  1.1318 -0.7439
  155MOL    C3837306   1.445   3.734   6.020  0.3206 -0.0802 -0.0177
  155MOL    C3937307   1.565   3.827   6.059  0.0976 -0.2322 -0.0230
  155MOL    C4037308   1.702   3.772   6.037  0.2471 -0.0676 -0.0984
  155MOL    O4137309   1.790   3.828   5.974 -0.4839  0.2257  0.5724
  155MOL    O4237310   1.714   3.664   6.110  0.5663  0.0369  0.1837
  155MOL    C4337311   1.837   3.590   6.120 -0.3405  0.8539 -0.8507
  155MOL    H4437312   1.482   3.638   5.985  0.5144  0.8180 -2.3527
  155MOL    H4537313   1.399   3.784   5.934 -0.5594  0.3806  0.7005
  155MOL    H4637314   1.562   3.838   6.168  2.2420 -0.7065  0.1222
  155MOL    H4737315   1.869   3.575   6.017 -1.3027 -2.0048 -0.7820
  155MOL    H4837316   1.826   3.492   6.165  0.7805  0.3589 -1.6042
  155MOL    H4937317   1.913   3.646   6.176  0.7515 -1.6058  0.2062
  155MOL    C5037318   1.549   3.980   6.014 -0.2116  0.4746  0.4448
  155MOL    C5137319   1.465   4.059   6.119  0.6184 -0.6131  0.0628
  155MOL    C5237320   1.506   4.050   6.268 -0.9726  0.1888 -0.2676
  155MOL    O5337321   1.437   3.985   6.349  0.1491 -0.5942 -0.0363
  155MOL    O5437322   1.623   4.117   6.291  0.3983 -0.0142 -0.7564
  155MOL    C5537323   1.702   4.074   6.413 -0.2084 -0.2094  0.1837
  155MOL    H5637324   1.646   4.030   6.004  0.1859 -0.3823 -0.0503
  155MOL    H5737325   1.506   3.995   5.915 -1.1230  0.5434  0.8489
  155MOL    H5837326   1.371   4.003   6.118  0.9675 -1.1927 -1.9914
  155MOL    H5937327   1.666   4.130   6.500 -0.4818 -1.0659  0.6272
  155MOL    H6037328   1.809   4.093   6.411 -0.3498  0.9411  1.8917
  155MOL    H6137329   1.688   3.968   6.436 -1.3535  0.0965  0.9248
  155MOL    C6237330   1.426   4.198   6.062 -0.3207  0.3086 -0.0650
  155MOL    C6337331   1.280   4.242   6.054  0.2780  0.0896 -0.4142
  155MOL    C6437332   1.221   4.189   5.919 -1.0456 -0.2328  0.5240
  155MOL    O6537333   1.269   4.105   5.848  0.0582 -0.0565  0.1030
  155MOL    O6637334   1.095   4.234   5.896 -0.3203 -0.3806  0.0456
  155MOL    C6737335   1.014   4.146   5.815 -0.0738  0.4429 -0.8374
  155MOL    H6837336   1.472   4.272   6.128  2.9248 -1.8534  0.1951
  155MOL    H6937337   1.483   4.212   5.970 -0.9802 -1.9536 -0.8297
  155MOL    H7037338   1.267   4.350   6.054 -1.3830 -0.0883  0.6634
  155MOL    H7137339   0.928   4.205   5.785 -1.1452 -1.0781 -0.8085
  155MOL    H7237340   0.982   4.063   5.879  1.6148 -0.3040 -0.9277
  155MOL    H7337341   1.072   4.112   5.730 -3.4447  0.3380 -3.1765
  155MOL    C7437342   1.204   4.210   6.190  0.0834 -0.1227 -1.3306
  155MOL    C7537343   1.251   4.290   6.317  0.3333 -0.0120 -0.3665
  155MOL    C7637344   1.221   4.439   6.294  0.9369  0.3745  0.3699
  155MOL    O7737345   1.111   4.488   6.270  0.4591  0.6840 -0.0526
  155MOL    O7837346   1.333   4.512   6.291 -0.9042  0.0741  0.8799
  155MOL    C7937347   1.319   4.649   6.255  0.2668  0.2847 -0.4710
  155MOL    H8037348   1.104   4.244   6.160 -0.2333  1.3717  1.2411
  155MOL    H8137349   1.209   4.104   6.213 -0.9717  0.0527 -0.2222
  155MOL    H8237350   1.357   4.275   6.334 -0.4435 -2.5959  2.7232
  155MOL    H8337351   1.253   4.711   6.316  2.1579  2.8549 -0.9602
  155MOL    H8437352   1.288   4.664   6.152 -0.9302 -0.7884 -0.2745
  155MOL    H8537353   1.417   4.697   6.261 -0.0506  1.0806 -1.5111
  155MOL    C8637354   1.194   4.239   6.456 -0.1027  0.0364 -0.0985
  155MOL    C8737355   1.239   4.330   6.577  0.1128 -0.0921 -0.2464
  155MOL    C8837356   1.187   4.271   6.708  0.4032 -1.0263  0.5892
  155MOL    O8937357   1.092   4.313   6.765 -0.3885  0.4609 -0.1118
  155MOL    O9037358   1.256   4.163   6.745 -0.9841  0.1237 -0.1408
  155MOL    C9137359   1.223   4.098   6.872 -0.6271  0.1313 -0.4330
  155MOL    H9237360   1.085   4.240   6.447  0.0066  2.5810 -1.6166
  155MOL    H9337361   1.221   4.133   6.462 -1.3378 -0.2242  1.0188
  155MOL    H9437362   1.202   4.431   6.564 -1.9415 -0.8241 -0.3500
  155MOL    H9537363   1.236   4.167   6.955  0.8883 -0.6219 -0.0280
  155MOL    H9637364   1.295   4.018   6.885  0.5141  1.3733  1.1274
  155MOL    H9737365   1.121   4.062   6.858 -0.8596  0.3279  0.6898
  155MOL    C9837366   1.400   4.345   6.596 -0.5528  0.2022 -0.1335
  155MOL    C9937367   1.432   4.460   6.690 -0.4888  0.1216  0.1373
  155MOL   C10037368   1.462   4.414   6.832 -0.4069 -0.6916  0.2450
  155MOL   O10137369   1.420   4.471   6.927 -0.2054  0.1324  0.2701
  155MOL   O10237370   1.554   4.322   6.835  0.1767  0.1568  0.5494
  155MOL   C10337371   1.629   4.303   6.954 -0.7840 -0.1884 -0.5744
  155MOL   H10437372   1.444   4.255   6.638  1.3380  0.9457 -0.4857
  155MOL   H10537373   1.452   4.370   6.504 -1.6965 -1.9072 -1.3834
  155MOL   H10637374   1.340   4.518   6.696 -0.8387 -0.0277 -3.0571
  155MOL   H10737375   1.721   4.248   6.939 -0.3063  0.5683 -0.4604
  155MOL   H10837376   1.569   4.240   7.020  1.4507 -0.7424  0.9779
  155MOL   H10937377   1.642   4.401   7.000 -1.3760  0.2401 -1.3099
  155MOL   C11037378   1.542   4.563   6.636 -0.5161 -0.4809 -0.5673
  155MOL   C11137379   1.689   4.521   6.618 -0.2297 -0.6706  0.3454
  155MOL   C11237380   1.744   4.530   6.474  0.5056 -0.2391 -0.0551
  155MOL   O11337381   1.751   4.438   6.391  1.0293  0.0503  0.6499
  155MOL   O11437382   1.781   4.656   6.445 -0.1394 -0.0510  0.1849
  155MOL   C11537383   1.857   4.687   6.328 -0.0033  0.4269  1.0019
  155MOL   H11637384   1.502   4.609   6.546  0.1405 -0.8266 -1.0399
  155MOL   H11737385   1.532   4.638   6.714  0.5275 -0.5394 -0.3706
  155MOL   H11837386   1.694   4.414   6.640 -2.0190 -0.9174 -0.3672
  155MOL   H11937387   1.930   4.767   6.342 -2.2086  3.2268 -2.5974
  155MOL   H12037388   1.792   4.720   6.247  0.7050 -1.8739 -0.5428
  155MOL   H12137389   1.904   4.596   6.292  0.5486  1.3217 -0.5739
  155MOL   C12237390   1.795   4.582   6.719 -0.1012 -0.0541  0.0267
  155MOL   C12337391   1.942   4.523   6.723 -0.0382 -0.1976  0.9623
  155MOL   C12437392   2.035   4.623   6.778  0.4541  0.3369 -0.4698
  155MOL   O12537393   2.133   4.660   6.713  0.4149 -0.0903  0.0778
  155MOL   O12637394   2.006   4.671   6.900  0.0981 -0.4414 -0.0689
  155MOL   C12737395   2.077   4.786   6.951  0.0731 -0.7491  0.3821
  155MOL   H12837396   1.795   4.690   6.710 -1.9001 -0.1086 -0.8042
  155MOL   H12937397   1.749   4.555   6.814 -2.0586 -1.3333 -1.2350
  155MOL   H13037398   1.958   4.516   6.616  4.1520  1.9861  1.3464
  155MOL   H13137399   2.186   4.781   6.945  0.1565  0.4473  0.6819
  155MOL   H13237400   2.058   4.803   7.057 -0.6482 -1.4622  0.3722
  155MOL   H13337401   2.037   4.872   6.897 -1.8911 -1.4194  0.7285
  155MOL   C13437402   1.949   4.386   6.786  0.7636 -0.0636 -0.2416
  155MOL   C13537403   2.094   4.322   6.765 -0.7453  0.4684  0.7624
  155MOL   C13637404   2.120   4.220   6.875  0.0940  0.9628  0.6099
  155MOL   O13737405   2.032   4.142   6.923  0.0498  0.0191  0.1531
  155MOL   O13837406   2.245   4.204   6.905  0.6038  0.3204  0.4529
  155MOL   C13937407   2.292   4.108   6.998 -1.0578  0.2744 -0.6046
  155MOL   H14037408   1.936   4.398   6.893 -0.7760  0.3901 -0.4649
  155MOL   H14137409   1.863   4.326   6.756  0.8585 -0.6853  0.6984
  155MOL   H14237410   2.162   4.406   6.781 -1.2928  0.9540  0.5560
  155MOL   H14337411   2.398   4.130   6.992 -1.3621  2.1412  0.6320
  155MOL   H14437412   2.280   4.004   6.965 -1.4012  0.1011  0.0455
  155MOL   H14537413   2.255   4.126   7.099 -2.0112 -0.0552 -0.8872
  155MOL   C14637414   2.120   4.273   6.619 -0.3428  0.5199  0.1561
  155MOL   C14737415   2.188   4.375   6.518 -0.6996  0.2476 -0.4009
  155MOL   C14837416   2.329   4.425   6.570  0.5724 -0.3173  0.2245
  155MOL   O14937417   2.386   4.374   6.662 -0.0896 -0.8093 -0.3720
  155MOL   O15037418   2.374   4.532   6.505  0.2723  0.5367 -0.0486
  155MOL   C15137419   2.497   4.587   6.549 -0.6370  0.3179  0.2428
  155MOL   H15237420   2.182   4.185   6.634  1.2268  1.7491  1.0914
  155MOL   H15337421   2.028   4.236   6.575 -2.1607  0.9810  3.4275
  155MOL   H15437422   2.127   4.466   6.516 -0.5396  0.3793  0.2454
  155MOL   H15537423   2.590   4.547   6.508  0.0053  1.3071  0.7150
  155MOL   H15637424   2.517   4.600   6.656  1.2524 -0.2536 -0.0144
  155MOL   H15737425   2.486   4.688   6.511  2.5443  0.6718  0.0960
  155MOL   C15837426   2.195   4.329   6.366 -0.6553  0.4869 -0.2455
  155MOL   C15937427   2.301   4.220   6.321  0.6777 -0.0905 -0.2609
  155MOL   C16037428   2.249   4.077   6.342 -0.0109  0.3046 -0.4439
  155MOL   O16137429   2.133   4.043   6.362  0.1796  0.2647  0.2450
  155MOL   O16237430   2.348   3.990   6.351  0.0399  0.6096  0.3810
  155MOL   C16337431   2.326   3.866   6.420  0.1692 -0.4217 -0.5383
  155MOL   H16437432   2.098   4.297   6.328  1.3736 -3.1604 -2.7060
  155MOL   H16537433   2.196   4.421   6.308 -1.8881 -0.4354 -1.7627
  155MOL   H16637434   2.392   4.240   6.378 -0.0834 -0.0375  0.9524
  155MOL   H16737435   2.238   3.815   6.381 -1.0993 -0.5291  2.3988
  155MOL   H16837436   2.306   3.882   6.525 -1.9122 -0.2078 -0.9567
  155MOL   H16937437   2.404   3.791   6.403 -0.7461 -1.1778 -1.5087
  155MOL   C17037438   2.333   4.238   6.168  0.1229  0.5073 -0.3743
  155MOL   C17137439   2.417   4.359   6.126  0.0499  0.0211  0.8401
  155MOL   C17237440   2.568   4.342   6.142 -0.1778  0.0157  0.3832
  155MOL   O17337441   2.627   4.357   6.248 -0.0036 -0.5638 -0.0937
  155MOL   O17437442   2.618   4.310   6.028 -0.5384  0.0549 -0.2584
  155MOL   C17537443   2.754   4.278   6.022  0.0370 -0.9544  0.4801
  155MOL   H17637444   2.382   4.152   6.122  2.7491  0.9775  1.4275
  155MOL   H17737445   2.240   4.233   6.112 -1.3849  1.3622  1.9807
  155MOL   H17837446   2.399   4.421   6.213  0.8914 -1.0626  1.7914
  155MOL   H17937447   2.782   4.225   6.113 -1.8082 -0.6390  1.2504
  155MOL   H18037448   2.810   4.369   6.003 -2.7610  0.4115 -1.5997
  155MOL   H18137449   2.774   4.216   5.935  1.4809  0.7052 -0.4063
  155MOL   C18237450   2.377   4.435   5.994  0.0678  0.6426 -0.5302
  155MOL   C18337451   2.239   4.505   6.013  0.3846 -0.0066  0.4111
  155MOL   C18437452   2.245   4.628   6.105 -0.4093  0.2803 -0.3308
  155MOL   O18537453   2.150   4.668   6.171  0.5294  0.1332 -0.1845
  155MOL   O18637454   2.358   4.685   6.106  0.0530 -0.3090 -0.1693
  155MOL   C18737455   2.389   4.772   6.215  0.1046 -0.2162  0.2216
  155MOL   H18837456   2.458   4.490   5.947  0.8599 -1.4043 -1.6572
  155MOL   H18937457   2.361   4.356   5.919  0.0218  2.3658 -2.3809
  155MOL   H19037458   2.170   4.432   6.055  1.9444 -0.8448  1.5492
  155MOL   H19137459   2.323   4.858   6.216  0.7092  0.2487  0.5592
  155MOL   H19237460   2.490   4.812   6.200 -0.8466  3.1253  2.1855
  155MOL   H19337461   2.389   4.715   6.308  1.0455 -0.6512 -0.0330
  155MOL   C19437462   2.178   4.544   5.872 -0.1562 -0.1248 -0.5145
  155MOL   C19537463   2.023   4.564   5.875 -0.2897 -0.2032  0.1743
  155MOL   C19637464   1.979   4.715   5.869  0.5140  0.1733  0.3853
  155MOL   O19737465   1.922   4.770   5.963  0.0324 -0.0700 -0.0868
  155MOL   O19837466   2.011   4.764   5.750 -0.4607 -0.7829  0.3714
  155MOL   C19937467   1.986   4.900   5.714  0.5463 -0.7324 -1.1335
  155MOL   H20037468   2.233   4.635   5.848  2.5110 -0.6661  3.0978
  155MOL   H20137469   2.201   4.464   5.801  0.0710 -0.5887  0.0753
  155MOL   H20237470   1.977   4.522   5.964  1.8516  1.2442  2.0051
  155MOL   H20337471   2.070   4.935   5.655 -0.0426  0.0922 -1.4855
  155MOL   H20437472   1.975   4.962   5.803  0.8222 -1.0512 -0.8729
  155MOL   H20537473   1.893   4.907   5.658 -1.6007 -2.2565  2.0533
  155MOL   C20637474   1.965   4.480   5.751  0.5100  0.5204  0.2200
  155MOL   C20737475   1.965   4.324   5.773 -0.5166  0.5162 -0.1086
  155MOL   C20837476   1.885   4.282   5.902 -0.5503  0.4116  0.1684
  155MOL   O20937477   1.767   4.315   5.917  0.0531  0.2347  0.6141
  155MOL   O21037478   1.953   4.230   5.987  0.1567  0.7537 -0.6195
  155MOL   C21137479   1.902   4.173   6.109  0.4681  0.0339  0.6806
  155MOL   H21237480   1.866   4.517   5.727  0.1668  0.8830  2.1225
  155MOL   H21337481   2.024   4.495   5.660  0.3589  2.0680  0.3584
  155MOL   H21437482   2.066   4.293   5.798 -0.1297 -0.1312 -2.3349
  155MOL   H21537483   1.872   4.253   6.176 -3.0811 -0.0970 -0.6343
  155MOL   H21637484   1.981   4.111   6.150 -0.1458 -1.4604 -0.3381
  155MOL   H21737485   1.821   4.102   6.091 -0.3055  1.0399  0.0732
  155MOL   C21837486   1.907   4.240   5.656  0.2853 -0.1752 -0.4539
  155MOL   C21937487   1.978   4.233   5.513  0.3463  0.4142 -0.4864
  155MOL   C22037488   2.131   4.225   5.516  0.5428 -0.6736  0.0775
  155MOL   O22137489   2.193   4.120   5.503  0.1846  0.4270  0.6115
  155MOL   O22237490   2.192   4.350   5.530  0.2785 -0.4567 -0.0943
  155MOL   C22337491   2.332   4.359   5.543  0.6097 -0.2451  0.1786
  155MOL   H22437492   1.915   4.137   5.691  1.1611  0.2960  0.7653
  155MOL   H22537493   1.802   4.271   5.650  0.9713  2.1078 -1.2700
  155MOL   H22637494   1.955   4.329   5.466  0.6172  0.2722 -0.9128
  155MOL   H22737495   2.385   4.310   5.461 -1.5916  1.4090 -2.3238
  155MOL   H22837496   2.364   4.318   5.639  0.4917 -0.6674  0.0395
  155MOL   H22937497   2.353   4.466   5.547 -1.7835  0.2027  1.4159
  155MOL   C23037498   1.908   4.135   5.414 -0.3818  0.3968 -0.1598
  155MOL   C23137499   1.779   4.180   5.352  0.3673  0.2458 -0.1103
  155MOL   C23237500   1.664   4.081   5.336  0.3882 -0.6363  0.2915
  155MOL   O23337501   1.602   4.042   5.435  0.9455  0.1503  0.3254
  155MOL   O23437502   1.650   4.030   5.212 -0.1331 -0.4813  0.3727
  155MOL   C23537503   1.543   3.935   5.191  0.3255  0.0086  0.2567
  155MOL   H23637504   1.970   4.112   5.328  1.3095 -0.4673  1.2494
  155MOL   H23737505   1.890   4.043   5.469  0.0309  1.4262  1.7543
  155MOL   H23837506   1.804   4.238   5.264  1.8845  1.5187  1.1314
  155MOL   H23937507   1.444   3.960   5.231  0.4591 -0.1756  0.7063
  155MOL   H24037508   1.590   3.849   5.237  0.9676  0.5161  0.5603
  155MOL   H24137509   1.542   3.910   5.085 -0.1995 -3.5353  1.0628
  155MOL   H24237510   1.741   4.249   5.427  0.2795 -0.0293  0.0957
  156MOL     C137511   1.545   2.630   2.628 -0.1878  0.4493  0.1294
  156MOL     C237512   1.478   2.768   2.635  0.5065  0.3460 -0.0307
  156MOL     C337513   1.393   2.793   2.763  0.2863 -0.3174 -0.4871
  156MOL     O437514   1.319   2.885   2.774  0.4306 -0.6985 -0.8079
  156MOL     O537515   1.418   2.710   2.874  0.0610  0.2252  0.7052
  156MOL     C637516   1.330   2.717   2.982 -0.9872 -0.3905 -0.5424
  156MOL     H737517   1.632   2.629   2.693 -0.2361  0.5339  0.1961
  156MOL     H837518   1.591   2.618   2.530 -2.0526  2.2831 -1.0104
  156MOL     H937519   1.406   2.779   2.554  0.0687 -0.7793  0.1994
  156MOL    H1037520   1.229   2.723   2.942 -0.6789 -1.1026 -1.4769
  156MOL    H1137521   1.344   2.805   3.043 -1.3499 -1.9063  1.8006
  156MOL    H1237522   1.340   2.636   3.055 -0.1271 -0.5527 -0.8255
  156MOL    H1337523   1.477   2.552   2.664 -0.0506  0.6988  0.9559
  156MOL    C1437524   1.591   2.872   2.620 -0.2051  0.0734 -0.4438
  156MOL    C1537525   1.661   2.876   2.483 -0.5616  0.9518 -0.1597
  156MOL    C1637526   1.574   2.893   2.355  0.2000  0.3751  0.1738
  156MOL    O1737527   1.585   2.809   2.263  0.4519 -0.2351  0.4779
  156MOL    O1837528   1.490   3.001   2.356 -0.0569 -0.1231 -0.1558
  156MOL    C1937529   1.412   3.015   2.236  0.1401 -0.2881 -0.2170
  156MOL    H2037530   1.546   2.970   2.640 -1.1075 -0.8859  2.5965
  156MOL    H2137531   1.671   2.869   2.694  2.5222  3.3652 -3.0975
  156MOL    H2237532   1.702   2.778   2.458 -0.9367  0.1116  2.2955
  156MOL    H2337533   1.465   3.042   2.145  1.5410 -0.8825  0.3982
  156MOL    H2437534   1.345   3.100   2.247  1.6965  0.8282  1.0402
  156MOL    H2537535   1.361   2.925   2.204 -0.5715  0.2527 -0.6233
  156MOL    C2637536   1.797   2.969   2.480 -0.2464  0.3886  0.0666
  156MOL    C2737537   1.928   2.887   2.464 -0.2845 -0.2106 -0.0888
  156MOL    C2837538   1.958   2.801   2.589 -0.1778 -0.1916 -1.0452
  156MOL    O2937539   1.943   2.682   2.583 -1.1792 -0.1125 -0.3224
  156MOL    O3037540   1.994   2.871   2.695 -0.1120 -0.3472 -0.0686
  156MOL    C3137541   2.056   2.813   2.808 -0.1518  0.1197  0.5296
  156MOL    H3237542   1.781   3.036   2.395 -0.3126 -1.2309 -1.2221
  156MOL    H3337543   1.800   3.042   2.561 -2.6880 -0.8457  1.3275
  156MOL    H3437544   2.015   2.952   2.451 -2.3652  2.3862 -1.2526
  156MOL    H3537545   2.013   2.723   2.850  0.2119  0.4862  1.7124
  156MOL    H3637546   2.075   2.882   2.890 -0.5494  3.0663 -1.7446
  156MOL    H3737547   2.157   2.793   2.773 -1.2530  1.0434 -3.4780
  156MOL    C3837548   1.928   2.797   2.334 -0.3528 -0.3164  0.4629
  156MOL    C3937549   1.895   2.881   2.206  0.9415  0.1096 -0.0343
  156MOL    C4037550   1.988   3.002   2.189  0.3436  0.1280 -0.4448
  156MOL    O4137551   1.941   3.112   2.155  0.8993  0.6229  0.0549
  156MOL    O4237552   2.122   2.978   2.197  0.1002  0.4778  0.3396
  156MOL    C4337553   2.214   3.093   2.187  0.4320  0.2022  0.0016
  156MOL    H4437554   2.026   2.754   2.315 -0.3148 -0.1612  0.3108
  156MOL    H4537555   1.853   2.717   2.335  1.1077 -1.7217 -0.1469
  156MOL    H4637556   1.796   2.927   2.208  0.7625 -0.2931  0.6243
  156MOL    H4737557   2.165   3.191   2.182 -1.3999 -0.6518  0.7106
  156MOL    H4837558   2.287   3.093   2.106 -1.8881 -1.1353 -2.1642
  156MOL    H4937559   2.268   3.093   2.281 -1.9779  0.5671  1.4220
  156MOL    C5037560   1.908   2.804   2.077 -0.1504  0.6178  0.1967
  156MOL    C5137561   1.780   2.734   2.017  0.7779 -0.3677 -0.4390
  156MOL    C5237562   1.683   2.836   1.949  0.1657 -0.4726 -0.0650
  156MOL    O5337563   1.694   2.956   1.961 -0.8811 -0.0592  0.0683
  156MOL    O5437564   1.587   2.768   1.889  0.0491 -0.3187  0.2985
  156MOL    C5537565   1.475   2.845   1.832 -0.8431 -0.7476  0.3705
  156MOL    H5637566   1.944   2.863   1.992 -1.1272  0.3621 -0.4066
  156MOL    H5737567   1.998   2.745   2.093 -0.4055  0.0354 -0.4651
  156MOL    H5837568   1.732   2.688   2.103 -0.3320  3.0027  0.8618
  156MOL    H5937569   1.517   2.919   1.764  0.6257 -0.9836  0.9971
  156MOL    H6037570   1.419   2.908   1.902 -0.2350 -0.8855  0.9857
  156MOL    H6137571   1.407   2.777   1.781 -1.9568 -0.0890  0.9456
  156MOL    C6237572   1.812   2.620   1.921  0.0861 -0.0647  0.0959
  156MOL    C6337573   1.910   2.514   1.979 -0.1344  0.8815 -0.5507
  156MOL    C6437574   1.880   2.481   2.126  0.5737 -0.0600 -0.4419
  156MOL    O6537575   1.962   2.492   2.218  1.1412 -0.3825 -0.2098
  156MOL    O6637576   1.748   2.433   2.131 -0.2616 -0.1101 -0.7543
  156MOL    C6737577   1.692   2.401   2.265 -0.2241 -0.2971 -0.2103
  156MOL    H6837578   1.717   2.574   1.896 -0.8330  2.2688 -0.8256
  156MOL    H6937579   1.848   2.656   1.825  3.1659 -0.7129  0.9531
  156MOL    H7037580   2.013   2.550   1.982  0.6630 -1.3454  0.0216
  156MOL    H7137581   1.614   2.326   2.249 -0.5094  0.1708 -1.0457
  156MOL    H7237582   1.663   2.486   2.327 -0.6008 -1.3642  1.0898
  156MOL    H7337583   1.771   2.347   2.317  0.4449 -0.1837 -1.0989
  156MOL    C7437584   1.906   2.386   1.889 -0.7666  0.1723 -0.4973
  156MOL    C7537585   2.017   2.270   1.895 -0.6729  0.1228 -0.2397
  156MOL    C7637586   1.976   2.159   1.994  0.2039 -0.3136  0.3522
  156MOL    O7737587   1.910   2.056   1.960  0.3530  0.2101 -0.2344
  156MOL    O7837588   2.016   2.180   2.117  0.3198 -0.1614 -0.5228
  156MOL    C7937589   1.951   2.093   2.216  0.7284 -0.1461  0.2878
  156MOL    H8037590   1.810   2.337   1.900  0.4364 -1.8420  1.2963
  156MOL    H8137591   1.895   2.408   1.783  0.5380  0.1863 -0.6411
  156MOL    H8237592   2.115   2.304   1.929 -1.5070  1.8483  0.5296
  156MOL    H8337593   1.994   2.099   2.316  3.7293  0.6811 -0.9999
  156MOL    H8437594   1.970   1.994   2.176  1.1272  1.2606 -3.1788
  156MOL    H8537595   1.848   2.130   2.221  1.2050  1.2231  0.1974
  156MOL    C8637596   2.043   2.209   1.755 -0.1504 -0.5142  0.1192
  156MOL    C8737597   2.154   2.288   1.682 -0.2109  0.0236  0.3401
  156MOL    C8837598   2.270   2.202   1.642  0.2929 -0.7640  0.2203
  156MOL    O8937599   2.390   2.238   1.650  0.1951  0.1288  0.2345
  156MOL    O9037600   2.237   2.091   1.584  0.3227  0.2973  0.0086
  156MOL    C9137601   2.321   1.979   1.583  0.3024  0.6987 -0.1769
  156MOL    H9237602   2.069   2.103   1.766  0.1386 -0.3548  0.9805
  156MOL    H9337603   1.955   2.203   1.691 -0.2330  2.4193 -0.0899
  156MOL    H9437604   2.199   2.352   1.759 -1.0687 -1.3219  1.9972
  156MOL    H9537605   2.425   2.002   1.558 -0.0736  1.0018 -1.4967
  156MOL    H9637606   2.281   1.902   1.516 -1.6099 -0.5386  2.3311
  156MOL    H9737607   2.308   1.932   1.680  0.0963  0.2669 -0.4113
  156MOL    C9837608   2.099   2.372   1.565  0.0925 -0.8280 -0.3386
  156MOL    C9937609   2.164   2.510   1.531 -0.2595 -0.0742 -0.0771
  156MOL   C10037610   2.235   2.514   1.390 -0.0104  0.1955 -0.4657
  156MOL   O10137611   2.337   2.574   1.368 -0.1018 -0.0291 -0.6788
  156MOL   O10237612   2.153   2.470   1.296 -0.1031  0.0093  0.1574
  156MOL   C10337613   2.199   2.457   1.160  0.5309  0.4353 -0.6709
  156MOL   H10437614   2.103   2.313   1.473  0.5294 -0.2585 -0.6891
  156MOL   H10537615   1.995   2.389   1.593  0.1433  0.0158 -0.6279
  156MOL   H10637616   2.239   2.513   1.611 -0.6566 -0.7278  0.3209
  156MOL   H10737617   2.231   2.549   1.111 -1.0969  0.6665 -1.3316
  156MOL   H10837618   2.125   2.405   1.099 -0.0070 -1.5855  1.6698
  156MOL   H10937619   2.287   2.393   1.159 -0.3190 -0.7463 -2.2341
  156MOL   C11037620   2.083   2.631   1.564 -0.5055 -0.7157 -0.7354
  156MOL   C11137621   2.179   2.745   1.619 -0.0979 -0.2603 -0.9856
  156MOL   C11237622   2.104   2.876   1.620  0.3920  0.1013 -0.5172
  156MOL   O11337623   2.144   2.975   1.563  0.3957 -0.5489 -0.8851
  156MOL   O11437624   1.993   2.864   1.699 -0.0453 -0.0847 -0.3050
  156MOL   C11537625   1.921   2.983   1.716  0.0430 -0.4601  0.8131
  156MOL   H11637626   2.039   2.659   1.469 -0.1995  1.8046 -0.1704
  156MOL   H11737627   1.998   2.617   1.630  2.0941  1.3836  3.2843
  156MOL   H11837628   2.258   2.763   1.546  1.7861  1.8406  1.4764
  156MOL   H11937629   1.921   3.009   1.822  1.9624  1.9136  0.2687
  156MOL   H12037630   1.817   2.963   1.690 -0.0070  1.2402 -0.4074
  156MOL   H12137631   1.962   3.066   1.658 -0.0690 -0.4127  0.8018
  156MOL   C12237632   2.251   2.712   1.751  0.1475 -0.0458 -0.2560
  156MOL   C12337633   2.329   2.822   1.827 -0.3102 -0.3586 -0.0887
  156MOL   C12437634   2.384   2.755   1.955 -0.5396  0.4243 -0.2156
  156MOL   O12537635   2.502   2.712   1.968 -0.3587  0.1291  0.4811
  156MOL   O12637636   2.289   2.745   2.055  0.5053 -0.3658 -0.5933
  156MOL   C12737637   2.334   2.696   2.181  0.4095  0.0234 -0.5557
  156MOL   H12837638   2.181   2.660   1.816  0.3301  2.3005  1.8772
  156MOL   H12937639   2.334   2.648   1.722  0.1280 -0.2677  0.1736
  156MOL   H13037640   2.252   2.896   1.851 -0.6714 -0.9746  0.6679
  156MOL   H13137641   2.425   2.742   2.220 -0.2848 -0.8855  2.2368
  156MOL   H13237642   2.353   2.589   2.177 -4.4331 -0.9358 -1.7211
  156MOL   H13337643   2.252   2.715   2.250  1.3005  1.1975  0.2040
  156MOL   C13437644   2.435   2.897   1.740 -0.0124  0.0096  0.0293
  156MOL   C13537645   2.463   3.046   1.779 -0.2643  0.0423  0.1637
  156MOL   C13637646   2.552   3.062   1.911 -0.2821  0.1485  0.1077
  156MOL   O13737647   2.502   3.096   2.014  0.9062 -0.1793 -0.8076
  156MOL   O13837648   2.672   3.021   1.882 -0.6346  0.2869  0.2071
  156MOL   C13937649   2.757   2.998   1.989  0.1129 -0.5170 -0.5539
  156MOL   H14037650   2.524   2.834   1.738  0.0168  0.0934 -1.2789
  156MOL   H14137651   2.405   2.884   1.637  1.1602 -1.0663 -0.1906
  156MOL   H14237652   2.361   3.080   1.794 -0.7696 -1.2192 -0.3181
  156MOL   H14337653   2.780   3.086   2.050 -2.0694 -0.0410 -0.3859
  156MOL   H14437654   2.855   2.965   1.954  0.5904  1.5028 -1.1486
  156MOL   H14537655   2.723   2.920   2.058 -0.3955  0.4256  0.2635
  156MOL   C14637656   2.532   3.124   1.661  0.4638 -0.1826 -0.6724
  156MOL   C14737657   2.493   3.278   1.665 -0.4860  0.3085  0.0220
  156MOL   C14837658   2.599   3.355   1.750 -0.4542  0.2282 -0.0015
  156MOL   O14937659   2.560   3.420   1.846  0.7107  0.5731 -0.3496
  156MOL   O15037660   2.725   3.340   1.702 -0.8288 -0.1045  0.9024
  156MOL   C15137661   2.828   3.406   1.778  0.1635 -0.5119 -0.5967
  156MOL   H15237662   2.640   3.117   1.662  0.5669  1.4744 -0.3907
  156MOL   H15337663   2.489   3.075   1.573 -1.5118 -2.4212  1.4608
  156MOL   H15437664   2.392   3.290   1.703  0.1660  1.1193  1.5574
  156MOL   H15537665   2.786   3.483   1.843  1.0960 -1.7791  1.5508
  156MOL   H15637666   2.909   3.436   1.712 -0.1098 -1.4792 -1.3753
  156MOL   H15737667   2.875   3.329   1.839  2.0973  2.0561  1.2851
  156MOL   C15837668   2.494   3.329   1.521 -0.0777 -0.1815  0.3174
  156MOL   C15937669   2.374   3.292   1.433 -0.5654  0.1471  0.6335
  156MOL   C16037670   2.247   3.373   1.463  0.2293  0.2482 -0.6421
  156MOL   O16137671   2.239   3.498   1.457 -0.1672  0.3630  0.1957
  156MOL   O16237672   2.143   3.290   1.493 -0.6455 -0.5543 -0.0585
  156MOL   C16337673   2.013   3.340   1.506 -0.4110  0.4297 -0.2636
  156MOL   H16437674   2.509   3.437   1.516 -1.4514  0.0120  0.2171
  156MOL   H16537675   2.576   3.273   1.477 -0.2840 -2.4891  2.7482
  156MOL   H16637676   2.339   3.193   1.464  0.4612  0.8045  4.0772
  156MOL   H16737677   1.999   3.424   1.573 -0.5049 -0.4560  0.8468
  156MOL   H16837678   1.937   3.264   1.528  1.7228 -2.3548 -2.0398
  156MOL   H16937679   1.991   3.377   1.406 -0.9652  2.0439  0.4413
  156MOL   C17037680   2.406   3.293   1.284  0.1773 -0.7253 -0.3926
  156MOL   C17137681   2.317   3.208   1.190  0.0774  1.1811  0.0010
  156MOL   C17237682   2.311   3.056   1.227 -0.7816 -0.9354  0.1264
  156MOL   O17337683   2.208   3.005   1.259 -0.9034  0.1587 -0.2791
  156MOL   O17437684   2.423   2.991   1.204 -0.0645  0.1709 -0.6216
  156MOL   C17537685   2.425   2.853   1.236  0.8360  0.3486 -0.4430
  156MOL   H17637686   2.393   3.398   1.255 -4.3553 -0.8021  0.9325
  156MOL   H17737687   2.511   3.270   1.268  0.1432 -2.6735  1.9192
  156MOL   H17837688   2.374   3.215   1.098 -0.4059  1.7733 -0.2501
  156MOL   H17937689   2.358   2.821   1.316 -0.2513 -0.7973 -1.7862
  156MOL   H18037690   2.526   2.823   1.263  1.1834  0.0092 -2.0943
  156MOL   H18137691   2.387   2.800   1.149 -0.7805  0.9649 -0.1320
  156MOL   C18237692   2.176   3.270   1.158  0.3097  0.6672 -0.5629
  156MOL   C18337693   2.129   3.257   1.012 -0.3399 -0.3169 -0.2840
  156MOL   C18437694   1.981   3.297   1.009 -0.5102  0.3217 -0.9767
  156MOL   O18537695   1.943   3.405   1.052  0.1862 -0.1224 -0.2714
  156MOL   O18637696   1.909   3.198   0.962  0.5954  0.1734 -0.1017
  156MOL   C18737697   1.765   3.209   0.946  0.1627 -0.5242 -0.0567
  156MOL   H18837698   2.114   3.239   1.242 -0.9626  2.1889 -0.9160
  156MOL   H18937699   2.184   3.378   1.169  0.3892  0.3817  2.5209
  156MOL   H19037700   2.156   3.154   0.987  0.3532 -0.2863  0.3132
  156MOL   H19137701   1.725   3.192   1.046 -1.9853 -2.5339 -1.2128
  156MOL   H19237702   1.721   3.129   0.887 -0.5367 -0.9024  0.9533
  156MOL   H19337703   1.727   3.304   0.909  1.0449 -0.1939 -0.1214
  156MOL   C19437704   2.217   3.343   0.919 -0.0444 -0.8363  0.0139
  156MOL   C19537705   2.249   3.287   0.782  0.4264 -0.1272  0.8417
  156MOL   C19637706   2.121   3.232   0.707 -0.6330 -1.2751  0.0673
  156MOL   O19737707   2.116   3.114   0.678 -0.0948  0.4187 -0.0253
  156MOL   O19837708   2.025   3.323   0.687  0.0131 -0.2794  0.3484
  156MOL   C19937709   1.901   3.286   0.628 -0.6557 -0.0545 -0.4732
  156MOL   H20037710   2.164   3.436   0.900  1.4275 -0.0830 -0.4924
  156MOL   H20137711   2.315   3.364   0.962 -0.2953  0.2284  0.0744
  156MOL   H20237712   2.319   3.206   0.800  0.7250 -0.2099 -0.6427
  156MOL   H20337713   1.893   3.313   0.523  1.5849  0.5409 -0.5191
  156MOL   H20437714   1.821   3.335   0.684 -0.0749  0.4141 -0.0397
  156MOL   H20537715   1.875   3.180   0.626  1.2251 -0.5036 -2.9043
  156MOL   C20637716   2.327   3.387   0.707  0.0735  0.3183  0.5151
  156MOL   C20737717   2.386   3.355   0.563  0.1615 -0.3883  0.5715
  156MOL   C20837718   2.286   3.397   0.450  0.6620  0.1038 -0.4744
  156MOL   O20937719   2.283   3.509   0.409 -0.2306 -0.7437  0.3626
  156MOL   O21037720   2.210   3.294   0.403 -0.4948  0.1020  0.1887
  156MOL   C21137721   2.118   3.314   0.300 -0.0590  0.5297 -0.6289
  156MOL   H21237722   2.277   3.484   0.702  1.7512  1.0720 -2.5200
  156MOL   H21337723   2.419   3.404   0.762 -0.3269  0.0370  1.2805
  156MOL   H21437724   2.384   3.247   0.548 -5.4984 -0.1996 -1.4249
  156MOL   H21537725   2.163   3.374   0.221  0.6210 -0.5873 -1.1100
  156MOL   H21637726   2.022   3.359   0.328 -0.9541 -0.8814 -1.3457
  156MOL   H21737727   2.102   3.219   0.248 -0.8207  1.4753 -2.1604
  156MOL   C21837728   2.527   3.413   0.530  0.4275  0.3022  0.1146
  156MOL   C21937729   2.642   3.375   0.615  0.5552  0.5625 -0.1201
  156MOL   C22037730   2.682   3.228   0.603  0.1607 -0.5661 -0.1997
  156MOL   O22137731   2.626   3.150   0.526 -0.4917 -0.2737 -0.2526
  156MOL   O22237732   2.762   3.193   0.700  0.1232  0.1896 -0.1925
  156MOL   C22337733   2.808   3.054   0.710  0.1063 -0.3688  0.0158
  156MOL   H22437734   2.544   3.373   0.430  0.2229 -0.6061  0.4450
  156MOL   H22537735   2.524   3.519   0.503  0.9295  0.1690 -0.4832
  156MOL   H22637736   2.621   3.387   0.721 -0.9141 -0.8235 -0.2458
  156MOL   H22737737   2.729   2.979   0.705 -1.5705  1.2984  0.8647
  156MOL   H22837738   2.857   3.057   0.807 -0.2264  2.2180  0.1504
  156MOL   H22937739   2.881   3.036   0.631  1.6810  0.5159  1.2220
  156MOL   C23037740   2.765   3.456   0.571  0.0737 -0.5991  1.0292
  156MOL   C23137741   2.829   3.440   0.433 -0.2721  0.1798  0.2386
  156MOL   C23237742   2.941   3.539   0.403 -0.8734  0.4423  1.1982
  156MOL   O23337743   3.013   3.520   0.303  0.4359 -0.3927  0.0524
  156MOL   O23437744   2.964   3.641   0.498  0.1760 -0.3738  0.4473
  156MOL   C23537745   3.074   3.736   0.477  0.4109 -0.4439  0.3283
  156MOL   H23637746   2.739   3.561   0.572  0.8054 -0.3480 -1.9225
  156MOL   H23737747   2.845   3.442   0.644  1.4601 -1.3410 -0.5780
  156MOL   H23837748   2.747   3.446   0.361 -0.9792  0.1734  1.0468
  156MOL   H23937749   3.101   3.753   0.373  0.9128 -1.1409  0.3419
  156MOL   H24037750   3.166   3.702   0.523 -0.2109 -0.4305  1.5973
  156MOL   H24137751   3.054   3.829   0.529 -0.8358 -0.2415 -0.5010
  156MOL   H24237752   2.873   3.340   0.428 -0.1309  0.2111  0.8095
  157MOL     C137753   2.599   3.446   3.765  0.8315  0.3900  1.0344
  157MOL     C237754   2.506   3.385   3.658  0.3691  0.0500 -1.0914
  157MOL     C337755   2.465   3.239   3.679 -0.0911  0.1704 -0.7505
  157MOL     O437756   2.347   3.197   3.676 -0.3953 -0.1777 -0.7553
  157MOL     O537757   2.575   3.159   3.690 -0.0073 -0.1356 -0.0143
  157MOL     C637758   2.553   3.018   3.716  0.3709  0.1796 -0.3380
  157MOL     H737759   2.660   3.364   3.804  2.6440  1.0517 -0.3322
  157MOL     H837760   2.554   3.496   3.850 -0.5724 -0.9899  1.1149
  157MOL     H937761   2.569   3.382   3.569 -0.7184  0.8368 -1.8965
  157MOL    H1037762   2.646   2.963   3.729  1.5267  2.4785  1.3904
  157MOL    H1137763   2.497   2.969   3.636 -1.6130 -0.4650  1.4174
  157MOL    H1237764   2.512   3.002   3.815 -0.0727  3.2942  0.0336
  157MOL    H1337765   2.665   3.522   3.722  0.5063 -0.0383 -0.2393
  157MOL    C1437766   2.391   3.477   3.631  0.2091  0.0559  0.5062
  157MOL    C1537767   2.423   3.619   3.584 -0.7751  0.7614 -0.2331
  157MOL    C1637768   2.496   3.623   3.443  0.5038  0.2903 -0.5228
  157MOL    O1737769   2.501   3.530   3.366 -0.5485 -0.0986 -0.2351
  157MOL    O1837770   2.529   3.742   3.410 -0.5427 -0.0821  0.2686
  157MOL    C1937771   2.556   3.768   3.275  0.2372 -0.4495 -0.2976
  157MOL    H2037772   2.325   3.431   3.558 -0.6640  2.2743 -0.1521
  157MOL    H2137773   2.338   3.489   3.725 -0.3179 -0.6007  0.2942
  157MOL    H2237774   2.501   3.656   3.651  0.5053 -1.0710 -0.6738
  157MOL    H2337775   2.476   3.799   3.207 -0.2330 -2.6635 -0.7837
  157MOL    H2437776   2.594   3.677   3.230 -1.4951 -1.5048  0.3161
  157MOL    H2537777   2.632   3.846   3.267 -1.6896  1.6745  1.1913
  157MOL    C2637778   2.295   3.710   3.584  0.1957 -0.4084 -0.2306
  157MOL    C2737779   2.257   3.778   3.717 -0.0711  0.0214  0.8943
  157MOL    C2837780   2.359   3.888   3.760 -0.5910 -0.1873  0.1320
  157MOL    O2937781   2.414   3.965   3.686  0.1208 -0.5368  0.1839
  157MOL    O3037782   2.367   3.900   3.892  0.3557 -0.0931 -0.2008
  157MOL    C3137783   2.461   3.988   3.950  0.2812 -0.1518  0.0427
  157MOL    H3237784   2.318   3.791   3.515 -1.0986 -0.1472 -0.3632
  157MOL    H3337785   2.204   3.661   3.549 -1.0114 -1.0324  3.5967
  157MOL    H3437786   2.265   3.705   3.797  1.2528  0.2669  1.0020
  157MOL    H3537787   2.409   4.078   3.984  0.5381 -0.4428  1.2643
  157MOL    H3637788   2.553   4.010   3.897 -0.2732  2.6591  0.1867
  157MOL    H3737789   2.487   3.942   4.046 -0.9829  0.7594  0.8445
  157MOL    C3837790   2.114   3.832   3.727 -0.0621 -0.4601 -0.1812
  157MOL    C3937791   2.048   3.849   3.860 -0.1313  0.0717  0.4431
  157MOL    C4037792   2.048   3.994   3.915  0.1174 -0.1996  0.2536
  157MOL    O4137793   2.017   4.087   3.844 -0.6724 -0.2876  0.5749
  157MOL    O4237794   2.062   4.000   4.048 -0.4907 -0.2215 -0.1681
  157MOL    C4337795   2.054   4.133   4.107  0.2723 -0.4933  0.1066
  157MOL    H4437796   2.117   3.928   3.675 -0.2931  1.0651  2.5244
  157MOL    H4537797   2.050   3.779   3.657  1.4044 -2.4190 -0.0868
  157MOL    H4637798   2.109   3.798   3.934  1.8916  0.8418 -0.6589
  157MOL    H4737799   2.126   4.204   4.066  2.4388 -1.6724  1.7647
  157MOL    H4837800   2.061   4.114   4.214 -0.3078  1.8471  0.5758
  157MOL    H4937801   1.952   4.156   4.079  0.8475  0.7582 -1.0030
  157MOL    C5037802   1.899   3.793   3.849 -0.1809 -0.0934  0.0856
  157MOL    C5137803   1.893   3.640   3.817 -0.0633 -0.2128  0.4177
  157MOL    C5237804   1.920   3.561   3.950 -0.0933  0.4050  0.2875
  157MOL    O5337805   2.029   3.512   3.971  0.0327 -0.3967  0.0111
  157MOL    O5437806   1.817   3.561   4.035 -0.1487 -0.2965  0.4082
  157MOL    C5537807   1.834   3.503   4.159  0.4486 -0.0624  0.0808
  157MOL    H5637808   1.845   3.815   3.942  0.0131  0.4410  0.0738
  157MOL    H5737809   1.841   3.844   3.771  0.8697 -0.7003 -1.1082
  157MOL    H5837810   1.972   3.606   3.751 -0.9525 -0.1369 -0.6970
  157MOL    H5937811   1.940   3.498   4.183  0.5386 -0.3407 -0.3776
  157MOL    H6037812   1.806   3.398   4.159  0.6124 -0.1231  1.6004
  157MOL    H6137813   1.791   3.561   4.242 -0.8757 -0.1330 -0.5370
  157MOL    C6237814   1.758   3.592   3.749  0.2331 -0.5205  0.5096
  157MOL    C6337815   1.735   3.630   3.601  0.0938  0.3507 -0.6626
  157MOL    C6437816   1.834   3.553   3.511 -1.0700  0.0232  0.2914
  157MOL    O6537817   1.941   3.590   3.479 -0.0592 -0.1917 -0.2757
  157MOL    O6637818   1.778   3.433   3.482  0.0082  0.1168  0.2712
  157MOL    C6737819   1.857   3.321   3.441 -0.6870 -0.3057  0.0714
  157MOL    H6837820   1.761   3.483   3.751  0.3089 -0.5794 -1.3377
  157MOL    H6937821   1.671   3.619   3.809  0.1747 -1.0273  0.6484
  157MOL    H7037822   1.751   3.738   3.591  1.9394  0.0699 -1.0020
  157MOL    H7137823   1.819   3.227   3.480 -2.3678  0.7272  1.0043
  157MOL    H7237824   1.959   3.328   3.480  0.0730  0.7677 -2.0009
  157MOL    H7337825   1.867   3.316   3.332  0.7341 -1.3850  0.2294
  157MOL    C7437826   1.589   3.611   3.551  0.1319  0.0987  0.1151
  157MOL    C7537827   1.502   3.736   3.589  0.6826  0.2750 -0.4334
  157MOL    C7637828   1.548   3.856   3.501 -0.9873 -0.4103  0.0060
  157MOL    O7737829   1.624   3.942   3.542 -0.2352 -0.0583  0.0968
  157MOL    O7837830   1.506   3.852   3.372  0.1342 -0.3918 -0.2040
  157MOL    C7937831   1.522   3.964   3.290 -0.1005 -0.6208  0.5393
  157MOL    H8037832   1.587   3.600   3.443 -1.3740  0.5184  0.0927
  157MOL    H8137833   1.552   3.525   3.607  0.9577 -0.9534 -0.9429
  157MOL    H8237834   1.520   3.755   3.695 -0.4441  0.9385 -0.3490
  157MOL    H8337835   1.496   3.944   3.186 -0.2939 -0.8782  0.6369
  157MOL    H8437836   1.615   4.022   3.296  0.3147 -1.3952  1.7622
  157MOL    H8537837   1.445   4.037   3.314 -0.1422  0.4218 -2.5549
  157MOL    C8637838   1.354   3.704   3.586  0.1450  0.8151 -0.3799
  157MOL    C8737839   1.261   3.810   3.643 -0.6823 -0.1491  0.0605
  157MOL    C8837840   1.117   3.776   3.605  0.4101  0.1659  0.1074
  157MOL    O8937841   1.050   3.844   3.527 -0.1720  0.3946 -0.5535
  157MOL    O9037842   1.074   3.663   3.668 -0.1778 -0.3064 -0.1516
  157MOL    C9137843   0.949   3.608   3.632  0.2559  0.2743 -0.6272
  157MOL    H9237844   1.329   3.662   3.489  0.9972 -2.0071  0.5464
  157MOL    H9337845   1.340   3.613   3.645  1.5910  0.0753 -1.1736
  157MOL    H9437846   1.274   3.908   3.599 -1.7030  0.9140  2.0260
  157MOL    H9537847   0.939   3.510   3.679 -0.6498  1.5706  1.9674
  157MOL    H9637848   0.941   3.603   3.523  0.9345  0.0382 -0.6684
  157MOL    H9737849   0.863   3.668   3.662  0.6310  0.1775  0.6756
  157MOL    C9837850   1.288   3.831   3.790  0.7305 -0.2726 -0.2285
  157MOL    C9937851   1.220   3.952   3.857  1.7025  0.5652  0.4680
  157MOL   C10037852   1.153   3.909   3.989  0.8294 -0.9093  0.0087
  157MOL   O10137853   1.217   3.886   4.095 -0.0161  0.1789  0.4666
  157MOL   O10237854   1.017   3.912   3.983  0.2374 -0.0217  0.2899
  157MOL   C10337855   0.951   3.898   4.103 -0.7835 -0.0985 -0.3988
  157MOL   H10437856   1.260   3.739   3.841 -3.1790  1.5572  1.0801
  157MOL   H10537857   1.393   3.828   3.820  1.0394 -0.5578 -1.3240
  157MOL   H10637858   1.133   3.987   3.802  2.2667 -0.0755 -0.8656
  157MOL   H10737859   0.995   3.813   4.155 -1.6695 -0.7974 -0.7822
  157MOL   H10837860   0.843   3.889   4.097 -1.1922  1.3614  3.6543
  157MOL   H10937861   0.964   3.990   4.161 -1.3432 -1.1773  1.4703
  157MOL   C11037862   1.319   4.072   3.878  0.4356  0.3970  0.2864
  157MOL   C11137863   1.277   4.197   3.806  0.4277  0.1776  0.0550
  157MOL   C11237864   1.262   4.181   3.654 -0.6029 -0.3110 -0.5883
  157MOL   O11337865   1.360   4.183   3.578  0.0860  0.6198  0.1784
  157MOL   O11437866   1.138   4.157   3.609 -0.1496  0.2848 -0.1025
  157MOL   C11537867   1.117   4.129   3.473  0.0831  0.2081  0.6444
  157MOL   H11637868   1.316   4.108   3.981  0.7824 -0.1851  0.5037
  157MOL   H11737869   1.424   4.047   3.860  0.2875 -1.7941  2.1524
  157MOL   H11837870   1.367   4.259   3.810  2.0380 -2.0145 -1.3741
  157MOL   H11937871   1.182   4.049   3.436  2.1153  2.0178  0.2092
  157MOL   H12037872   1.138   4.222   3.420  0.2550 -0.7242 -0.9876
  157MOL   H12137873   1.012   4.100   3.468  0.0815  0.0288  1.6487
  157MOL   C12237874   1.154   4.275   3.863  0.1868  0.5176 -0.7050
  157MOL   C12337875   1.137   4.422   3.809  0.3311 -0.1403 -0.1896
  157MOL   C12437876   0.995   4.469   3.832  0.0343  0.1063 -0.0071
  157MOL   O12537877   0.954   4.500   3.946 -0.0878  0.1442  0.4865
  157MOL   O12637878   0.917   4.453   3.728  0.0424 -0.2114  0.3203
  157MOL   C12737879   0.784   4.496   3.745 -0.1255 -0.2520 -1.1171
  157MOL   H12837880   1.067   4.216   3.835  1.4950 -2.3513  1.0537
  157MOL   H12937881   1.157   4.267   3.971 -2.0806 -2.6726 -0.8494
  157MOL   H13037882   1.140   4.407   3.701 -1.7656  0.5662 -0.3596
  157MOL   H13137883   0.717   4.455   3.670 -2.4649  0.0803  0.7152
  157MOL   H13237884   0.773   4.605   3.753 -2.7504 -0.4445 -1.7300
  157MOL   H13337885   0.737   4.459   3.836  2.0474 -0.1410  0.0814
  157MOL   C13437886   1.246   4.522   3.864  0.1910 -0.5614 -0.4553
  157MOL   C13537887   1.234   4.667   3.796  0.1908  0.0610  0.3339
  157MOL   C13637888   1.217   4.787   3.885  0.5827  0.7920 -0.1910
  157MOL   O13737889   1.146   4.884   3.849 -0.4502 -0.3555 -0.2022
  157MOL   O13837890   1.295   4.793   4.000  0.3034  0.1678  1.4065
  157MOL   C13937891   1.301   4.911   4.074  0.0623 -0.0359  0.0814
  157MOL   H14037892   1.234   4.529   3.972 -2.5839  0.2479 -0.7701
  157MOL   H14137893   1.348   4.484   3.855 -0.9273 -4.4219  1.9081
  157MOL   H14237894   1.137   4.667   3.745  0.6985  0.4821 -0.6542
  157MOL   H14337895   1.336   4.985   4.001  0.1408  1.0425  1.1860
  157MOL   H14437896   1.366   4.891   4.159 -0.3785  2.4061  1.0466
  157MOL   H14537897   1.205   4.946   4.111  0.8101  3.4134 -1.0061
  157MOL   C14637898   1.347   4.700   3.699  1.1219  0.4435  0.1415
  157MOL   C14737899   1.369   4.593   3.578 -0.3942 -0.5804 -0.1986
  157MOL   C14837900   1.241   4.566   3.492 -0.3013  0.1437  0.0028
  157MOL   O14937901   1.195   4.453   3.480  0.9678  0.4148  0.2294
  157MOL   O15037902   1.183   4.676   3.444  0.3797 -0.3030 -0.1236
  157MOL   C15137903   1.066   4.653   3.373 -0.3568 -0.1487  0.0780
  157MOL   H15237904   1.332   4.795   3.649 -3.5753 -0.9030 -1.2580
  157MOL   H15337905   1.439   4.706   3.759 -0.2327  0.3022  2.3043
  157MOL   H15437906   1.386   4.496   3.625 -0.9072  0.2189  1.6809
  157MOL   H15537907   1.104   4.606   3.282  1.8159  2.5287 -0.4944
  157MOL   H15637908   1.018   4.748   3.345 -0.1662 -1.3660 -4.9489
  157MOL   H15737909   0.992   4.592   3.424 -0.8253  1.2971  1.1628
  157MOL   C15837910   1.489   4.629   3.487  0.5303  0.1550 -0.1829
  157MOL   C15937911   1.627   4.612   3.559 -0.2644 -0.6771  0.0356
  157MOL   C16037912   1.665   4.468   3.596  0.7068 -0.5790  0.3457
  157MOL   O16137913   1.688   4.438   3.716 -0.0444 -0.2533  0.4363
  157MOL   O16237914   1.666   4.385   3.496  0.2935 -0.7052  0.4275
  157MOL   C16337915   1.692   4.247   3.504  0.5091 -0.2529 -0.4871
  157MOL   H16437916   1.491   4.581   3.389 -0.0031  0.9280 -0.5714
  157MOL   H16537917   1.488   4.736   3.466 -0.6790  0.5987  1.9500
  157MOL   H16637918   1.606   4.667   3.650  0.7694 -3.4561  2.0220
  157MOL   H16737919   1.790   4.215   3.538  0.6271  3.7557  3.3365
  157MOL   H16837920   1.668   4.218   3.402 -0.4757 -0.6231 -0.1569
  157MOL   H16937921   1.617   4.199   3.567 -0.7019 -0.4577 -2.0522
  157MOL   C17037922   1.741   4.683   3.487 -0.1231  0.6506  0.1814
  157MOL   C17137923   1.859   4.715   3.586 -0.3890  0.4298  0.6774
  157MOL   C17237924   1.989   4.718   3.504 -0.3589  0.3070  0.0441
  157MOL   O17337925   2.083   4.655   3.545  0.3464 -0.0805  0.4036
  157MOL   O17437926   1.991   4.803   3.402  0.0135 -0.0687  0.1866
  157MOL   C17537927   2.108   4.819   3.329 -0.5659 -0.1992  0.1230
  157MOL   H17637928   1.775   4.623   3.403 -1.6064  0.2262 -0.1327
  157MOL   H17737929   1.698   4.774   3.444  0.4729  0.5603 -0.6005
  157MOL   H17837930   1.866   4.641   3.665 -0.0253  0.6103  0.8176
  157MOL   H17937931   2.140   4.718   3.303  1.7703  0.6208 -0.3155
  157MOL   H18037932   2.179   4.889   3.374 -0.8883  0.6299 -0.6530
  157MOL   H18137933   2.072   4.867   3.238 -1.4929  4.1267  2.6285
  157MOL   C18237934   1.835   4.852   3.653 -0.1014  0.1170  0.4974
  157MOL   C18337935   1.890   4.876   3.800 -0.8640  0.2888 -0.1618
  157MOL   C18437936   1.843   4.769   3.901 -0.1345  0.4838 -1.0328
  157MOL   O18537937   1.932   4.702   3.962  0.9436 -0.0707  0.2388
  157MOL   O18637938   1.713   4.756   3.914  0.1071  0.4535 -0.2201
  157MOL   C18737939   1.660   4.649   3.996  0.5474 -0.4839  0.3405
  157MOL   H18837940   1.874   4.940   3.601 -2.4868  0.9880  0.1576
  157MOL   H18937941   1.727   4.863   3.656 -0.1893 -0.8821  1.2987
  157MOL   H19037942   1.836   4.963   3.839  2.0395  1.4672  1.3812
  157MOL   H19137943   1.564   4.681   4.035  0.9766  0.7748  0.3881
  157MOL   H19237944   1.723   4.627   4.082 -0.3330 -0.5276  0.9757
  157MOL   H19337945   1.651   4.562   3.931  0.1013 -1.9209  2.2653
  157MOL   C19437946   2.037   4.923   3.797  0.8805  0.6570  0.1722
  157MOL   C19537947   2.097   4.969   3.935 -0.2134  0.6619  0.3532
  157MOL   C19637948   2.248   4.987   3.912  0.0464  0.2160  0.2013
  157MOL   O19737949   2.329   4.905   3.965 -0.5746  0.0159  0.0628
  157MOL   O19837950   2.286   5.099   3.843 -0.2315  0.1037  0.1117
  157MOL   C19937951   2.426   5.112   3.808  0.4061 -0.6024  0.1410
  157MOL   H20037952   2.099   4.838   3.768 -0.0809 -0.1438  0.4050
  157MOL   H20137953   2.037   5.004   3.724  0.3006 -0.1272 -0.7149
  157MOL   H20237954   2.096   4.882   4.001 -1.2312  0.4483  0.0786
  157MOL   H20337955   2.454   5.204   3.757  0.0265 -0.3892  0.3141
  157MOL   H20437956   2.464   5.035   3.740  0.7249  2.1977 -2.9656
  157MOL   H20537957   2.483   5.114   3.901  0.8833 -0.7042 -0.1499
  157MOL   C20637958   2.024   5.087   3.999  0.8297 -0.1541  0.4545
  157MOL   C20737959   2.085   5.146   4.129 -0.2781  0.3475 -0.2721
  157MOL   C20837960   2.026   5.284   4.154  0.2984 -0.1614  0.5634
  157MOL   O20937961   1.910   5.312   4.130 -0.3550 -0.2640  0.4943
  157MOL   O21037962   2.113   5.375   4.212  0.3409  0.2031  0.0752
  157MOL   C21137963   2.068   5.494   4.266  0.5651  0.4305 -0.4457
  157MOL   H21237964   2.047   5.164   3.925  2.0305  0.5231  1.5229
  157MOL   H21337965   1.915   5.080   4.002  0.8050  0.1661  0.3772
  157MOL   H21437966   2.193   5.154   4.113  0.1458 -1.7394  1.2841
  157MOL   H21537967   1.986   5.483   4.337 -0.7545  0.3938 -1.9412
  157MOL   H21637968   2.032   5.565   4.191  0.2148 -1.9191 -2.5566
  157MOL   H21737969   2.151   5.539   4.320  0.7074  1.6334 -1.6171
  157MOL   C21837970   2.061   5.047   4.244  0.3592 -0.5208 -0.0149
  157MOL   C21937971   2.112   5.086   4.387 -0.1634  0.5843 -0.2388
  157MOL   C22037972   2.054   5.003   4.501  0.4862  0.2989  0.4830
  157MOL   O22137973   1.965   5.044   4.569  0.7588  0.8149 -0.5848
  157MOL   O22237974   2.115   4.883   4.525 -0.1534 -0.2618 -0.3028
  157MOL   C22337975   2.064   4.812   4.638  0.3361 -0.4027  0.1347
  157MOL   H22437976   1.953   5.033   4.250  0.2758  0.8427  2.0392
  157MOL   H22537977   2.101   4.952   4.208  0.8716  1.2330 -4.3860
  157MOL   H22637978   2.065   5.181   4.415 -3.0757 -0.7294 -0.4289
  157MOL   H22737979   1.958   4.795   4.620  0.1257 -0.5839  1.4915
  157MOL   H22837980   2.070   4.868   4.732 -2.0441 -1.0699  0.7332
  157MOL   H22937981   2.114   4.715   4.634  0.6102 -0.2118 -1.1004
  157MOL   C23037982   2.271   5.107   4.387 -0.0310 -0.8702  0.4050
  157MOL   C23137983   2.350   4.983   4.346  0.6041 -0.4716 -0.0724
  157MOL   C23237984   2.490   4.958   4.400 -0.7239  0.3785  0.2393
  157MOL   O23337985   2.533   5.008   4.505  0.1601  0.5143  0.2612
  157MOL   O23437986   2.561   4.882   4.311  0.2164  0.1579  0.5260
  157MOL   C23537987   2.687   4.832   4.350 -0.7074  0.2895  0.5516
  157MOL   H23637988   2.308   5.195   4.334 -1.2951 -0.2845  0.4786
  157MOL   H23737989   2.301   5.123   4.491  0.8032 -0.9229  0.1783
  157MOL   H23837990   2.344   4.994   4.238 -0.5604  0.7390  0.1010
  157MOL   H23937991   2.759   4.914   4.348  0.4744 -0.7367  0.1074
  157MOL   H24037992   2.727   4.755   4.283  1.0994 -0.6269  2.6490
  157MOL   H24137993   2.692   4.791   4.451 -1.0892 -0.5727  0.2318
  157MOL   H24237994   2.289   4.898   4.376 -3.0215  2.0878  0.1214
  158MOL     C137995   1.721   4.471   1.792  0.2764  0.5010  0.3139
  158MOL     C237996   1.638   4.423   1.673 -0.4623 -0.5421  0.0984
  158MOL     C337997   1.727   4.382   1.550  0.0859 -0.1420  0.0230
  158MOL     O437998   1.686   4.389   1.434 -0.2683 -0.3967  0.0513
  158MOL     O537999   1.843   4.318   1.584  0.0113  0.0382 -0.1501
  158MOL     C638000   1.914   4.254   1.476 -0.3960 -0.4263 -0.0756
  158MOL     H738001   1.757   4.572   1.771  0.0369  0.4515 -0.3574
  158MOL     H838002   1.813   4.413   1.801 -0.6587 -1.0143  0.1946
  158MOL     H938003   1.591   4.514   1.636 -2.7443 -2.4211 -1.7729
  158MOL    H1038004   1.964   4.331   1.417 -1.4662 -0.7153 -1.3980
  158MOL    H1138005   1.853   4.204   1.401  0.1721 -1.0026 -0.1519
  158MOL    H1238006   1.995   4.185   1.498 -0.2134  0.2989  1.6169
  158MOL    H1338007   1.668   4.462   1.887  0.1889 -2.2296  0.0410
  158MOL    C1438008   1.549   4.307   1.704  0.4305 -1.2538 -0.9733
  158MOL    C1538009   1.408   4.352   1.748  0.5198  0.1997  0.3611
  158MOL    C1638010   1.314   4.390   1.636  0.6607  0.0392  0.2094
  158MOL    O1738011   1.309   4.327   1.530 -0.1819 -0.4818  1.0700
  158MOL    O1838012   1.245   4.501   1.669  0.2833 -0.1298  0.1351
  158MOL    C1938013   1.159   4.551   1.574  0.1539  0.0757  0.9260
  158MOL    H2038014   1.529   4.237   1.623 -0.9531 -0.6465 -1.1703
  158MOL    H2138015   1.594   4.254   1.788 -0.6009  2.0906  1.8055
  158MOL    H2238016   1.411   4.445   1.806 -0.3038  0.5358 -0.1169
  158MOL    H2338017   1.090   4.614   1.631 -0.1438  0.7375 -0.1684
  158MOL    H2438018   1.122   4.468   1.513 -0.4803  2.0305 -1.4134
  158MOL    H2538019   1.213   4.612   1.503 -3.0457  0.5890 -1.1828
  158MOL    C2638020   1.332   4.241   1.827  0.0270  0.3038  0.0335
  158MOL    C2738021   1.194   4.277   1.895 -0.4065 -0.3028  0.8757
  158MOL    C2838022   1.124   4.144   1.952  0.1319 -0.8483 -0.5687
  158MOL    O2938023   1.003   4.140   1.954 -0.1422  0.3605 -0.4783
  158MOL    O3038024   1.203   4.055   2.014 -0.2286 -0.4544  1.1323
  158MOL    C3138025   1.149   3.931   2.057  0.6875  0.1165  0.6228
  158MOL    H3238026   1.304   4.156   1.764 -0.3689  0.3622  0.1272
  158MOL    H3338027   1.400   4.193   1.897  0.9349  0.6534 -0.6063
  158MOL    H3438028   1.136   4.320   1.813  1.0703 -0.0558 -0.0507
  158MOL    H3538029   1.215   3.853   2.018  0.8860 -0.3666  1.8962
  158MOL    H3638030   1.047   3.916   2.022  1.1983 -0.0535 -0.8004
  158MOL    H3738031   1.140   3.917   2.165 -1.5384  0.3067  0.4916
  158MOL    C3838032   1.202   4.384   2.003 -0.5857 -0.5188 -0.3723
  158MOL    C3938033   1.064   4.428   2.059  0.1914  0.2858  0.1786
  158MOL    C4038034   1.103   4.511   2.187  0.1343  0.8032 -0.3224
  158MOL    O4138035   1.108   4.636   2.177 -0.5130 -0.2749 -0.0874
  158MOL    O4238036   1.127   4.449   2.299 -0.0979  0.1926  0.1235
  158MOL    C4338037   1.109   4.526   2.420 -0.1540  0.6136 -0.8592
  158MOL    H4438038   1.266   4.346   2.083 -1.6166  0.8339  1.1441
  158MOL    H4538039   1.261   4.463   1.957  0.1967  0.5588  2.3632
  158MOL    H4638040   1.028   4.333   2.096 -1.1463  0.9745  0.6654
  158MOL    H4738041   1.119   4.459   2.505 -0.0040  0.9844 -0.5836
  158MOL    H4838042   1.006   4.558   2.432  0.0889  1.2307 -0.3555
  158MOL    H4938043   1.168   4.617   2.435  3.5973 -1.9281  0.3484
  158MOL    C5038044   0.974   4.508   1.955  0.3341 -0.1196 -0.8288
  158MOL    C5138045   0.827   4.482   1.981  0.1031 -0.0962 -0.8411
  158MOL    C5238046   0.770   4.540   2.116 -0.2072  0.1500 -0.4076
  158MOL    O5338047   0.705   4.470   2.195 -0.6903  0.5191 -0.0342
  158MOL    O5438048   0.794   4.670   2.127  0.0954 -0.1414 -0.3272
  158MOL    C5538049   0.767   4.738   2.244 -0.8018 -0.1798 -1.7970
  158MOL    H5638050   1.010   4.610   1.965  0.2381 -0.1391 -0.2463
  158MOL    H5738051   1.009   4.473   1.858 -1.1508 -0.2537 -1.3297
  158MOL    H5838052   0.827   4.374   1.991 -0.3030 -0.0652 -0.5286
  158MOL    H5938053   0.671   4.714   2.289 -0.8716  1.4780 -1.0242
  158MOL    H6038054   0.773   4.843   2.217 -0.9356  0.0194 -1.0513
  158MOL    H6138055   0.852   4.724   2.311 -1.8820 -0.1347 -0.4005
  158MOL    C6238056   0.731   4.510   1.866  0.1559  0.3695  0.5208
  158MOL    C6338057   0.754   4.433   1.734 -0.0317 -0.2241  0.9133
  158MOL    C6438058   0.739   4.285   1.762  0.6097  0.1203 -0.2488
  158MOL    O6538059   0.641   4.250   1.826  0.6935 -0.3032 -0.1653
  158MOL    O6638060   0.836   4.207   1.704  0.0385 -0.2035  0.3116
  158MOL    C6738061   0.838   4.063   1.717  0.0502 -0.5899 -0.1120
  158MOL    H6838062   0.629   4.499   1.903  0.1748  0.0941  0.4903
  158MOL    H6938063   0.746   4.615   1.839  1.9922 -0.1496 -0.5924
  158MOL    H7038064   0.860   4.438   1.711 -0.3184 -3.1833 -1.2993
  158MOL    H7138065   0.816   4.042   1.822  1.6708 -0.5210  0.2687
  158MOL    H7238066   0.939   4.026   1.698  0.2434 -0.0467 -0.1414
  158MOL    H7338067   0.766   4.011   1.655 -0.0450 -0.1978 -0.3325
  158MOL    C7438068   0.657   4.482   1.625 -0.2241 -0.0618  0.3623
  158MOL    C7538069   0.665   4.421   1.483 -0.1564 -0.5028 -0.6819
  158MOL    C7638070   0.553   4.465   1.387 -0.1673 -0.1082 -0.1560
  158MOL    O7738071   0.491   4.572   1.402  0.0903  0.3247 -0.5358
  158MOL    O7838072   0.521   4.377   1.293 -0.4501 -0.3655  0.5024
  158MOL    C7938073   0.412   4.392   1.205  0.5010  0.9678  0.0057
  158MOL    H8038074   0.553   4.481   1.656 -0.9436  2.6521 -1.8246
  158MOL    H8138075   0.678   4.588   1.612  2.2719 -0.6305 -0.5422
  158MOL    H8238076   0.652   4.313   1.489 -2.6819 -0.3471 -2.5205
  158MOL    H8338077   0.438   4.338   1.114  2.0479  1.5664  0.0970
  158MOL    H8438078   0.392   4.498   1.191 -2.3318  0.7995  2.2018
  158MOL    H8538079   0.316   4.348   1.236 -0.0997  1.2269 -1.4375
  158MOL    C8638080   0.807   4.455   1.419  0.0654  0.3710 -0.3798
  158MOL    C8738081   0.853   4.378   1.292 -0.2911  0.0956 -0.5960
  158MOL    C8838082   0.891   4.479   1.179 -0.4529  0.0163  0.5530
  158MOL    O8938083   0.826   4.504   1.081 -0.1245  0.3928  0.6187
  158MOL    O9038084   1.013   4.532   1.194 -0.4564  0.1052 -0.2910
  158MOL    C9138085   1.055   4.630   1.105  0.5572  0.0711  0.4165
  158MOL    H9238086   0.807   4.561   1.393 -1.2118  1.0998  2.4487
  158MOL    H9338087   0.882   4.447   1.498  1.2407  0.0832 -1.5052
  158MOL    H9438088   0.765   4.332   1.248 -3.2816  1.2944  3.7159
  158MOL    H9538089   0.973   4.690   1.066 -0.0343  0.8422  2.7801
  158MOL    H9638090   1.103   4.574   1.024 -0.8610 -0.4724 -0.0696
  158MOL    H9738091   1.126   4.693   1.158  1.4516 -1.1002  0.6409
  158MOL    C9838092   0.960   4.269   1.322  0.0109  0.2140 -0.5603
  158MOL    C9938093   1.008   4.174   1.205 -0.4697 -0.2203  0.5791
  158MOL   C10038094   1.140   4.116   1.244 -0.8790  0.0792  0.0949
  158MOL   O10138095   1.149   4.009   1.306  0.2910  0.1433 -0.4522
  158MOL   O10238096   1.240   4.185   1.199 -0.3332 -0.3072  0.3304
  158MOL   C10338097   1.369   4.139   1.245  0.0499 -0.2325  0.3258
  158MOL   H10438098   1.042   4.319   1.373  0.7684 -1.1077 -0.4536
  158MOL   H10538099   0.913   4.211   1.401  1.3381 -0.1220 -0.0016
  158MOL   H10638100   1.014   4.240   1.119 -1.2113 -0.5525  0.2640
  158MOL   H10738101   1.449   4.188   1.189  1.6295 -0.4681  2.2966
  158MOL   H10838102   1.387   4.033   1.230 -0.1905  0.0912 -2.5438
  158MOL   H10938103   1.365   4.162   1.351 -2.3346 -0.1800  0.2326
  158MOL   C11038104   0.909   4.071   1.157  0.5352 -0.2019  0.6929
  158MOL   C11138105   0.947   4.018   1.021 -0.4633  0.0520 -1.4240
  158MOL   C11238106   0.954   3.866   1.015 -0.2032  0.6369  0.1470
  158MOL   O11338107   1.058   3.803   1.021 -0.6430 -0.1927  0.3188
  158MOL   O11438108   0.835   3.811   1.011 -0.4458  0.7419 -0.0698
  158MOL   C11538109   0.819   3.676   0.975  0.2150  0.0385  0.0684
  158MOL   H11638110   0.911   3.988   1.228  1.8951 -1.2486 -0.5607
  158MOL   H11738111   0.809   4.114   1.157  0.3037 -0.7263  1.5391
  158MOL   H11838112   1.048   4.051   0.998  0.0561  1.6610  2.7611
  158MOL   H11938113   0.894   3.639   0.905 -1.4524 -1.4669 -0.9686
  158MOL   H12038114   0.716   3.653   0.944  0.4273  1.2959 -1.6247
  158MOL   H12138115   0.829   3.629   1.073 -0.5311  0.0362  0.1489
  158MOL   C12238116   0.840   4.065   0.914  0.4728 -0.5501 -0.2710
  158MOL   C12338117   0.854   4.205   0.851  0.2246  0.4954  0.4330
  158MOL   C12438118   0.951   4.210   0.736  0.4696  0.0358 -0.2359
  158MOL   O12538119   0.994   4.110   0.682  0.1372  0.3368  0.8463
  158MOL   O12638120   0.986   4.327   0.707  0.3983 -0.0085 -0.4298
  158MOL   C12738121   1.068   4.362   0.602 -0.6631 -0.2204 -0.0808
  158MOL   H12838122   0.841   3.990   0.835  1.3249 -1.7466  0.8486
  158MOL   H12938123   0.740   4.050   0.955 -0.2973  0.8403 -1.6187
  158MOL   H13038124   0.899   4.267   0.928 -0.0405  1.3270 -0.0697
  158MOL   H13138125   1.167   4.397   0.633 -0.4687 -0.4176 -0.4716
  158MOL   H13238126   1.018   4.438   0.542  1.7491  1.1311 -0.4778
  158MOL   H13338127   1.086   4.281   0.531 -0.1754  0.3968 -0.6768
  158MOL   C13438128   0.715   4.263   0.806 -0.3979  0.3746  0.0096
  158MOL   C13538129   0.666   4.226   0.659 -0.1882  0.0799  0.2787
  158MOL   C13638130   0.636   4.077   0.642  0.3502  0.1482 -0.0481
  158MOL   O13738131   0.665   4.012   0.541  0.4145 -0.2910  0.1088
  158MOL   O13838132   0.571   4.032   0.744  0.1422 -0.1639  0.5021
  158MOL   C13938133   0.528   3.896   0.731 -0.4346  0.3331 -0.1123
  158MOL   H14038134   0.638   4.236   0.878 -1.1429 -1.7950 -1.5769
  158MOL   H14138135   0.727   4.371   0.816 -1.9529  0.6035 -0.5448
  158MOL   H14238136   0.742   4.250   0.585 -0.9983 -0.4404 -0.7552
  158MOL   H14338137   0.479   3.868   0.638 -1.3329  2.2526 -0.2544
  158MOL   H14438138   0.460   3.869   0.812  0.5848  0.5526  0.8304
  158MOL   H14538139   0.618   3.835   0.742 -1.0024 -0.9931 -2.6030
  158MOL   C14638140   0.541   4.309   0.622 -0.2112 -0.7908  0.2772
  158MOL   C14738141   0.517   4.302   0.471 -0.1089  0.1522  0.0936
  158MOL   C14838142   0.374   4.243   0.448 -0.3151 -0.5895  0.2397
  158MOL   O14938143   0.268   4.311   0.443  0.2205 -0.3136  0.4194
  158MOL   O15038144   0.375   4.108   0.454 -0.0857 -0.2505 -0.3249
  158MOL   C15138145   0.251   4.046   0.474  0.3091  0.2768 -0.4686
  158MOL   H15238146   0.454   4.275   0.678 -1.2537  2.9699  1.0513
  158MOL   H15338147   0.552   4.413   0.650 -0.9995 -1.2529  2.4036
  158MOL   H15438148   0.583   4.232   0.420  1.6332  1.9763 -0.2627
  158MOL   H15538149   0.269   3.941   0.495 -1.7957  0.1335  0.8143
  158MOL   H15638150   0.195   4.070   0.384 -1.0110  1.4565  0.6330
  158MOL   H15738151   0.205   4.080   0.567  0.9175 -0.6795  0.1881
  158MOL   C15838152   0.522   4.443   0.400  0.1551 -0.0956  0.6525
  158MOL   C15938153   0.653   4.488   0.325  0.1896  0.1010 -0.9745
  158MOL   C16038154   0.678   4.402   0.206  0.2160 -0.5508 -0.5630
  158MOL   O16138155   0.623   4.422   0.095 -0.0639  0.6863 -0.2547
  158MOL   O16238156   0.760   4.297   0.242  0.2878  0.5031 -0.0627
  158MOL   C16338157   0.786   4.180   0.160  0.0985  0.6225  0.6963
  158MOL   H16438158   0.449   4.429   0.320  0.4385  1.9543  0.0020
  158MOL   H16538159   0.474   4.510   0.471 -0.0638 -1.0075  1.3635
  158MOL   H16638160   0.733   4.469   0.396 -2.3898 -0.7900  1.8063
  158MOL   H16738161   0.846   4.201   0.071  0.1130  1.3227  0.8663
  158MOL   H16838162   0.687   4.149   0.128  0.6232 -1.6728  1.2552
  158MOL   H16938163   0.828   4.100   0.221 -0.7143 -0.3726 -0.0362
  158MOL   C17038164   0.653   4.647   0.280  1.1696  0.1278 -0.2210
  158MOL   C17138165   0.791   4.714   0.247 -0.0694  1.1657 -0.3283
  158MOL   C17238166   0.892   4.688   0.360  0.3705  0.0436 -0.8160
  158MOL   O17338167   0.996   4.627   0.337  0.0873 -0.4836 -0.2196
  158MOL   O17438168   0.839   4.742   0.481 -0.0123  0.3624  0.1705
  158MOL   C17538169   0.897   4.694   0.597  0.1178  0.3367 -0.4138
  158MOL   H17638170   0.596   4.669   0.190 -0.9932 -0.2762  1.0098
  158MOL   H17738171   0.608   4.711   0.356  0.5615 -1.7052  1.0189
  158MOL   H17838172   0.780   4.823   0.245 -1.5427  1.0505  0.5488
  158MOL   H17938173   1.002   4.721   0.604  0.3345 -0.7686  1.0041
  158MOL   H18038174   0.895   4.588   0.620 -0.7971  0.5143  0.4001
  158MOL   H18138175   0.840   4.747   0.674  0.1648 -0.3946  0.1244
  158MOL   C18238176   0.842   4.688   0.106  0.0820 -0.8016 -0.2595
  158MOL   C18338177   0.754   4.733   7.918 -0.5543 -0.2143 -0.0148
  158MOL   C18438178   0.723   4.881   7.919  0.6292 -0.3754  0.3167
  158MOL   O18538179   0.608   4.923   0.010  0.5256  0.1517  0.2230
  158MOL   O18638180   0.823   4.957   7.893  0.0954 -0.5073 -0.2505
  158MOL   C18738181   0.801   5.092   7.851  0.1753 -0.4594  0.4074
  158MOL   H18838182   0.939   4.737   0.105  0.7655 -2.1122  1.2206
  158MOL   H18938183   0.857   4.580   0.105  1.8521 -0.5642 -1.3678
  158MOL   H19038184   0.659   4.679   7.917 -0.2828 -0.6882 -2.0553
  158MOL   H19138185   0.864   5.101   7.762  0.2033 -0.8280  0.3888
  158MOL   H19238186   0.846   5.154   7.927 -1.5111 -0.6513  1.5898
  158MOL   H19338187   0.699   5.122   7.825 -0.1776 -1.7379  0.2513
  158MOL   C19438188   0.821   4.680   7.794 -0.5097 -0.3392  0.5456
  158MOL   C19538189   0.743   4.705   7.664 -0.6590 -0.7121  0.5568
  158MOL   C19638190   0.815   4.819   7.585  0.0526  0.0885 -0.3880
  158MOL   O19738191   0.772   4.934   7.582 -0.6297 -0.2155 -0.1503
  158MOL   O19838192   0.923   4.779   7.520 -0.2932 -0.2293 -0.4195
  158MOL   C19938193   0.988   4.857   7.428 -0.2382 -0.1684  0.1741
  158MOL   H20038194   0.922   4.718   7.784 -1.0816  0.5960 -2.3182
  158MOL   H20138195   0.842   4.574   7.808  0.6216 -0.1303  0.4545
  158MOL   H20238196   0.651   4.750   7.702 -0.2234  2.2531 -1.7560
  158MOL   H20338197   1.070   4.803   7.380  0.8226 -0.0833  1.8503
  158MOL   H20438198   1.032   4.942   7.480  0.4790 -0.2818 -0.2382
  158MOL   H20538199   0.920   4.909   7.360  2.2050  1.0681 -1.4157
  158MOL   C20638200   0.724   4.582   7.575 -0.3247  0.7109  0.1134
  158MOL   C20738201   0.606   4.493   7.634 -0.1362 -0.7723  0.6432
  158MOL   C20838202   0.471   4.572   7.636  0.1055 -0.2903  0.5491
  158MOL   O20938203   0.432   4.643   7.539 -0.3171  0.3355 -0.4174
  158MOL   O21038204   0.395   4.541   7.740  0.0001 -0.1085 -0.6818
  158MOL   C21138205   0.279   4.616   7.759  0.5132  0.4231  0.2452
  158MOL   H21238206   0.700   4.616   7.474 -0.0708 -2.1340 -0.9392
  158MOL   H21338207   0.816   4.524   7.573  0.3484  1.7764  0.1547
  158MOL   H21438208   0.630   4.461   7.735 -0.0963  2.4056  1.6967
  158MOL   H21538209   0.216   4.632   7.671 -1.4845 -3.4825  0.8714
  158MOL   H21638210   0.294   4.712   7.810 -1.1612  0.7797  0.1270
  158MOL   H21738211   0.215   4.551   7.819 -1.2803  1.2962 -0.6614
  158MOL   C21838212   0.592   4.365   7.543  0.5096  0.8656  0.5192
  158MOL   C21938213   0.487   4.265   7.600 -0.7799 -0.0644 -0.1331
  158MOL   C22038214   0.432   4.175   7.488  0.2291  0.6600 -0.1826
  158MOL   O22138215   0.482   4.179   7.377 -0.8018  0.3332 -0.5085
  158MOL   O22238216   0.327   4.099   7.530 -0.4321  0.2919  0.3476
  158MOL   C22338217   0.242   4.037   7.442  0.1422 -0.3518 -0.3314
  158MOL   H22438218   0.572   4.389   7.438 -1.4481  1.5914  1.0307
  158MOL   H22538219   0.686   4.311   7.535  0.8891  1.3113  1.7443
  158MOL   H22638220   0.398   4.323   7.622 -0.6117 -0.0119  0.4215
  158MOL   H22738221   0.187   3.955   7.488 -0.1511  0.0912  0.1078
  158MOL   H22838222   0.308   3.997   7.365  0.1520 -0.0475 -0.4832
  158MOL   H22938223   0.177   4.101   7.383  1.0907  0.0813 -0.9146
  158MOL   C23038224   0.547   4.176   7.718  0.2063  0.5550 -0.0477
  158MOL   C23138225   0.443   4.107   7.806  0.1911 -0.2520  0.4982
  158MOL   C23238226   0.380   4.197   7.917 -0.1378 -0.3120  0.2346
  158MOL   O23338227   0.431   4.203   0.098 -0.2178 -0.3610 -0.0660
  158MOL   O23438228   0.285   4.270   7.876  0.1648 -0.5096  0.5047
  158MOL   C23538229   0.197   4.325   0.038  0.5551  0.0742  0.6066
  158MOL   H23638230   0.613   4.104   7.669 -0.7758 -1.0002  0.8863
  158MOL   H23738231   0.618   4.229   7.781 -1.8637  1.7542  1.3651
  158MOL   H23838232   0.486   4.019   7.853 -1.5681 -0.7919  1.1696
  158MOL   H23938233   0.247   4.397   0.102  0.5026  0.1386  0.5764
  158MOL   H24038234   0.144   4.248   0.093 -1.6001 -0.2211 -1.7451
  158MOL   H24138235   0.110   4.375   7.927 -0.1418  0.1080  2.0257
  158MOL   H24238236   0.364   4.061   7.747 -1.1014  0.5429  1.5564
  159MOL     C138237   1.050   3.049   4.524  0.4215 -1.3132 -0.6090
  159MOL     C238238   0.910   3.114   4.518 -0.8022 -0.1585 -0.9146
  159MOL     C338239   0.881   3.230   4.609  0.3678 -0.4419 -0.3846
  159MOL     O438240   0.974   3.288   4.665  0.8193  0.2032 -0.3296
  159MOL     O538241   0.754   3.256   4.612  0.2089 -0.3166 -0.3934
  159MOL     C638242   0.708   3.366   4.693 -0.1238  0.3248  0.6750
  159MOL     H738243   1.110   3.082   4.609 -1.8336 -1.1789  0.9681
  159MOL     H838244   1.107   3.068   4.433 -0.3407 -1.9031 -1.2009
  159MOL     H938245   0.839   3.045   4.566 -0.6274  0.6928  0.5955
  159MOL    H1038246   0.720   3.338   4.797  0.3961 -0.7231  0.3384
  159MOL    H1138247   0.604   3.393   4.672  0.1426 -0.0503 -1.1960
  159MOL    H1238248   0.765   3.453   4.661  1.1620 -1.0527 -0.8690
  159MOL    H1338249   1.047   2.941   4.518  0.4525 -1.3274 -0.3918
  159MOL    C1438250   0.868   3.134   4.369  0.2476  0.6205  0.0970
  159MOL    C1538251   0.854   3.004   4.286  0.7693  0.1000 -0.5096
  159MOL    C1638252   0.742   2.917   4.342  0.6542  0.4203  0.4787
  159MOL    O1738253   0.625   2.947   4.334  0.0374 -0.0273 -0.5495
  159MOL    O1838254   0.782   2.811   4.412  0.0793  0.2151 -0.4863
  159MOL    C1938255   0.688   2.709   4.439 -0.4704  0.5806 -0.9457
  159MOL    H2038256   0.770   3.179   4.384 -0.5959 -1.5085  1.2540
  159MOL    H2138257   0.939   3.204   4.326  0.3091 -0.8015 -2.2010
  159MOL    H2238258   0.947   2.946   4.294  0.0003 -1.0235  0.4774
  159MOL    H2338259   0.605   2.702   4.370 -0.6413 -2.8113 -0.4641
  159MOL    H2438260   0.653   2.736   4.539 -0.3875  0.0809 -0.7811
  159MOL    H2538261   0.735   2.611   4.450  1.6499  1.7431  0.8435
  159MOL    C2638262   0.845   3.030   4.138 -0.1604 -0.0759 -0.3246
  159MOL    C2738263   0.970   3.097   4.074 -0.4083  0.1925  0.2472
  159MOL    C2838264   1.102   3.019   4.103 -0.2314 -0.2453 -0.7096
  159MOL    O2938265   1.191   3.070   4.177 -0.2511  0.3857  0.1899
  159MOL    O3038266   1.113   2.890   4.047 -0.2645  0.1374  0.0620
  159MOL    C3138267   1.235   2.820   4.062 -0.8023  0.7049 -0.0275
  159MOL    H3238268   0.831   2.934   4.087  0.8731  0.4331 -1.5754
  159MOL    H3338269   0.754   3.090   4.132 -0.5109 -0.2743  2.3459
  159MOL    H3438270   0.984   3.200   4.109 -0.3226  0.3857 -0.3536
  159MOL    H3538271   1.202   2.716   4.059  0.5702  0.2220  1.1328
  159MOL    H3638272   1.279   2.835   4.160 -0.4548  1.7436 -0.3396
  159MOL    H3738273   1.310   2.835   3.983 -0.3034  1.2436  0.5472
  159MOL    C3838274   0.948   3.110   3.920  0.0455 -0.2950 -0.3223
  159MOL    C3938275   0.825   3.192   3.864  0.8234 -0.2411  0.5579
  159MOL    C4038276   0.827   3.335   3.933  0.1920 -0.4019  0.3974
  159MOL    O4138277   0.925   3.411   3.932  1.0039 -0.3003 -0.0355
  159MOL    O4238278   0.707   3.368   3.985 -0.8435 -0.3000 -0.0321
  159MOL    C4338279   0.695   3.499   4.042  0.2464  0.3826 -1.0782
  159MOL    H4438280   1.038   3.152   3.873  0.9555 -0.1760  1.4821
  159MOL    H4538281   0.934   3.017   3.866 -0.2312  0.5673 -1.7788
  159MOL    H4638282   0.737   3.135   3.894 -0.3596  1.7095  0.9177
  159MOL    H4738283   0.610   3.555   4.003  1.9044  2.5432 -1.7131
  159MOL    H4838284   0.765   3.581   4.028  1.5570 -0.9166 -2.2872
  159MOL    H4938285   0.697   3.487   4.150  1.5790 -0.0102 -1.1424
  159MOL    C5038286   0.818   3.198   3.712  0.0258 -0.3736  0.2176
  159MOL    C5138287   0.709   3.281   3.645 -0.3177 -0.1146 -0.0065
  159MOL    C5238288   0.740   3.315   3.499 -0.1028  0.1620 -0.7048
  159MOL    O5338289   0.725   3.428   3.451 -0.7244 -0.5104  0.0263
  159MOL    O5438290   0.781   3.206   3.431 -0.2543 -0.2633 -0.0742
  159MOL    C5538291   0.796   3.217   3.289 -0.2822  0.7300  0.3786
  159MOL    H5638292   0.908   3.255   3.688  0.1672 -0.5417  0.3502
  159MOL    H5738293   0.833   3.101   3.666 -3.0983 -0.5094 -0.6317
  159MOL    H5838294   0.700   3.379   3.690 -0.3576 -0.4154  0.6488
  159MOL    H5938295   0.695   3.230   3.250  0.5650  4.2432 -0.8262
  159MOL    H6038296   0.836   3.118   3.267  0.1864  0.8336  0.7486
  159MOL    H6138297   0.871   3.292   3.260  1.7909 -1.0592  0.9492
  159MOL    C6238298   0.576   3.207   3.650  0.1690  0.1149  0.2379
  159MOL    C6338299   0.442   3.283   3.666 -0.4562  0.2019 -0.5624
  159MOL    C6438300   0.391   3.338   3.532 -0.3616  0.1270 -0.1752
  159MOL    O6538301   0.368   3.459   3.510 -0.0809  0.3655  0.2246
  159MOL    O6638302   0.361   3.241   3.443  0.6556  0.4426 -0.6437
  159MOL    C6738303   0.308   3.286   3.319  0.3674 -0.0992 -0.2163
  159MOL    H6838304   0.568   3.146   3.561 -0.0541  2.3047 -1.2945
  159MOL    H6938305   0.591   3.132   3.728  0.7315  1.5763  1.5691
  159MOL    H7038306   0.468   3.360   3.738 -1.6707  1.0272 -0.9996
  159MOL    H7138307   0.389   3.343   3.275  1.5107 -0.8259  0.8973
  159MOL    H7238308   0.230   3.360   3.337  1.3648  1.0057 -0.3676
  159MOL    H7338309   0.276   3.199   3.261 -2.3915  0.7163  0.0096
  159MOL    C7438310   0.338   3.188   3.727 -0.3774  0.1930  0.0925
  159MOL    C7538311   0.316   3.203   3.884 -0.3143  0.1190 -0.7704
  159MOL    C7638312   0.416   3.120   3.974  0.6842  0.6205 -0.6230
  159MOL    O7738313   0.500   3.174   4.049  0.0515  0.3443 -0.0120
  159MOL    O7838314   0.393   2.989   3.959 -0.1913  0.0987 -0.1815
  159MOL    C7938315   0.492   2.895   4.011 -0.6145 -0.0107 -0.8433
  159MOL    H8038316   0.236   3.208   3.696  0.4353  2.8414 -0.9928
  159MOL    H8138317   0.363   3.084   3.707  4.5438  0.8959  1.8885
  159MOL    H8238318   0.222   3.150   3.899 -0.2956  0.1731 -0.4719
  159MOL    H8338319   0.478   2.866   4.115  0.0534  3.0377  0.1738
  159MOL    H8438320   0.587   2.949   4.010  0.1063 -1.2528 -0.6712
  159MOL    H8538321   0.502   2.808   3.947 -1.8890 -0.4085 -0.5029
  159MOL    C8638322   0.299   3.347   3.930 -0.3973  0.1860  0.6610
  159MOL    C8738323   0.203   3.379   4.054 -0.3880  0.1513 -0.0544
  159MOL    C8838324   0.260   3.337   4.192 -0.3528  0.3161  0.2863
  159MOL    O8938325   0.190   3.280   4.274  0.0316 -0.1948 -0.2270
  159MOL    O9038326   0.385   3.377   4.223 -0.3672  0.4529 -0.6669
  159MOL    C9138327   0.448   3.314   4.338  0.0343  0.2615 -0.7325
  159MOL    H9238328   0.398   3.390   3.949 -0.9664  2.2900 -1.0079
  159MOL    H9338329   0.253   3.403   3.849 -1.7918 -0.9626  0.6420
  159MOL    H9438330   0.117   3.313   4.044  1.0968 -1.8026 -0.2894
  159MOL    H9538331   0.463   3.211   4.303 -0.0823  0.1235 -0.3717
  159MOL    H9638332   0.378   3.312   4.421  0.3904 -1.0152 -0.4449
  159MOL    H9738333   0.544   3.355   4.369 -0.6906 -0.1224  2.1524
  159MOL    C9838334   0.139   3.527   4.057  0.5135  0.1282 -0.5102
  159MOL    C9938335   7.924   3.536   4.023 -0.2515 -0.4568 -0.3450
  159MOL   C10038336   7.833   3.445   4.105 -0.1787 -0.5366  0.6695
  159MOL   O10138337   7.747   3.374   4.052 -0.0328 -0.3770  0.0269
  159MOL   O10238338   7.848   3.452   4.233 -0.6539 -0.3059  0.6962
  159MOL   C10338339   7.768   3.373   4.318 -0.1236 -0.3608 -0.0044
  159MOL   H10438340   0.164   3.584   4.146  0.9660 -0.9861  0.0912
  159MOL   H10538341   0.204   3.574   3.983  1.2241  2.6067  1.6174
  159MOL   H10638342   0.001   3.484   3.928 -0.6997 -1.8332  0.3648
  159MOL   H10738343   7.667   3.415   4.311  0.4913  1.2913  0.6275
  159MOL   H10838344   7.789   3.386   4.424  0.5936 -1.3811 -0.0157
  159MOL   H10938345   7.768   3.267   4.294 -0.7402 -0.3866  0.1117
  159MOL   C11038346   7.859   3.668   3.993  0.4304 -0.2814 -0.0653
  159MOL   C11138347   7.838   3.767   4.105  0.5275 -0.1317  0.3220
  159MOL   C11238348   7.929   3.889   4.092  0.7867  0.3289  0.1588
  159MOL   O11338349   0.057   3.918   4.193 -0.0079 -0.1536 -0.2456
  159MOL   O11438350   7.923   3.951   3.967  0.3787 -0.5117 -0.3536
  159MOL   C11538351   0.056   4.073   3.947  0.3391 -0.1367 -0.0525
  159MOL   H11638352   7.915   3.712   3.910  3.2968 -1.2955  1.2822
  159MOL   H11738353   7.761   3.650   3.948  0.6615  1.0844 -1.1457
  159MOL   H11838354   7.863   3.708   4.193  0.1488  1.3086  1.4240
  159MOL   H11938355   7.932   4.129   3.873  1.6912  0.3728 -0.7131
  159MOL   H12038356   0.157   4.062   3.908  0.7155  1.3070  0.4729
  159MOL   H12138357   0.060   4.130   4.040 -0.3723 -0.4108  0.1578
  159MOL   C12238358   7.692   3.816   4.122  0.6067  0.5299 -0.1957
  159MOL   C12338359   7.661   3.859   4.269 -0.0393  0.2000 -0.3597
  159MOL   C12438360   7.526   3.936   4.286 -0.1777  0.0219  0.1887
  159MOL   O12538361   7.461   3.970   4.186 -0.1118  0.5009 -0.0913
  159MOL   O12638362   7.479   3.956   4.408 -0.6157  0.4082  0.3499
  159MOL   C12738363   7.357   4.024   4.430  0.2328 -0.5307 -0.0230
  159MOL   H12838364   7.663   3.897   4.055 -3.9206 -0.4024  0.5387
  159MOL   H12938365   7.620   3.736   4.107  1.5795  0.2244 -3.4512
  159MOL   H13038366   7.734   3.931   4.307  1.3844 -0.4257 -1.8526
  159MOL   H13138367   7.380   4.129   4.451 -2.0765  0.3144 -1.4126
  159MOL   H13238368   7.321   3.980   4.523 -2.3838  2.0412  0.2806
  159MOL   H13338369   7.283   4.012   4.351 -3.2568  1.3071  2.7950
  159MOL   C13438370   7.663   3.742   4.368  0.4399 -0.5057  0.1540
  159MOL   C13538371   7.734   3.770   4.503  0.2664 -0.1520  0.0391
  159MOL   C13638372   7.643   3.715   4.612  0.2228  0.1814  0.0607
  159MOL   O13738373   7.643   3.593   4.637  0.0313 -0.5081  0.0876
  159MOL   O13838374   7.563   3.806   4.669 -0.1105 -0.4073  0.2643
  159MOL   C13938375   7.460   3.759   4.757 -0.6672 -0.8143 -0.8484
  159MOL   H14038376   7.563   3.699   4.376  1.6007 -3.5665 -1.0632
  159MOL   H14138377   7.716   3.660   4.320  1.1198  0.2370 -0.3945
  159MOL   H14238378   7.729   3.877   4.522 -0.2406 -0.1716  0.0278
  159MOL   H14338379   7.453   3.651   4.767 -0.4626 -0.5958  2.4359
  159MOL   H14438380   7.367   3.788   4.709 -0.0394 -1.4152 -2.4746
  159MOL   H14538381   7.472   3.808   4.854  3.9302 -3.0023 -0.1596
  159MOL   C14638382   7.891   3.727   4.501 -0.1404 -1.1173  0.3194
  159MOL   C14738383   0.061   3.794   4.587  0.1214  0.1452 -0.3180
  159MOL   C14838384   0.020   3.795   4.737  0.1410 -0.5693 -0.5490
  159MOL   O14938385   0.018   3.897   4.808  0.4709 -0.6388  0.0238
  159MOL   O15038386   7.932   3.671   4.786 -0.1763 -0.3079  0.3344
  159MOL   C15138387   7.877   3.657   4.918 -0.1800  0.0542 -0.2767
  159MOL   H15238388   7.892   3.618   4.510  1.6337 -1.2497 -1.1048
  159MOL   H15338389   7.926   3.754   4.401 -0.3087  1.0616  0.8258
  159MOL   H15438390   0.066   3.900   4.563 -0.3297  0.3114  0.3025
  159MOL   H15538391   7.823   3.563   4.924 -0.7607  0.3353 -0.9773
  159MOL   H15638392   7.808   3.738   4.942 -0.6118 -0.6242  0.7747
  159MOL   H15738393   0.021   3.639   4.993 -0.3978 -1.3986 -0.4049
  159MOL   C15838394   0.207   3.744   4.568  0.1038 -0.3882 -0.0047
  159MOL   C15938395   0.284   3.828   4.465  1.0567  0.2491  0.0627
  159MOL   C16038396   0.334   3.954   4.535  0.0923  0.2519 -0.2049
  159MOL   O16138397   0.307   4.065   4.489 -0.1696 -0.3866 -0.2246
  159MOL   O16238398   0.426   3.933   4.625 -0.1348 -0.5588  0.1579
  159MOL   C16338399   0.478   4.037   4.701  0.0457  0.0881 -0.0927
  159MOL   H16438400   0.268   3.728   4.657  1.5137  3.9416 -0.0827
  159MOL   H16538401   0.210   3.638   4.541  0.1868  0.0363 -1.7211
  159MOL   H16638402   0.210   3.849   4.387 -0.7015  0.9580  1.8964
  159MOL   H16738403   0.389   4.089   4.737  0.1484 -0.2591  0.6893
  159MOL   H16838404   0.524   4.109   4.634 -0.1165  2.7351  2.5559
  159MOL   H16938405   0.540   4.002   4.785  1.2873 -0.4721 -1.2271
  159MOL   C17038406   0.408   3.758   4.391  0.0186  0.1736 -0.3253
  159MOL   C17138407   0.484   3.845   4.284  0.3185 -0.2495 -0.6334
  159MOL   C17238408   0.636   3.810   4.295 -0.2350 -0.3716 -0.5342
  159MOL   O17338409   0.721   3.898   4.313 -0.3167  0.0019 -0.5757
  159MOL   O17438410   0.655   3.677   4.308  0.0649 -0.0380 -0.3762
  159MOL   C17538411   0.777   3.628   4.359 -1.0460 -0.2593 -1.0873
  159MOL   H17638412   0.473   3.721   4.471 -1.4756 -1.8210  0.0124
  159MOL   H17738413   0.372   3.665   4.348  0.3800 -1.1428  2.0926
  159MOL   H17838414   0.470   3.949   4.314  1.9141  0.9138 -3.6582
  159MOL   H17938415   0.815   3.695   4.437 -2.7226  0.6371 -1.0129
  159MOL   H18038416   0.836   3.647   4.269  0.2068 -1.4298 -0.5207
  159MOL   H18138417   0.779   3.524   4.390  0.5225  0.2674  0.6749
  159MOL   C18238418   0.423   3.831   4.144 -0.1129 -0.3941 -0.4080
  159MOL   C18338419   0.499   3.894   4.027  0.7745  0.2896  0.0139
  159MOL   C18438420   0.471   3.832   3.893 -0.5883  0.2667 -0.0653
  159MOL   O18538421   0.565   3.789   3.822  0.4975 -0.6080  0.8056
  159MOL   O18638422   0.333   3.825   3.865 -0.3309  0.1725 -0.3999
  159MOL   C18738423   0.289   3.765   3.752 -0.2340 -0.2912 -0.6691
  159MOL   H18838424   0.418   3.724   4.120 -2.1075 -0.6938  1.2225
  159MOL   H18938425   0.321   3.867   4.156  1.3450  2.8804  3.0463
  159MOL   H19038426   0.606   3.875   4.042  0.2599 -2.4740  0.3831
  159MOL   H19138427   0.225   3.681   3.777 -0.9054  0.6129  0.7690
  159MOL   H19238428   0.376   3.729   3.698 -0.4582 -0.5987 -0.8212
  159MOL   H19338429   0.238   3.839   3.690 -0.2960  0.2756  0.0370
  159MOL   C19438430   0.487   4.049   4.020  0.1715 -0.5475  0.0775
  159MOL   C19538431   0.622   4.126   3.988 -0.3595  0.1743  0.2355
  159MOL   C19638432   0.667   4.112   3.841  0.3313  0.5985 -0.0372
  159MOL   O19738433   0.612   4.175   3.753 -0.3208  0.6182  0.5014
  159MOL   O19838434   0.775   4.039   3.834  0.2618  0.3339 -0.2369
  159MOL   C19938435   0.831   4.027   3.706  0.3364 -0.2876 -0.1846
  159MOL   H20038436   0.408   4.077   3.950  1.9447  1.1756 -1.2928
  159MOL   H20138437   0.468   4.080   4.123  1.3480 -1.1457  0.4802
  159MOL   H20238438   0.702   4.077   4.044  0.4956  1.8456  0.5222
  159MOL   H20338439   0.888   4.114   3.676 -1.7310  0.0051 -3.5706
  159MOL   H20438440   0.758   4.009   3.627 -1.3648 -0.4220  1.3886
  159MOL   H20538441   0.887   3.934   3.719 -0.8652 -1.0947 -0.6339
  159MOL   C20638442   0.622   4.276   4.030  0.0818  0.5516 -0.7940
  159MOL   C20738443   0.611   4.304   4.184 -0.0660  0.6696  0.9205
  159MOL   C20838444   0.733   4.259   4.261  0.8945  0.5578 -0.2729
  159MOL   O20938445   0.722   4.195   4.364 -0.5520 -0.2565 -0.1125
  159MOL   O21038446   0.843   4.290   4.191  0.2900 -0.4438  0.3130
  159MOL   C21138447   0.965   4.255   4.243  0.3974  0.3667 -0.4033
  159MOL   H21238448   0.712   4.321   3.989  2.1587 -0.3921  2.6134
  159MOL   H21338449   0.541   4.322   3.973 -0.5653 -0.6665 -0.8698
  159MOL   H21438450   0.532   4.238   4.219  0.7983 -0.2753  1.1293
  159MOL   H21538451   1.029   4.246   4.156 -1.3303  0.0570 -1.6602
  159MOL   H21638452   0.956   4.160   4.295  1.7074 -0.1303 -1.0734
  159MOL   H21738453   1.002   4.331   4.313 -0.1520 -1.7483  2.2869
  159MOL   C21838454   0.564   4.446   4.225 -0.0268 -0.5499  0.2534
  159MOL   C21938455   0.430   4.492   4.152 -0.7354  1.0473  0.1890
  159MOL   C22038456   0.325   4.377   4.147  0.4126 -0.0103  0.1397
  159MOL   O22138457   0.299   4.309   4.046  0.0130  0.5557 -0.1012
  159MOL   O22238458   0.261   4.361   4.263  0.4041 -0.0115 -0.5232
  159MOL   C22338459   0.160   4.261   4.273 -0.3112  0.5725 -0.2326
  159MOL   H22438460   0.535   4.448   4.330  0.6137  0.6793  0.4059
  159MOL   H22538461   0.645   4.518   4.218  2.1010 -2.5832  2.8544
  159MOL   H22638462   0.447   4.511   4.046 -2.1541  0.3685 -0.1757
  159MOL   H22738463   0.205   4.170   4.233  1.0847  1.9344 -1.8492
  159MOL   H22838464   0.077   4.266   4.202  0.0934 -0.6643 -0.8050
  159MOL   H22938465   0.136   4.248   4.378 -0.1895 -1.4951 -0.4326
  159MOL   C23038466   0.371   4.625   4.214 -0.0761  1.0299 -0.0232
  159MOL   C23138467   0.411   4.742   4.140 -0.2313 -0.7982  0.1852
  159MOL   C23238468   0.319   4.771   4.025 -0.6125  0.2447 -1.2496
  159MOL   O23338469   0.330   4.706   3.924  0.5548  0.1221 -0.6248
  159MOL   O23438470   0.242   4.882   4.045  0.2310 -1.2948 -0.5558
  159MOL   C23538471   0.163   4.922   3.934  0.5895 -0.7259  0.4339
  159MOL   H23638472   0.264   4.611   4.223  0.2180 -1.3091  0.2011
  159MOL   H23738473   0.415   4.640   4.313  1.2903  1.2839 -0.6484
  159MOL   H23838474   0.518   4.737   4.120 -0.1409  3.9427 -1.1042
  159MOL   H23938475   0.098   5.008   3.950 -1.5695 -2.2630  0.0951
  159MOL   H24038476   0.105   4.840   3.893 -1.9369  0.3510  1.7747
  159MOL   H24138477   0.233   4.952   3.855  0.5066 -1.0328  0.2435
  159MOL   H24238478   0.413   4.826   4.209 -0.3659 -1.1651  0.6354
  160MOL     C138479   0.005   7.304   4.562 -0.1111  0.0651 -0.2724
  160MOL     C238480   0.047   7.195   4.667  0.2589 -0.2462  0.0166
  160MOL     C338481   7.885   7.074   4.650  0.1248  0.5006  0.5680
  160MOL     O438482   7.848   7.028   4.544  0.1601 -0.1035 -0.0416
  160MOL     O538483   7.837   7.022   4.774  0.3681 -0.1846  0.0703
  160MOL     C638484   7.757   6.905   4.778 -0.4749 -0.0352 -0.0392
  160MOL     H738485   7.830   7.311   4.555 -0.1533  1.1724  1.3473
  160MOL     H838486   0.032   7.278   4.459 -0.7278 -0.4253 -0.3106
  160MOL     H938487   0.013   7.243   4.760 -0.7252 -1.5160  0.3237
  160MOL    H1038488   7.686   6.909   4.695  0.7403  2.0881 -1.0281
  160MOL    H1138489   7.704   6.897   4.872  0.7415 -1.5517  0.5362
  160MOL    H1238490   7.831   6.826   4.766 -0.1444  0.2087  0.3652
  160MOL    H1338491   0.053   7.399   4.585 -1.1418  0.0744  1.9484
  160MOL    C1438492   0.196   7.154   4.667 -0.0663 -0.1082 -0.3127
  160MOL    C1538493   0.304   7.263   4.704  0.5943  0.2780 -1.2741
  160MOL    C1638494   0.268   7.356   4.823 -1.1163 -0.6674  0.8027
  160MOL    O1738495   0.258   7.479   4.813  0.4435  0.1949 -0.3934
  160MOL    O1838496   0.235   7.285   4.929 -0.2434  0.8655 -0.4220
  160MOL    C1938497   0.200   7.344   5.050  0.0155 -0.2885 -0.0160
  160MOL    H2038498   0.222   7.077   4.739  0.6129 -0.5190 -0.9765
  160MOL    H2138499   0.209   7.108   4.569  1.2695 -1.3069  0.4048
  160MOL    H2238500   0.293   7.328   4.618  0.4149  2.0197  0.0430
  160MOL    H2338501   0.280   7.415   5.074  0.1315 -0.8537  1.3297
  160MOL    H2438502   0.187   7.273   5.132 -0.5567  0.4721  0.5604
  160MOL    H2538503   0.104   7.395   5.050  0.9449  1.5106 -0.1412
  160MOL    C2638504   0.451   7.211   4.711  0.2408 -0.4589  0.2236
  160MOL    C2738505   0.506   7.159   4.582 -0.1015 -0.0768  0.3523
  160MOL    C2838506   0.501   7.257   4.469  0.5496 -0.7157  0.3369
  160MOL    O2938507   0.430   7.243   4.370  0.0386 -0.6368 -0.1116
  160MOL    O3038508   0.566   7.369   4.497  0.0868  0.2947 -0.1404
  160MOL    C3138509   0.549   7.489   4.428 -0.0368  0.4790  0.0889
  160MOL    H3238510   0.521   7.285   4.750 -0.8428  1.2490 -1.0358
  160MOL    H3338511   0.458   7.137   4.791  1.4255 -0.7067 -0.1004
  160MOL    H3438512   0.439   7.077   4.557 -1.3174  1.0110 -0.0418
  160MOL    H3538513   0.442   7.496   4.406 -0.6686 -2.3733  1.9535
  160MOL    H3638514   0.601   7.507   4.334 -2.2474 -0.2086 -1.3029
  160MOL    H3738515   0.591   7.572   4.484  1.4092 -1.4887  1.9991
  160MOL    C3838516   0.643   7.090   4.577  0.8638 -0.8001 -0.6665
  160MOL    C3938517   0.683   7.007   4.450 -0.1775 -0.3723  0.0898
  160MOL    C4038518   0.821   6.936   4.469  0.0799 -0.1731  0.3227
  160MOL    O4138519   0.861   6.929   4.585  0.2347  0.4160 -0.0913
  160MOL    O4238520   0.881   6.891   4.357  0.2083  0.1089 -0.1507
  160MOL    C4338521   1.002   6.828   4.380 -0.0566 -0.0947  0.3564
  160MOL    H4438522   0.720   7.166   4.587  1.3807 -1.1818 -1.6386
  160MOL    H4538523   0.652   7.025   4.664 -0.8398 -0.0659  0.0805
  160MOL    H4638524   0.708   7.080   4.373 -1.0026  2.4304  2.3983
  160MOL    H4738525   1.090   6.888   4.403  0.5664 -0.6494 -0.5447
  160MOL    H4838526   1.028   6.772   4.290  0.5782 -0.7829  0.9547
  160MOL    H4938527   0.993   6.757   4.462  0.6736 -0.7443 -0.1214
  160MOL    C5038528   0.572   6.903   4.408  0.0430  0.1508  0.5282
  160MOL    C5138529   0.497   6.940   4.280 -0.2087  0.2271 -0.5371
  160MOL    C5238530   0.572   6.886   4.153  0.0206 -0.3295 -0.1580
  160MOL    O5338531   0.633   6.964   4.076 -0.3391 -0.3038 -0.0439
  160MOL    O5438532   0.545   6.757   4.137  0.0716  0.6936 -0.0765
  160MOL    C5538533   0.589   6.689   4.025  0.6415  0.6861  0.2789
  160MOL    H5638534   0.617   6.804   4.401 -1.3831 -0.4747  0.0995
  160MOL    H5738535   0.502   6.906   4.491  1.1148  1.1503  1.4205
  160MOL    H5838536   0.510   7.048   4.273 -1.0294  0.3832  0.2298
  160MOL    H5938537   0.581   6.757   3.941  0.8635 -1.0182 -1.1446
  160MOL    H6038538   0.513   6.614   4.003  0.4728  1.1121 -0.6219
  160MOL    H6138539   0.686   6.640   4.036  1.0521  1.6969  1.3129
  160MOL    C6238540   0.349   6.903   4.309  0.2843 -0.2786 -0.5085
  160MOL    C6338541   0.250   6.892   4.186  0.3613 -0.1539  0.3512
  160MOL    C6438542   0.226   6.740   4.151 -0.6607  0.5337  0.3324
  160MOL    O6538543   0.256   6.693   4.041 -0.5090 -0.5208  0.0052
  160MOL    O6638544   0.181   6.665   4.256  0.1668  0.4211  0.0771
  160MOL    C6738545   0.167   6.521   4.234 -0.2344 -0.1540  0.1059
  160MOL    H6838546   0.340   6.807   4.359  0.0831 -0.1860 -0.3675
  160MOL    H6938547   0.321   6.983   4.378 -0.6124 -2.2531  1.4759
  160MOL    H7038548   0.286   6.923   4.088 -0.6741  1.5152  0.4743
  160MOL    H7138549   0.101   6.514   4.147 -0.1143 -2.7067  0.1763
  160MOL    H7238550   0.101   6.471   4.304  0.1532  2.8633  2.7605
  160MOL    H7338551   0.257   6.467   4.204 -0.5294 -0.0794 -0.9165
  160MOL    C7438552   0.109   6.952   4.218 -0.1022 -0.0346 -0.8625
  160MOL    C7538553   7.931   6.942   4.106 -0.8216  0.3323 -0.5400
  160MOL    C7638554   7.795   6.999   4.147  0.5165 -0.2422 -0.0414
  160MOL    O7738555   7.786   7.080   4.242  0.3368  0.1419 -0.3663
  160MOL    O7838556   7.696   6.972   4.061  0.1244 -0.1651  0.1044
  160MOL    C7938557   7.578   7.050   4.068 -0.0382 -0.3561 -0.3468
  160MOL    H8038558   0.063   6.890   4.295  2.0196 -1.6811 -0.8961
  160MOL    H8138559   0.104   7.049   4.268 -1.7911 -0.9218  0.7153
  160MOL    H8238560   7.909   6.836   4.095  1.3190 -0.2054  0.0323
  160MOL    H8338561   7.517   7.026   3.982  2.4465  2.0299 -2.8797
  160MOL    H8438562   7.604   7.156   4.074 -0.2562 -0.1586 -2.6080
  160MOL    H8538563   7.516   7.042   4.158 -0.0867 -0.3019 -0.3753
  160MOL    C8638564   0.038   6.992   3.963  0.1134 -0.3598 -0.3813
  160MOL    C8738565   0.050   7.145   3.940  0.1948  0.9335 -0.5811
  160MOL    C8838566   0.170   7.204   4.020  0.1519 -0.0195 -0.5287
  160MOL    O8938567   0.149   7.304   4.096 -0.4773 -0.4114 -0.0079
  160MOL    O9038568   0.287   7.141   3.993  0.2124  0.3858  0.1820
  160MOL    C9138569   0.403   7.182   4.057 -0.2996 -0.8134 -0.2437
  160MOL    H9238570   0.125   6.935   3.931 -0.2373 -0.9144 -0.3593
  160MOL    H9338571   7.896   6.954   3.893 -1.1522 -1.9704  1.7947
  160MOL    H9438572   7.895   7.201   3.972  0.9968  1.0726  1.4389
  160MOL    H9538573   0.429   7.287   4.041 -1.0628 -0.4539  0.7995
  160MOL    H9638574   0.488   7.122   4.025  1.2620  2.0054 -1.5083
  160MOL    H9738575   0.390   7.163   4.164 -0.7344 -0.1254 -0.1710
  160MOL    C9838576   0.079   7.170   3.792  0.5148  0.3092  0.2653
  160MOL    C9938577   0.038   7.303   3.729  1.2933 -0.0107  0.0239
  160MOL   C10038578   0.126   7.417   3.778  0.1022 -0.3899 -0.9458
  160MOL   O10138579   0.237   7.438   3.732  0.6363 -0.2747 -0.0686
  160MOL   O10238580   0.065   7.492   3.881 -0.4157  0.7773  0.1266
  160MOL   C10338581   0.152   7.583   3.938  0.0873  0.5387 -0.8281
  160MOL   H10438582   0.186   7.150   3.782  0.4258  0.6993 -1.6925
  160MOL   H10538583   0.019   7.098   3.738 -2.4985  2.1590  0.9992
  160MOL   H10638584   7.873   7.331   3.768  0.1552 -0.1945 -2.5860
  160MOL   H10738585   0.218   7.635   3.867  1.1234  1.5807  0.8563
  160MOL   H10838586   0.189   7.535   4.028  0.1060 -0.6706 -1.4774
  160MOL   H10938587   0.100   7.672   3.972 -1.1027  0.4373 -2.3238
  160MOL   C11038588   0.023   7.302   3.577 -0.1988 -0.0333 -0.2773
  160MOL   C11138589   7.901   7.422   3.489  0.2315  0.6305  0.1263
  160MOL   C11238590   7.906   7.394   3.336 -0.4487  0.0671 -0.3673
  160MOL   O11338591   0.009   7.286   3.285 -0.9024 -0.6367  0.4267
  160MOL   O11438592   7.881   7.505   3.272 -0.2040  0.8657  0.0186
  160MOL   C11538593   7.901   7.514   3.132 -0.3854  0.2152  0.1215
  160MOL   H11638594   0.118   7.272   3.535 -1.0030 -1.4866 -1.1001
  160MOL   H11738595   7.893   7.216   3.556  2.1299 -1.7485 -0.3775
  160MOL   H11838596   0.040   7.502   3.506  0.0110  1.0860 -1.0877
  160MOL   H11938597   7.833   7.455   3.071 -1.1159  0.3729  0.7770
  160MOL   H12038598   0.073   7.490   3.111 -0.8385  0.3146 -2.3985
  160MOL   H12138599   7.887   7.620   3.109 -1.8963  0.7071  2.9940
  160MOL   C12238600   7.759   7.460   3.530  0.2379 -0.1322  0.2154
  160MOL   C12338601   7.751   7.575   3.634  0.0553 -0.5467 -0.4217
  160MOL   C12438602   7.811   7.699   3.584  0.4618 -0.4347  0.5904
  160MOL   O12538603   7.916   7.736   3.631  0.1424  0.2776  0.6624
  160MOL   O12638604   7.722   7.758   3.500 -0.0516  0.5187  0.2015
  160MOL   C12738605   7.773   7.856   3.413  0.6269 -0.1457 -0.7258
  160MOL   H12838606   7.697   7.493   3.447 -0.6559 -0.2921  0.8144
  160MOL   H12938607   7.706   7.373   3.569 -3.0132  2.7226  2.5178
  160MOL   H13038608   7.812   7.554   3.722 -0.4757  0.3843  0.1746
  160MOL   H13138609   7.693   7.878   3.342  0.6536 -1.4487 -1.1720
  160MOL   H13238610   7.857   7.808   3.363 -0.3257 -1.4192 -1.1378
  160MOL   H13338611   7.813   0.015   3.457 -0.5375 -0.0433  0.1718
  160MOL   C13438612   7.608   7.596   3.695  0.4189  0.4641  0.0875
  160MOL   C13538613   7.597   7.702   3.806  0.1438 -0.6449  0.1538
  160MOL   C13638614   7.451   7.738   3.823 -0.7590 -0.5086  0.5035
  160MOL   O13738615   7.412   7.853   3.790 -0.2861  0.3713  0.1767
  160MOL   O13838616   7.369   7.636   3.861 -0.8432  0.2883 -0.2885
  160MOL   C13938617   7.232   7.655   3.888 -0.2975  0.0589 -0.2385
  160MOL   H14038618   7.538   7.622   3.616  2.2800  0.9110 -1.4314
  160MOL   H14138619   7.588   7.496   3.736 -0.1028  0.3954 -0.3198
  160MOL   H14238620   7.639   7.793   3.762 -1.4769  0.3689  0.6678
  160MOL   H14338621   7.176   7.680   3.798 -3.3374 -1.5758  1.1121
  160MOL   H14438622   7.226   7.730   3.967  1.8370 -2.6129  2.5994
  160MOL   H14538623   7.204   7.568   3.949  0.6166  1.3171  2.0221
  160MOL   C14638624   7.667   7.653   3.934 -0.5889  0.3434 -0.1229
  160MOL   C14738625   7.654   7.736   4.064 -0.3985 -0.4488  0.6150
  160MOL   C14838626   7.752   7.674   4.167 -0.5018  0.3691  0.1692
  160MOL   O14938627   7.869   7.718   4.180  1.1020  0.0149  0.2959
  160MOL   O15038628   7.698   7.565   4.237  0.3151 -0.0335 -0.0906
  160MOL   C15138629   7.793   7.502   4.322  0.8748 -0.0641  0.7556
  160MOL   H15238630   7.638   7.550   3.954  2.3985 -0.7620 -1.1068
  160MOL   H15338631   7.772   7.642   3.907 -0.3357 -2.6643  1.8691
  160MOL   H15438632   7.554   7.712   4.099 -0.7292 -0.5467 -0.3646
  160MOL   H15538633   7.814   7.556   4.414  1.0481 -0.3420  0.8788
  160MOL   H15638634   7.885   7.484   4.267 -0.0335  2.1197 -1.6059
  160MOL   H15738635   7.748   7.405   4.345 -0.9868 -0.1604 -2.8999
  160MOL   C15838636   7.658   7.886   4.044 -0.0092 -0.3031  0.2639
  160MOL   C15938637   7.622   0.050   4.164  0.1825  0.6549  0.0695
  160MOL   C16038638   7.518   0.000   4.267  0.1944  0.7255  0.6948
  160MOL   O16138639   7.558   7.867   4.362  0.2990  0.1246 -0.2350
  160MOL   O16238640   7.390   0.014   4.235 -0.0878  0.1515 -0.1559
  160MOL   C16338641   7.303   7.920   4.338  0.7185 -0.5181  0.2532
  160MOL   H16438642   7.764   7.903   4.022  0.1530 -0.1238  1.1384
  160MOL   H16538643   7.605   7.928   3.959  1.0438  0.1619 -0.1731
  160MOL   H16638644   7.558   0.133   4.131 -0.5713 -0.3222 -0.9750
  160MOL   H16738645   7.202   0.006   4.300  0.9138  1.8511  0.8331
  160MOL   H16838646   7.308   0.063   4.416  2.1235  0.5184 -0.8319
  160MOL   H16938647   7.310   7.821   4.383  0.4973  0.3337  2.2159
  160MOL   C17038648   7.749   0.105   4.243 -0.7517  0.4535  0.0521
  160MOL   C17138649   7.844   0.199   4.160  0.1340 -0.2909  0.3947
  160MOL   C17238650   7.776   0.327   4.110  0.3560 -0.0021 -0.7383
  160MOL   O17338651   7.686   0.376   4.179 -0.4717  0.2672 -0.8173
  160MOL   O17438652   7.810   0.380   4.002  0.2605 -0.3461 -0.0436
  160MOL   C17538653   7.754   0.501   3.962  0.5558 -0.1802 -0.6388
  160MOL   H17638654   7.713   0.164   4.327 -2.0880  1.8142 -1.4472
  160MOL   H17738655   7.806   0.020   4.282 -3.2071 -1.1519  0.2566
  160MOL   H17838656   7.873   0.164   4.061 -2.2601  1.5124 -1.0112
  160MOL   H17938657   7.772   0.537   3.861 -0.9591  3.0002  0.1392
  160MOL   H18038658   7.799   0.579   4.024 -1.0602 -0.2719  0.6651
  160MOL   H18138659   7.649   0.513   3.987  0.6998 -2.6417  1.2828
  160MOL   C18238660   0.039   0.225   4.247 -0.3093 -0.3219  0.0139
  160MOL   C18338661   0.152   0.131   4.211  0.3251 -0.5100  0.3527
  160MOL   C18438662   0.200   0.151   4.063  0.1409  0.5829  0.5960
  160MOL   O18538663   0.192   0.062   3.984 -0.0275 -0.3005 -0.0304
  160MOL   O18638664   0.243   0.276   4.035  0.1909  0.5732  0.0659
  160MOL   C18738665   0.310   0.296   3.914 -0.5343 -0.6338 -0.2060
  160MOL   H18838666   0.078   0.325   4.227  1.1579 -0.9693 -0.4377
  160MOL   H18938667   0.020   0.225   4.354  2.4814  1.0765  0.5592
  160MOL   H19038668   0.103   0.034   4.212 -1.4400  0.3659  0.1193
  160MOL   H19138669   0.399   0.233   3.908 -0.4574 -0.5513  0.0827
  160MOL   H19238670   0.329   0.404   3.910 -1.0542 -0.4705  1.3657
  160MOL   H19338671   0.256   0.268   3.823  1.9232  0.2181 -1.9999
  160MOL   C19438672   0.264   0.130   4.319  0.2285 -0.1644  0.1792
  160MOL   C19538673   0.341   7.931   4.323 -0.1796  0.0386 -0.3885
  160MOL   C19638674   0.460   7.928   4.224  0.1759  0.0316  0.7424
  160MOL   O19738675   0.500   0.081   4.150  0.0133  0.0986  0.3022
  160MOL   O19838676   0.507   7.805   4.219  0.3435  0.1182  0.1664
  160MOL   C19938677   0.607   7.777   4.131  0.0972  0.2291 -0.0862
  160MOL   H20038678   0.330   0.216   4.327 -1.4593  1.1726  0.0295
  160MOL   H20138679   0.207   0.132   4.412 -0.4706 -1.6381 -0.1877
  160MOL   H20238680   0.281   7.848   4.287 -0.2377 -0.0397 -0.1165
  160MOL   H20338681   0.695   7.756   4.192  0.1104  1.8780  0.4993
  160MOL   H20438682   0.629   7.853   4.056 -2.2769 -1.2591 -2.3729
  160MOL   H20538683   0.571   7.688   4.080 -0.0352  0.1442  0.1550
  160MOL   C20638684   0.396   7.903   4.467  0.6655 -0.2189 -0.3970
  160MOL   C20738685   0.300   7.841   4.565  0.5197 -1.0698 -0.4624
  160MOL   C20838686   0.212   7.732   4.495 -0.5101  0.3205 -0.7532
  160MOL   O20938687   0.090   7.731   4.500 -0.0815  0.1836 -0.0836
  160MOL   O21038688   0.283   7.648   4.414  0.4688  0.2188  1.1108
  160MOL   C21138689   0.211   7.551   4.338 -0.0446 -0.3648 -0.4278
  160MOL   H21238690   0.468   7.824   4.446  1.0640  0.0485 -0.0450
  160MOL   H21338691   0.447   0.053   4.516 -1.0082  0.6867 -0.1772
  160MOL   H21438692   0.232   7.925   4.576  1.9367  0.2055 -1.1616
  160MOL   H21538693   0.138   7.499   4.399  0.7983 -0.0793  0.8454
  160MOL   H21638694   0.275   7.473   4.297  1.8913  1.3626 -0.7775
  160MOL   H21738695   0.164   7.590   4.247 -0.1450  0.4515 -0.0251
  160MOL   C21838696   0.368   7.789   4.690 -0.0381  0.8992 -0.4964
  160MOL   C21938697   0.434   7.880   4.796  0.2403 -0.0458 -0.3274
  160MOL   C22038698   0.346   0.072   4.828  0.4289  0.0260 -1.1411
  160MOL   O22138699   0.329   0.161   4.746  0.6345 -0.2195  0.3818
  160MOL   O22238700   0.274   0.060   4.937  0.2233  0.0865 -0.2460
  160MOL   C22338701   0.208   0.173   4.987 -0.4199  0.4573 -0.2888
  160MOL   H22438702   0.305   7.717   4.742  0.5207  0.9096  0.2155
  160MOL   H22538703   0.450   7.721   4.667 -1.3753 -0.4776 -1.2555
  160MOL   H22638704   0.528   7.912   4.752 -0.8978 -0.8647 -3.4306
  160MOL   H22738705   0.263   0.211   5.073  0.1319 -0.2710 -0.3132
  160MOL   H22838706   0.109   0.133   5.006 -0.0912 -0.7700 -1.0586
  160MOL   H22938707   0.205   0.262   4.924  0.9085  0.5119 -0.2924
  160MOL   C23038708   0.490   7.803   4.920 -0.1329  0.1135 -0.7230
  160MOL   C23138709   0.647   7.819   4.941 -0.4206 -0.1646  0.2087
  160MOL   C23238710   0.691   0.026   4.990  0.1240 -0.6295 -0.7387
  160MOL   O23338711   0.621   0.126   4.986  0.0265  0.2044  0.2640
  160MOL   O23438712   0.814   0.016   5.054  0.0967 -0.2368  0.1227
  160MOL   C23538713   0.879   0.134   5.103  0.3387  0.2425 -0.6067
  160MOL   H23638714   0.447   7.848   5.010 -1.0192 -1.8826 -0.1220
  160MOL   H23738715   0.442   7.705   4.929 -0.8288  0.3497 -1.8130
  160MOL   H23838716   0.695   7.803   4.845  1.0897  2.0360  0.5620
  160MOL   H23938717   0.810   0.190   5.167  0.2719 -1.6812  1.0618
  160MOL   H24038718   0.905   0.192   5.014 -2.7301 -0.2175 -1.8946
  160MOL   H24138719   0.974   0.115   5.153  1.8080  1.3828 -2.8807
  160MOL   H24238720   0.678   7.760   5.027  1.2727  1.1871  0.5561
  161MOL     C138721   7.529   4.386   4.437  0.0959 -0.1717  0.1195
  161MOL     C238722   7.678   4.392   4.395  0.7570 -0.1776 -0.7194
  161MOL     C338723   7.706   4.276   4.302 -0.8238  0.2698  0.3324
  161MOL     O438724   7.795   4.191   4.324  0.6121  0.0513 -0.0637
  161MOL     O538725   7.629   4.284   4.189 -0.5325 -0.1725 -0.1682
  161MOL     C638726   7.653   4.200   4.078  0.1158 -0.0696 -0.1484
  161MOL     H738727   7.511   4.444   4.528 -0.9232  0.2490 -0.3396
  161MOL     H838728   7.490   4.285   4.447 -0.7255  0.1461  0.1423
  161MOL     H938729   7.737   4.368   4.483  2.2513  1.3842 -1.2777
  161MOL    H1038730   7.671   4.099   4.113  0.5236 -0.0601 -0.3365
  161MOL    H1138731   7.749   4.232   4.038 -0.4065  1.0934 -0.4966
  161MOL    H1238732   7.586   4.213   3.993  1.3775 -0.3114 -1.1798
  161MOL    H1338733   7.465   4.431   4.361  0.5645  0.4081  0.0659
  161MOL    C1438734   7.707   4.530   4.338  0.5553 -0.0760  0.5412
  161MOL    C1538735   7.863   4.557   4.335 -0.1565 -1.3135 -0.0153
  161MOL    C1638736   7.909   4.613   4.198  0.3803  0.2015  1.2454
  161MOL    O1738737   7.928   4.732   4.174  0.4137 -0.2279 -0.1114
  161MOL    O1838738   7.912   4.517   4.102  0.3682 -0.3433 -0.6644
  161MOL    C1938739   0.045   4.533   3.974 -0.6795 -0.8320 -0.2447
  161MOL    H2038740   7.663   4.527   4.238  0.3181  2.1024  0.5482
  161MOL    H2138741   7.649   4.610   4.384 -2.6513 -0.9671 -1.7436
  161MOL    H2238742   7.905   4.457   4.345  0.5809 -0.9805  0.1626
  161MOL    H2338743   0.009   4.629   3.936 -1.1722 -0.5924  0.8133
  161MOL    H2438744   0.049   4.451   3.903  0.6690 -0.8819 -0.1240
  161MOL    H2538745   0.146   4.538   4.015 -1.1853  1.8267  0.8042
  161MOL    C2638746   7.912   4.654   4.452  0.4039 -0.9892  0.7133
  161MOL    C2738747   7.902   4.605   4.599 -0.3680 -0.1270  0.1332
  161MOL    C2838748   0.044   4.472   4.618  0.2126  0.4222 -0.8816
  161MOL    O2938749   0.132   4.429   4.540  0.1153  0.3510  0.1670
  161MOL    O3038750   0.021   4.410   4.738  0.6964  0.2038  0.4238
  161MOL    C3138751   0.097   4.296   4.779 -0.6824 -0.7501 -0.4006
  161MOL    H3238752   0.082   4.686   4.432 -0.0656 -1.2383 -2.3930
  161MOL    H3338753   7.854   4.747   4.449  0.5053 -0.9520 -2.3173
  161MOL    H3438754   7.796   4.593   4.622 -0.5962 -2.4495 -1.8687
  161MOL    H3538755   0.204   4.316   4.777 -1.0155  1.0530 -0.5694
  161MOL    H3638756   0.074   4.215   4.710 -0.4567  0.0623 -1.4302
  161MOL    H3738757   0.050   4.263   4.873 -1.0445  0.3063 -0.2016
  161MOL    C3838758   0.033   4.713   4.695 -0.2673  0.1830 -0.0267
  161MOL    C3938759   7.899   4.860   4.702  0.2028 -0.0654  0.1104
  161MOL    C4038760   7.756   4.847   4.767 -0.8702  0.1057 -0.1129
  161MOL    O4138761   7.741   4.883   4.884 -0.4952  0.3301 -0.2029
  161MOL    O4238762   7.680   4.777   4.689 -0.3820 -0.0552 -0.2701
  161MOL    C4338763   7.546   4.749   4.729  0.3409  0.2325 -0.3323
  161MOL    H4438764   0.052   4.678   4.796 -1.9367  1.8884  0.9034
  161MOL    H4538765   0.134   4.717   4.653 -0.4693 -1.8049 -0.7745
  161MOL    H4638766   7.878   4.890   4.599 -0.3782 -0.6327  0.0614
  161MOL    H4738767   7.553   4.659   4.790  1.7359  0.5627 -0.0025
  161MOL    H4838768   7.483   4.737   4.641  0.6361  0.9460 -0.6460
  161MOL    H4938769   7.505   4.824   4.797 -0.6466 -2.3295  1.9768
  161MOL    C5038770   0.058   4.961   4.761 -0.8032 -0.3570  0.1773
  161MOL    C5138771   0.089   5.083   4.675  0.9610  0.1503 -0.3399
  161MOL    C5238772   0.179   5.046   4.559 -0.1983 -0.0473  0.8583
  161MOL    O5338773   0.295   5.078   4.558 -0.3759 -0.4352  0.3558
  161MOL    O5438774   0.121   4.997   4.442  0.2571 -0.2582  0.1603
  161MOL    C5538775   0.199   4.985   4.320  0.3102 -0.3627  0.3400
  161MOL    H5638776   0.021   4.984   4.861 -1.6554 -0.9938  0.0067
  161MOL    H5738777   0.154   4.910   4.771 -0.0876  0.7706 -0.7734
  161MOL    H5838778   0.159   5.144   4.731  0.8732 -1.0909  1.1538
  161MOL    H5938779   0.124   4.936   4.258  0.1757 -1.5785  1.4455
  161MOL    H6038780   0.288   4.924   4.335  0.2201 -0.0170  2.4804
  161MOL    H6138781   0.224   5.079   4.270  0.2735 -0.2826  0.4699
  161MOL    C6238782   7.889   5.167   4.636 -0.3384  1.0147 -0.3289
  161MOL    C6338783   7.917   5.316   4.619 -0.4775 -0.0244  0.4369
  161MOL    C6438784   0.045   5.384   4.746 -0.1637  0.4085 -0.6603
  161MOL    O6538785   0.089   5.499   4.741  0.0783 -0.7275 -0.2234
  161MOL    O6638786   0.033   5.320   4.859  0.4025 -0.0891  0.1593
  161MOL    C6738787   0.120   5.358   4.966  0.2249 -0.3431  0.0329
  161MOL    H6838788   7.849   5.130   4.542 -1.3145  0.9697  0.1037
  161MOL    H6938789   7.812   5.142   4.709  0.7202 -0.8498  0.2002
  161MOL    H7038790   7.821   5.368   4.608  1.1831  3.1022  0.1137
  161MOL    H7138791   0.077   5.317   5.057 -3.2975  0.7828 -1.0458
  161MOL    H7238792   0.122   5.466   4.978 -0.4927 -0.3276  0.0377
  161MOL    H7338793   0.213   5.302   4.956  0.5346  0.4077 -1.5270
  161MOL    C7438794   0.069   5.346   4.490  0.0964 -0.0579 -0.0019
  161MOL    C7538795   0.006   5.471   4.418  0.7088  0.2966  0.4265
  161MOL    C7638796   0.111   5.563   4.348 -0.1772  0.2802  0.5464
  161MOL    O7738797   0.102   5.578   4.225 -0.2931  0.2576 -0.1493
  161MOL    O7838798   0.205   5.614   4.429 -0.2380  0.3579  0.0156
  161MOL    C7938799   0.328   5.680   4.373  0.5346 -0.0571 -0.8690
  161MOL    H8038800   0.174   5.360   4.516  0.1522  0.9511 -0.7314
  161MOL    H8138801   0.068   5.256   4.429  0.3683  0.3445 -0.6107
  161MOL    H8238802   7.888   5.540   4.485  0.1053 -1.1948  1.5474
  161MOL    H8338803   0.297   5.739   4.287 -0.4218  1.4776  0.5144
  161MOL    H8438804   0.395   5.605   4.331 -0.7630 -1.2786 -0.7941
  161MOL    H8538805   0.386   5.745   4.438  1.2319 -0.2476 -1.2970
  161MOL    C8638806   7.837   5.412   4.316 -0.4399 -0.6579 -0.0690
  161MOL    C8738807   7.722   5.508   4.267 -0.2079  0.0697  0.2352
  161MOL    C8838808   7.641   5.464   4.145 -0.7992 -0.5431 -0.1538
  161MOL    O8938809   7.618   5.550   4.055  0.2423  0.2104  0.0355
  161MOL    O9038810   7.587   5.342   4.155  0.1626  0.2142 -0.2101
  161MOL    C9138811   7.517   5.283   4.047  0.3250  0.2150  0.4696
  161MOL    H9238812   7.890   5.382   4.226 -0.3057 -1.6750  0.3503
  161MOL    H9338813   7.782   5.327   4.357  0.5578 -1.7105 -0.9028
  161MOL    H9438814   7.782   5.592   4.234 -1.3595  0.1431 -1.7668
  161MOL    H9538815   7.436   5.221   4.084 -0.0516 -0.8723 -2.1230
  161MOL    H9638816   7.595   5.233   3.989  0.0146  0.1560  0.1048
  161MOL    H9738817   7.471   5.365   3.992  1.2420 -1.1336 -2.3926
  161MOL    C9838818   7.621   5.558   4.371  0.1143  0.1134  0.3188
  161MOL    C9938819   7.635   5.703   4.415  0.2147 -0.8210 -0.0164
  161MOL   C10038820   7.588   5.796   4.301 -0.0400 -0.5542 -0.2194
  161MOL   O10138821   7.663   5.879   4.252 -0.0038 -0.1022 -0.0520
  161MOL   O10238822   7.459   5.778   4.268 -0.0757 -0.1042  0.3342
  161MOL   C10338823   7.407   5.865   4.163  0.0941  0.2677 -0.3134
  161MOL   H10438824   7.521   5.527   4.342  0.6436 -0.3732 -1.0219
  161MOL   H10538825   7.647   5.499   4.460  0.2568 -2.0971 -1.1397
  161MOL   H10638826   7.737   5.737   4.429  0.4314 -1.5169  0.1105
  161MOL   H10738827   7.298   5.854   4.161  0.0238  0.7716  0.7267
  161MOL   H10838828   7.447   5.839   4.065 -0.5565 -1.3282 -0.1711
  161MOL   H10938829   7.433   5.970   4.171 -1.1497  0.5139  0.6741
  161MOL   C11038830   7.565   5.724   4.549 -0.1575  0.7346 -0.2890
  161MOL   C11138831   7.581   5.862   4.610 -0.1974 -0.1460  0.5641
  161MOL   C11238832   7.475   5.892   4.715  0.3786  0.9834 -0.0200
  161MOL   O11338833   7.428   6.004   4.728 -0.2037  0.6841  0.0350
  161MOL   O11438834   7.442   5.787   4.789 -0.3838 -0.2658 -0.1798
  161MOL   C11538835   7.355   5.803   4.908 -0.7341 -0.4914 -0.5471
  161MOL   H11638836   7.461   5.692   4.539  0.1765 -0.7763  0.8464
  161MOL   H11738837   7.604   5.657   4.626  0.7840  1.4836 -0.1089
  161MOL   H11838838   7.586   5.922   4.519  1.8359 -1.6114 -0.3134
  161MOL   H11938839   7.379   5.894   4.962 -1.7766  0.3030 -1.4096
  161MOL   H12038840   7.367   5.715   4.971 -0.8586  0.0595  0.2454
  161MOL   H12138841   7.256   5.818   4.865 -1.2160 -0.7965  0.4408
  161MOL   C12238842   7.717   5.870   4.687  0.5358  0.1870 -0.7763
  161MOL   C12338843   7.797   6.002   4.688  0.8080  0.3607 -0.2942
  161MOL   C12438844   7.848   6.042   4.549 -0.1869  0.4671 -0.0185
  161MOL   O12538845   7.824   6.148   4.493 -0.3360  0.1432  0.4077
  161MOL   O12638846   7.930   5.948   4.492  0.1346 -0.5997  0.2974
  161MOL   C12738847   0.052   5.973   4.367 -0.3916 -0.0347  0.8100
  161MOL   H12838848   7.694   5.839   4.789  1.3560  2.1497  0.0361
  161MOL   H12938849   7.778   5.784   4.662  0.2379  0.3658 -2.1740
  161MOL   H13038850   7.892   5.982   4.737 -0.0364  1.3726  1.7777
  161MOL   H13138851   0.113   6.062   4.354  1.7063 -1.6293 -0.7455
  161MOL   H13238852   7.911   5.979   4.288  1.3624 -1.4254 -0.9932
  161MOL   H13338853   0.104   5.885   4.328  0.8555  0.6032  0.9969
  161MOL   C13438854   7.716   6.118   4.754 -0.2920 -0.5118 -0.3021
  161MOL   C13538855   7.783   6.250   4.784 -0.3963  0.1256 -0.0699
  161MOL   C13638856   7.671   6.358   4.780 -0.1936 -0.5060  0.0221
  161MOL   O13738857   7.609   6.382   4.881 -0.2841  0.0624  0.2052
  161MOL   O13838858   7.657   6.417   4.659 -0.8050 -0.0312 -0.1287
  161MOL   C13938859   7.579   6.531   4.646  0.3270 -0.4891 -0.2711
  161MOL   H14038860   7.633   6.137   4.687  0.3553  1.4730 -0.5641
  161MOL   H14138861   7.666   6.076   4.842  0.1807 -2.3240 -0.8766
  161MOL   H14238862   7.847   6.277   4.700 -2.4779  0.8549 -1.4310
  161MOL   H14338863   7.630   6.626   4.636 -0.7740  0.3455  1.8732
  161MOL   H14438864   7.503   6.538   4.723 -0.7208 -0.5772 -1.2704
  161MOL   H14538865   7.523   6.523   4.552 -0.8000  1.4604  0.2084
  161MOL   C14638866   7.869   6.256   4.911 -0.5567 -0.0502 -0.9408
  161MOL   C14738867   0.038   6.373   4.939  0.2296 -0.2491  0.5360
  161MOL   C14838868   7.924   6.519   4.952  0.0587 -0.1703  0.2095
  161MOL   O14938869   0.015   6.600   4.871 -0.0377 -0.4916  0.0707
  161MOL   O15038870   7.837   6.532   5.051  0.1342  0.5181 -0.4448
  161MOL   C15138871   7.768   6.654   5.079  0.3409  0.2668 -0.2525
  161MOL   H15238872   7.805   6.252   4.999  0.7681 -0.8887  0.0098
  161MOL   H15338873   7.919   6.159   4.920 -0.5610  0.1341  1.6899
  161MOL   H15438874   0.113   6.368   4.860 -0.7802 -1.4996 -0.3633
  161MOL   H15538875   7.841   6.733   5.094 -3.5987  4.0247  0.1845
  161MOL   H15638876   7.700   6.644   5.164 -0.0427 -0.1372 -0.6045
  161MOL   H15738877   7.700   6.673   4.996  0.5917 -0.3331 -0.5986
  161MOL   C15838878   0.116   6.331   5.069 -1.1096 -0.2946 -0.2178
  161MOL   C15938879   0.235   6.427   5.113  0.0954 -0.3995 -0.2203
  161MOL   C16038880   0.281   6.370   5.253  0.6747 -0.1813  0.5584
  161MOL   O16138881   0.244   6.424   5.356 -0.2258  0.4088  0.0830
  161MOL   O16238882   0.357   6.264   5.252 -0.5507  0.0703 -0.5086
  161MOL   C16338883   0.388   6.194   5.371  1.1297 -0.6277 -0.3835
  161MOL   H16438884   0.048   6.342   5.154 -1.4236 -1.6357 -0.2693
  161MOL   H16538885   0.139   6.225   5.082 -0.6105 -0.3207 -1.2785
  161MOL   H16638886   0.198   6.525   5.143 -0.8415  0.1310 -2.9351
  161MOL   H16738887   0.302   6.145   5.416  0.9384  0.7984  0.8057
  161MOL   H16838888   0.448   6.255   5.439 -1.8062  0.7474  1.0219
  161MOL   H16938889   0.455   6.108   5.356  1.4344 -0.7185  1.3691
  161MOL   C17038890   0.346   6.456   5.014 -0.6031  0.8967  1.1368
  161MOL   C17138891   0.376   6.611   4.993  0.3004  0.0224  0.0190
  161MOL   C17238892   0.431   6.677   5.119  0.4309  0.2160  0.2952
  161MOL   O17338893   0.381   6.777   5.170  0.1940 -0.4521  0.1917
  161MOL   O17438894   0.538   6.607   5.164 -0.1272  0.3169 -0.1854
  161MOL   C17538895   0.595   6.637   5.287 -0.5674  0.3513 -0.8614
  161MOL   H17638896   0.441   6.413   5.048  0.6257  2.4102 -0.2997
  161MOL   H17738897   0.319   6.398   4.926 -1.1244  0.3511  1.6454
  161MOL   H17838898   0.284   6.664   4.968 -0.7859 -1.3384  1.0185
  161MOL   H17938899   0.611   6.744   5.298  1.3417 -0.0136  0.2472
  161MOL   H18038900   0.692   6.595   5.311 -1.5717 -2.3127 -1.3409
  161MOL   H18138901   0.523   6.607   5.363 -0.5574 -0.4622 -1.1643
  161MOL   C18238902   0.472   6.646   4.874 -0.6651  0.5762  0.3973
  161MOL   C18338903   0.418   6.601   4.739 -0.2994 -0.2798 -0.6180
  161MOL   C18438904   0.321   6.711   4.684  0.9746 -0.1480  0.5129
  161MOL   O18538905   0.335   6.831   4.705 -0.3232 -0.2195  0.2776
  161MOL   O18638906   0.222   6.651   4.614 -0.3106  0.2556 -0.4676
  161MOL   C18738907   0.113   6.729   4.564 -0.1782  0.1808 -0.4797
  161MOL   H18838908   0.499   6.751   4.875  1.2545  0.1108  0.1082
  161MOL   H18938909   0.559   6.583   4.892 -2.0056 -1.3955  0.2314
  161MOL   H19038910   0.366   6.506   4.757 -0.7035  0.0363 -0.1240
  161MOL   H19138911   0.145   6.812   4.501 -0.0012  0.5892  0.1445
  161MOL   H19238912   0.050   6.760   4.647  1.8102  0.8936  0.8233
  161MOL   H19338913   0.044   6.671   4.504 -2.4261  0.6494  1.5891
  161MOL   C19438914   0.526   6.581   4.629 -0.0527 -0.0626  0.3381
  161MOL   C19538915   0.474   6.476   4.533  0.0653 -0.3660 -0.3307
  161MOL   C19638916   0.554   6.483   4.399 -0.3656  1.1524 -0.0840
  161MOL   O19738917   0.498   6.463   4.296 -0.3578  0.0925 -0.4791
  161MOL   O19838918   0.684   6.516   4.412 -0.1389 -0.0237  0.2584
  161MOL   C19938919   0.756   6.529   4.292 -0.4487  0.1532 -1.0230
  161MOL   H20038920   0.541   6.676   4.578 -0.9911 -0.4430 -0.6535
  161MOL   H20138921   0.619   6.550   4.677 -0.2168  0.6323  1.1116
  161MOL   H20238922   0.369   6.501   4.522  0.0107 -1.2287 -1.9963
  161MOL   H20338923   0.864   6.537   4.306  0.0909 -1.8128 -3.7430
  161MOL   H20438924   0.715   6.605   4.226 -2.1790  0.5627  0.4761
  161MOL   H20538925   0.748   6.434   4.240  0.3151 -0.9428  0.7829
  161MOL   C20638926   0.486   6.333   4.597  0.1706 -0.5114  0.0965
  161MOL   C20738927   0.397   6.223   4.528 -0.2274  0.0451 -0.4184
  161MOL   C20838928   0.476   6.146   4.423  0.9154  0.2674 -0.1041
  161MOL   O20938929   0.592   6.113   4.440 -0.8141  0.4938 -0.1357
  161MOL   O21038930   0.396   6.122   4.308  0.5047 -0.1995 -0.5679
  161MOL   C21138931   0.432   6.046   4.196  0.0264  0.1175  0.2002
  161MOL   H21238932   0.593   6.311   4.597 -0.0554 -1.8411 -3.2501
  161MOL   H21338933   0.477   6.337   4.705  0.4439  0.8007  0.0758
  161MOL   H21438934   0.316   6.276   4.478  1.5763  1.3473 -2.0379
  161MOL   H21538935   0.352   6.042   4.122 -1.1538  0.6041  1.4309
  161MOL   H21638936   0.478   5.949   4.215  0.6453  0.1805 -0.9457
  161MOL   H21738937   0.503   6.109   4.143 -0.9429  2.3375  1.4595
  161MOL   C21838938   0.318   6.138   4.632  0.7082  0.3561  0.0935
  161MOL   C21938939   0.399   6.021   4.696 -0.9796 -1.2513 -0.1617
  161MOL   C22038940   0.521   6.073   4.772 -0.4651 -0.4952 -0.3926
  161MOL   O22138941   0.510   6.137   4.879  0.7179 -0.4506 -0.0126
  161MOL   O22238942   0.640   6.037   4.721 -0.0542  0.4061  0.1729
  161MOL   C22338943   0.758   6.074   4.792  0.4709  0.0658 -0.4308
  161MOL   H22438944   0.262   6.198   4.704 -1.0490  0.6168 -1.4451
  161MOL   H22538945   0.243   6.079   4.580 -0.7384  2.0635  0.1570
  161MOL   H22638946   0.435   5.963   4.611  0.9478  1.2198 -1.1151
  161MOL   H22738947   0.838   6.018   4.744  0.2220  0.2067 -1.0203
  161MOL   H22838948   0.747   6.027   4.889  4.6982  0.8522  0.5093
  161MOL   H22938949   0.784   6.179   4.804  1.5588  0.0266 -2.2981
  161MOL   C23038950   0.304   5.944   4.791 -0.1387  0.2872  0.0878
  161MOL   C23138951   0.233   5.809   4.749  0.2629 -0.3537 -0.3367
  161MOL   C23238952   0.326   5.684   4.775 -0.1788  0.1333 -0.1500
  161MOL   O23338953   0.335   5.633   4.888 -0.3403 -0.0286 -0.1819
  161MOL   O23438954   0.395   5.635   4.666 -0.1150 -0.3811 -0.3393
  161MOL   C23538955   0.470   5.519   4.674 -0.1431 -0.0959 -0.0282
  161MOL   H23638956   0.344   5.936   4.892 -2.8867  1.0253  1.2721
  161MOL   H23738957   0.221   6.010   4.816 -0.8109 -0.8210  0.8358
  161MOL   H23838958   0.204   5.818   4.645 -0.4017 -1.4910 -0.2508
  161MOL   H23938959   0.555   5.521   4.743 -1.1093  1.4378  1.1675
  161MOL   H24038960   0.503   5.490   4.575 -1.6648 -1.0930 -0.2667
  161MOL   H24138961   0.415   5.433   4.715  1.0726 -1.3580 -1.0222
  161MOL   H24238962   0.141   5.788   4.803 -0.2338  0.1587 -0.9669
  162MOL     C138963   1.584   4.260   2.898  0.1821 -0.2277 -0.0396
  162MOL     C238964   1.520   4.311   2.775 -0.1791 -0.0294  0.8973
  162MOL     C338965   1.590   4.238   2.656 -0.1026  0.3723  0.2325
  162MOL     O438966   1.643   4.299   2.567  0.1652  0.8866  0.9289
  162MOL     O538967   1.579   4.092   2.665 -0.0852  0.0008  0.2780
  162MOL     C638968   1.637   4.012   2.568 -0.9260  0.0975 -0.6932
  162MOL     H738969   1.589   4.151   2.903 -1.6917 -0.2998  0.3555
  162MOL     H838970   1.537   4.309   2.983  0.3365 -0.0223 -0.0712
  162MOL     H938971   1.549   4.414   2.757  1.0262 -0.6421 -0.8030
  162MOL    H1038972   1.613   4.049   2.469 -1.2857 -0.4946 -0.8344
  162MOL    H1138973   1.612   3.906   2.575 -0.3200  0.0054  0.1731
  162MOL    H1238974   1.742   4.031   2.592 -1.0329  0.4620 -0.5071
  162MOL    H1338975   1.684   4.303   2.901  0.1022 -0.0947  0.8011
  162MOL    C1438976   1.363   4.289   2.776 -0.7100  0.4570 -0.2509
  162MOL    C1538977   1.285   4.398   2.856 -0.0222  0.6086  0.7457
  162MOL    C1638978   1.266   4.522   2.772 -0.3407  0.4958  0.1052
  162MOL    O1738979   1.155   4.555   2.724 -0.1379 -0.7609 -0.2753
  162MOL    O1838980   1.386   4.583   2.744  0.1457  0.1584 -0.1182
  162MOL    C1938981   1.390   4.703   2.671  0.2491 -1.1500 -0.1967
  162MOL    H2038982   1.326   4.283   2.673 -0.7901 -0.5876 -0.1683
  162MOL    H2138983   1.349   4.187   2.812 -0.1002  1.3008  2.4994
  162MOL    H2238984   1.341   4.428   2.945  2.1398  1.2402 -0.7814
  162MOL    H2338985   1.351   4.701   2.569 -2.6757  1.7871  0.7890
  162MOL    H2438986   1.495   4.726   2.656 -0.4599  3.5684  1.3897
  162MOL    H2538987   1.334   4.781   2.721  0.3569  0.0470 -1.9089
  162MOL    C2638988   1.146   4.328   2.886 -0.1644  0.3376  0.6720
  162MOL    C2738989   1.149   4.197   2.970 -0.2708  0.4235 -0.4811
  162MOL    C2838990   1.255   4.204   3.081 -0.0509 -0.2602  0.2366
  162MOL    O2938991   1.329   4.106   3.098  0.3726  0.0633 -0.7404
  162MOL    O3038992   1.257   4.317   3.149  0.0505  0.6939 -0.5836
  162MOL    C3138993   1.359   4.335   3.250 -0.2056 -0.1333  1.5692
  162MOL    H3238994   1.079   4.402   2.930 -0.8931 -1.4251  2.6076
  162MOL    H3338995   1.113   4.302   2.786  0.5530 -1.1285  0.7948
  162MOL    H3438996   1.166   4.113   2.903  2.8899 -2.6518  3.8996
  162MOL    H3538997   1.360   4.438   3.288 -0.0917  0.4786 -0.0632
  162MOL    H3638998   1.460   4.310   3.217 -1.1146  0.4266 -1.7932
  162MOL    H3738999   1.334   4.260   3.325 -0.7439 -0.3893  1.1318
  162MOL    C3839000   1.007   4.168   3.033  0.0754  0.4482 -0.2988
  162MOL    C3939001   0.882   4.206   2.941 -0.5334  0.4664  0.2429
  162MOL    C4039002   0.878   4.112   2.820 -0.1282 -0.1160 -0.1203
  162MOL    O4139003   0.891   4.159   2.709  0.4737  0.7706  0.4064
  162MOL    O4239004   0.861   3.983   2.853 -0.2517 -0.1275  0.2273
  162MOL    C4339005   0.866   3.886   2.751 -0.2146 -0.0250 -0.4308
  162MOL    H4439006   1.014   4.060   3.049 -0.5289  0.5073  0.3429
  162MOL    H4539007   0.999   4.213   3.132  0.1239 -1.6773  0.6951
  162MOL    H4639008   0.902   4.307   2.904  2.3559  0.2669  1.1342
  162MOL    H4739009   0.866   3.935   2.654 -1.2106  0.4096 -0.2171
  162MOL    H4839010   0.796   3.802   2.746  1.5055 -1.3966 -2.4332
  162MOL    H4939011   0.961   3.834   2.741  0.4038  1.2468 -1.2150
  162MOL    C5039012   0.748   4.199   3.018 -0.2325 -0.5629 -0.3780
  162MOL    C5139013   0.698   4.331   3.080 -0.3965  0.0581 -0.0531
  162MOL    C5239014   0.801   4.373   3.185  0.0084  0.2064 -0.0796
  162MOL    O5339015   0.891   4.459   3.171 -0.0083  0.3089 -0.6896
  162MOL    O5439016   0.772   4.316   3.300 -0.1955 -0.0553  0.0832
  162MOL    C5539017   0.844   4.343   3.415 -0.9390 -0.5716 -0.0217
  162MOL    H5639018   0.673   4.168   2.945 -2.5145  3.6493  0.0406
  162MOL    H5739019   0.753   4.113   3.086 -0.4366 -1.2010 -1.1577
  162MOL    H5839020   0.605   4.304   3.129 -0.0526  0.1811  0.6895
  162MOL    H5939021   0.953   4.348   3.405 -1.0582 -0.4410 -1.4182
  162MOL    H6039022   0.835   4.271   3.496 -2.2448  0.8692  1.1443
  162MOL    H6139023   0.798   4.434   3.455  0.7311 -0.0204  0.7157
  162MOL    C6239024   0.659   4.451   2.986 -0.1746 -0.0197  0.6375
  162MOL    C6339025   0.549   4.543   3.051 -0.0700 -1.4771  0.8544
  162MOL    C6439026   0.596   4.632   3.164  0.1552 -0.0887  0.2441
  162MOL    O6539027   0.666   4.732   3.140  0.3794 -0.1452 -0.4082
  162MOL    O6639028   0.546   4.592   3.285  0.3880 -0.0718 -0.3303
  162MOL    C6739029   0.580   4.667   3.400  0.0380  0.0784 -0.9025
  162MOL    H6839030   0.742   4.516   2.960 -0.1711 -0.1797  0.2460
  162MOL    H6939031   0.614   4.417   2.893  1.1580 -0.3744  0.1022
  162MOL    H7039032   0.475   4.473   3.090 -0.9552 -0.9998  0.0601
  162MOL    H7139033   0.522   4.627   3.483 -0.1945 -0.3022 -1.2467
  162MOL    H7239034   0.569   4.775   3.393 -0.4335  0.1488  0.6565
  162MOL    H7339035   0.685   4.648   3.424  0.4937  2.4247 -0.9312
  162MOL    C7439036   0.475   4.634   2.937 -0.5480 -0.2074 -0.4350
  162MOL    C7539037   0.369   4.571   2.858 -0.5462 -0.2583 -0.1792
  162MOL    C7639038   0.238   4.542   2.940  0.3271  0.1862 -0.3963
  162MOL    O7739039   0.131   4.592   2.906  0.0813  0.2312 -0.3671
  162MOL    O7839040   0.259   4.451   3.030  0.2778 -0.1858  0.2855
  162MOL    C7939041   0.153   4.427   3.122  0.0493  0.0543 -0.5727
  162MOL    H8039042   0.430   4.716   2.993 -0.7454 -0.3883 -0.3287
  162MOL    H8139043   0.552   4.671   2.868  0.7072  0.2032  1.1409
  162MOL    H8239044   0.403   4.472   2.826 -0.9401 -0.9351  1.4574
  162MOL    H8339045   0.053   4.445   3.082  1.1031 -0.4252 -3.5200
  162MOL    H8439046   0.159   4.482   3.216 -0.7644 -0.4071 -0.2441
  162MOL    H8539047   0.142   4.322   3.147 -2.9993  0.4675  0.1215
  162MOL    C8639048   0.336   4.646   2.730 -0.4368 -0.0547  0.2223
  162MOL    C8739049   0.456   4.684   2.635  0.7268  0.2745  0.7587
  162MOL    C8839050   0.560   4.568   2.622 -0.0898  0.0924 -0.9590
  162MOL    O8939051   0.525   4.452   2.633  0.0188 -0.1739 -0.3442
  162MOL    O9039052   0.680   4.611   2.602  0.0166  0.1028 -0.2665
  162MOL    C9139053   0.794   4.531   2.589  0.3997  0.5196 -0.1587
  162MOL    H9239054   0.251   4.591   2.690 -0.8357 -0.1484  1.1738
  162MOL    H9339055   0.291   4.736   2.771  0.0326 -1.0829  3.1418
  162MOL    H9439056   0.513   4.763   2.683 -0.2814  0.6790  1.2966
  162MOL    H9539057   0.791   4.485   2.490  2.0357 -0.5572  0.2697
  162MOL    H9639058   0.787   4.456   2.667 -0.8973 -0.9324 -1.6222
  162MOL    H9739059   0.882   4.592   2.611  0.1990  1.1726 -1.1327
  162MOL    C9839060   0.409   4.735   2.497  0.2133  0.8209  0.3204
  162MOL    C9939061   0.350   4.875   2.514  0.6136  0.3240  0.2428
  162MOL   C10039062   0.456   4.986   2.533 -0.0813  0.2960 -0.7431
  162MOL   O10139063   0.574   4.975   2.498  0.4232  0.2377  0.5392
  162MOL   O10239064   0.413   5.088   2.604 -0.3627  0.2193  0.0994
  162MOL   C10339065   0.495   5.198   2.620 -0.1519 -0.0324 -0.5386
  162MOL   H10439066   0.487   4.738   2.421  0.8882  0.0505  0.9759
  162MOL   H10539067   0.344   4.655   2.462  1.9442 -1.2726  1.7815
  162MOL   H10639068   0.293   4.882   2.606  0.6313 -2.8890  0.5674
  162MOL   H10739069   0.448   5.273   2.683  0.1024 -0.2509 -0.0856
  162MOL   H10839070   0.514   5.258   2.531 -3.3461  1.1137 -0.5100
  162MOL   H10939071   0.596   5.184   2.659 -0.6297  2.7156  1.8127
  162MOL   C11039072   0.263   4.922   2.396  0.6527  0.4350  0.6535
  162MOL   C11139073   0.130   4.849   2.391  0.6816 -0.4310  0.2375
  162MOL   C11239074   0.036   4.913   2.487  0.2975 -0.1779  0.1220
  162MOL   O11339075   0.006   4.855   2.591  0.2763 -0.4515 -0.8690
  162MOL   O11439076   7.915   5.033   2.448 -0.0736  0.3919  0.5615
  162MOL   C11539077   7.814   5.094   2.524  1.1104  0.2653  0.0186
  162MOL   H11639078   0.263   5.031   2.400  0.4501  0.4412  0.4915
  162MOL   H11739079   0.322   4.904   2.306 -1.0610  2.4032 -0.9131
  162MOL   H11839080   0.151   4.750   2.432  0.0766 -0.6777 -0.0339
  162MOL   H11939081   7.762   5.158   2.452  2.7741 -0.0980 -1.5346
  162MOL   H12039082   7.843   5.158   2.607  2.0624 -1.3241  0.9125
  162MOL   H12139083   7.740   5.021   2.555  0.3380  1.9943  2.3420
  162MOL   C12239084   0.074   4.837   2.250 -0.1136  0.2082  0.3343
  162MOL   C12339085   7.887   4.737   2.251  0.2976  0.1652  0.3061
  162MOL   C12439086   7.747   4.808   2.227 -0.6268  0.4146  0.3975
  162MOL   O12539087   7.660   4.819   2.313  0.3981  0.7210  0.4887
  162MOL   O12639088   7.724   4.864   2.103  0.0075 -0.5030 -0.2907
  162MOL   C12739089   7.614   4.942   2.083  0.4961  0.4150 -0.2282
  162MOL   H12839090   0.047   4.938   2.219 -1.6544 -0.2210  0.2331
  162MOL   H12939091   0.147   4.794   2.181 -0.4499  0.3773 -0.1315
  162MOL   H13039092   7.884   4.704   2.355  0.8010  1.1925  0.6495
  162MOL   H13139093   7.591   4.955   1.977 -0.9039  2.0427  0.2568
  162MOL   H13239094   7.638   5.045   2.111 -0.1787  0.9037 -1.3849
  162MOL   H13339095   7.522   4.909   2.129  0.1113  1.5551 -0.1630
  162MOL   C13439096   7.906   4.620   2.161 -0.5395  0.6005 -0.2321
  162MOL   C13539097   0.070   4.513   2.218  0.2133  0.5051  0.7298
  162MOL   C13639098   0.005   4.432   2.328 -0.9845  0.1816 -0.0557
  162MOL   O13739099   7.827   4.451   2.369  0.3439  0.6682  0.6142
  162MOL   O13839100   0.097   4.343   2.382 -0.0254  0.1137  0.3763
  162MOL   C13939101   0.062   4.271   2.502  0.1681 -0.7309  0.7570
  162MOL   H14039102   7.817   4.560   2.142  0.6587 -0.6523 -2.0070
  162MOL   H14139103   0.019   4.658   2.069 -0.8576  2.8366  0.4975
  162MOL   H14239104   0.151   4.564   2.269  0.3826 -0.3315  1.3028
  162MOL   H14339105   0.071   4.167   2.473 -1.6201 -0.4994 -0.7248
  162MOL   H14439106   7.895   4.303   2.534  0.2215  0.8875 -0.6189
  162MOL   H14539107   0.126   4.278   2.590  1.1233  1.5564 -0.0879
  162MOL   C14639108   0.126   4.425   2.104 -0.5444  0.4258 -0.3000
  162MOL   C14739109   0.260   4.470   2.044 -0.8949  0.3214 -0.4932
  162MOL   C14839110   0.359   4.479   2.157  0.2252 -0.1192  0.0859
  162MOL   O14939111   0.411   4.591   2.175 -0.4907 -0.0795 -0.5123
  162MOL   O15039112   0.384   4.363   2.220 -0.2723  0.1846  0.5450
  162MOL   C15139113   0.460   4.363   2.336 -0.3001  0.8665 -0.9241
  162MOL   H15239114   0.137   4.323   2.140 -0.0299 -0.1087 -1.9351
  162MOL   H15339115   0.053   4.421   2.023 -0.6513 -3.0697 -0.0936
  162MOL   H15439116   0.249   4.570   2.001  1.6748  0.9586  0.2462
  162MOL   H15539117   0.540   4.436   2.344 -2.4277  3.2136 -0.5639
  162MOL   H15639118   0.508   4.267   2.356  0.4354  1.1821 -1.1687
  162MOL   H15739119   0.386   4.384   2.413 -1.1657 -1.1790 -1.1531
  162MOL   C15839120   0.322   4.372   1.933 -0.1305 -0.0327  0.3969
  162MOL   C15939121   0.251   4.349   1.796  0.4021 -0.0790  0.9314
  162MOL   C16039122   0.215   4.478   1.719  0.3720 -0.1579  0.2960
  162MOL   O16139123   0.113   4.484   1.655  0.3071 -0.5238  0.5125
  162MOL   O16239124   0.302   4.572   1.723 -0.2322 -0.2984  0.2770
  162MOL   C16339125   0.297   4.672   1.618  0.2327 -0.3254  0.8044
  162MOL   H16439126   0.422   4.413   1.920  0.0888  0.2535  2.6969
  162MOL   H16539127   0.339   4.285   1.995  3.1372  0.6151  0.4767
  162MOL   H16639128   0.159   4.299   1.829  1.3749 -2.6531 -0.1056
  162MOL   H16739129   0.382   4.739   1.631 -0.5119  0.9184 -0.5641
  162MOL   H16839130   0.213   4.740   1.634  3.5784  3.8626  1.6117
  162MOL   H16939131   0.295   4.620   1.522  0.1438  0.6515  0.2703
  162MOL   C17039132   0.337   4.253   1.709 -0.2468 -0.2880  0.4622
  162MOL   C17139133   0.269   4.192   1.582 -0.2732 -0.5627  0.1102
  162MOL   C17239134   0.364   4.123   1.482 -0.0909 -0.2654 -0.9928
  162MOL   O17339135   0.312   4.060   1.389  0.4650  0.2732 -0.2186
  162MOL   O17439136   0.504   4.141   1.497 -0.7054  0.2905  0.1809
  162MOL   C17539137   0.586   4.077   1.401  0.4707  0.0460  0.1484
  162MOL   H17639138   0.429   4.301   1.676  0.6466 -1.0355  1.8136
  162MOL   H17739139   0.367   4.172   1.775 -1.5839 -0.9886  0.2227
  162MOL   H17839140   0.229   4.271   1.519  0.2670 -0.9380 -0.7189
  162MOL   H17939141   0.693   4.095   1.414  0.6395 -0.2472 -0.7789
  162MOL   H18039142   0.565   4.111   1.299 -0.8330 -1.6966 -0.2013
  162MOL   H18139143   0.578   3.968   1.394  0.5335  0.0116  0.6035
  162MOL   C18239144   0.158   4.091   1.620 -0.6025  1.3383  0.0235
  162MOL   C18339145   0.013   4.145   1.628  0.7251 -0.5135 -0.1944
  162MOL   C18439146   7.904   4.218   1.496  0.3289  0.1096 -0.2302
  162MOL   O18539147   7.808   4.297   1.502  0.2040  0.2917 -0.1307
  162MOL   O18639148   0.025   4.159   1.377 -0.4272 -0.2262 -0.1905
  162MOL   C18739149   7.919   4.217   1.249 -0.4245  0.6160  0.5042
  162MOL   H18839150   0.146   4.009   1.550 -3.3606  0.9626  0.8853
  162MOL   H18939151   0.187   4.047   1.716 -0.0348 -1.0000 -1.1796
  162MOL   H19039152   0.016   4.221   1.706  0.6463  1.8341 -2.3998
  162MOL   H19139153   7.825   4.272   1.247 -1.4927 -1.2244 -2.1380
  162MOL   H19239154   7.908   4.131   1.184  0.2605 -1.4697  3.0425
  162MOL   H19339155   0.068   4.284   1.223  0.0897  0.2946  1.2802
  162MOL   C19439156   7.853   4.031   1.672 -0.2739  0.8034 -0.3359
  162MOL   C19539157   7.708   4.078   1.696  0.4210 -0.2928  0.2904
  162MOL   C19639158   7.616   3.995   1.598 -0.9782  0.9433  0.1752
  162MOL   O19739159   7.546   3.903   1.637 -0.6125 -0.0492 -0.1529
  162MOL   O19839160   7.630   4.037   1.477  0.4343 -0.2043  0.2233
  162MOL   C19939161   7.563   3.976   1.377  0.1577  0.2058  0.5479
  162MOL   H20039162   7.867   3.956   1.595 -2.0950  0.2414 -0.1224
  162MOL   H20139163   7.897   3.989   1.763  0.5194  1.6950 -0.2995
  162MOL   H20239164   7.682   4.180   1.667 -1.0058 -1.0445 -1.2154
  162MOL   H20339165   7.463   4.022   1.378  1.2552  2.6831  1.3595
  162MOL   H20439166   7.556   3.868   1.383 -2.7471  0.2248 -1.3332
  162MOL   H20539167   7.616   3.986   1.283 -1.6544  1.0243 -0.4285
  162MOL   C20639168   7.651   4.050   1.839  0.1104 -0.2568  0.1687
  162MOL   C20739169   7.717   4.142   1.949 -0.5380 -0.1720 -0.0100
  162MOL   C20839170   7.679   4.290   1.932 -0.2419  0.5371 -0.4572
  162MOL   O20939171   7.583   4.344   1.981 -0.0738 -0.9187  0.3100
  162MOL   O21039172   7.772   4.364   1.864 -0.1873  0.4184 -0.1751
  162MOL   C21139173   7.747   4.507   1.843  0.1517  0.3909 -0.2307
  162MOL   H21239174   7.546   4.081   1.838  0.8603  2.3594 -1.3261
  162MOL   H21339175   7.642   3.946   1.871 -1.4055 -0.3967 -0.6542
  162MOL   H21439176   7.821   4.133   1.919 -0.0861 -0.0257  1.4584
  162MOL   H21539177   7.752   4.550   1.943  0.6910 -1.0735  0.3909
  162MOL   H21639178   7.651   4.531   1.799 -0.2020  2.8064  1.7419
  162MOL   H21739179   7.826   4.559   1.788  2.3048 -2.8243 -0.3241
  162MOL   C21839180   7.709   4.097   2.095 -0.4601 -0.2898  0.0208
  162MOL   C21939181   7.791   3.970   2.128 -0.4909 -0.1179 -0.4270
  162MOL   C22039182   0.012   3.990   2.098  0.3019  0.4228  0.2551
  162MOL   O22139183   0.061   3.954   1.992  0.4045  0.0353 -0.7234
  162MOL   O22239184   0.073   4.073   2.191  0.5887  0.0145  0.1906
  162MOL   C22339185   0.217   4.071   2.189  0.1239  0.1429 -0.1865
  162MOL   H22439186   7.744   4.181   2.154  0.4359 -0.4485 -0.2763
  162MOL   H22539187   7.604   4.090   2.125  0.0208  0.2912  1.8860
  162MOL   H22639188   7.760   3.890   2.062  1.5588 -2.0211  0.8614
  162MOL   H22739189   0.248   4.148   2.119 -1.6995  0.4104 -0.7169
  162MOL   H22839190   0.248   3.979   2.139 -0.6933  0.1042 -0.6255
  162MOL   H22939191   0.267   4.090   2.284  0.1879 -0.3728 -0.1148
  162MOL   C23039192   7.753   3.933   2.273  0.2488 -0.0633  0.6281
  162MOL   C23139193   7.827   3.803   2.321 -0.7089  0.2068 -0.2805
  162MOL   C23239194   0.013   3.842   2.407 -0.1470 -0.1265 -0.9078
  162MOL   O23339195   0.129   3.823   2.367 -0.4598 -0.0369  0.4760
  162MOL   O23439196   7.904   3.890   2.527 -0.0393  0.6312 -0.0759
  162MOL   C23539197   0.057   3.904   2.644  0.1324  0.2794 -0.0991
  162MOL   H23639198   7.768   4.018   2.340 -0.6636  1.5966 -1.2095
  162MOL   H23739199   7.648   3.904   2.280  0.2922 -0.4674 -0.4113
  162MOL   H23839200   7.853   3.729   2.246  0.5501 -1.0719  1.3617
  162MOL   H23939201   7.926   3.914   2.733 -1.6664  0.6149 -1.3989
  162MOL   H24039202   0.117   3.993   2.627 -0.0908  0.8361  1.8330
  162MOL   H24139203   0.133   3.828   2.663  2.4155  2.5480  0.1560
  162MOL   H24239204   7.763   3.747   2.390  0.7081 -2.8310 -1.3441
  163MOL     C139205   0.527   0.710   2.420  0.1000 -0.1687  0.1668
  163MOL     C239206   0.491   0.834   2.342 -0.6120  0.5187 -0.6321
  163MOL     C339207   0.413   0.790   2.222  0.6250  0.1434 -0.6596
  163MOL     O439208   0.439   0.843   2.119  0.1869  0.4256 -0.3765
  163MOL     O539209   0.297   0.715   2.251  0.0198 -0.4429  0.0323
  163MOL     C639210   0.218   0.684   2.148 -0.3953 -0.2346  0.0427
  163MOL     H739211   0.590   0.640   2.367  0.6515  0.8988 -0.6109
  163MOL     H839212   0.434   0.660   2.449  0.6549 -1.0388  0.4653
  163MOL     H939213   0.577   0.883   2.297 -0.1469  0.9418  0.7023
  163MOL    H1039214   0.149   0.760   2.111 -0.1672 -0.0743 -0.0505
  163MOL    H1139215   0.174   0.598   2.198  1.3564 -0.1780  1.7332
  163MOL    H1239216   0.286   0.651   2.069 -0.1254 -0.3792  0.3335
  163MOL    H1339217   0.577   0.739   2.513  1.9043 -0.5682 -0.6661
  163MOL    C1439218   0.419   0.941   2.427  0.2786 -0.3658  0.6097
  163MOL    C1539219   0.314   0.900   2.538 -0.2204  0.4166 -0.2963
  163MOL    C1639220   0.374   0.847   2.668 -0.1430 -0.2519  0.8197
  163MOL    O1739221   0.416   0.924   2.755 -0.3976 -0.3994 -0.3755
  163MOL    O1839222   0.372   0.717   2.680 -1.0062  0.1954  0.1528
  163MOL    C1939223   0.415   0.653   2.795  0.0764 -0.1382 -0.0836
  163MOL    H2039224   0.499   0.997   2.476 -0.8577  1.0259  0.9094
  163MOL    H2139225   0.369   1.017   2.367  0.1111 -0.1613  1.0069
  163MOL    H2239226   0.244   0.827   2.497  1.7999 -1.3684 -0.6678
  163MOL    H2339227   0.523   0.665   2.804  0.5971 -1.3087 -3.8838
  163MOL    H2439228   0.400   0.547   2.778  0.4957 -0.3877  1.0578
  163MOL    H2539229   0.365   0.686   2.886 -1.1450 -0.0215 -0.7791
  163MOL    C2639230   0.227   1.025   2.569 -0.5307 -0.4361 -0.2741
  163MOL    C2739231   0.091   0.990   2.630 -0.0297  0.1674  0.1383
  163MOL    C2839232   0.028   1.122   2.683 -0.4843 -0.1027 -0.4165
  163MOL    O2939233   7.871   1.179   2.625 -0.0343 -0.0944 -0.2092
  163MOL    O3039234   0.087   1.171   2.797  0.0581 -0.3788 -1.1047
  163MOL    C3139235   0.041   1.295   2.843  0.3648  0.4786 -0.7282
  163MOL    H3239236   0.287   1.083   2.641 -0.7350  1.4076 -1.5545
  163MOL    H3339237   0.221   1.092   2.483  1.6698  0.3707  0.1547
  163MOL    H3439238   0.115   0.941   2.724  0.8054  0.8956  0.3196
  163MOL    H3539239   0.091   1.311   2.939 -2.2786  2.7415  0.3561
  163MOL    H3639240   7.866   1.292   2.859  0.6425 -0.1917  1.1348
  163MOL    H3739241   0.063   1.381   2.780 -0.9245 -0.2590 -2.2234
  163MOL    C3839242   0.002   0.906   2.528 -0.3321 -0.2300  0.3359
  163MOL    C3939243   0.006   0.753   2.553  0.2231 -0.2937  0.2734
  163MOL    C4039244   7.893   0.716   2.690  0.2905 -0.0667  0.4026
  163MOL    O4139245   0.045   0.706   2.778  0.3725 -0.0769  0.2935
  163MOL    O4239246   7.765   0.672   2.698 -0.1418 -0.3977  0.0647
  163MOL    C4339247   7.718   0.609   2.816  0.2819 -0.1227  0.3518
  163MOL    H4439248   7.829   0.927   2.543 -0.3507 -0.3716  0.3995
  163MOL    H4539249   0.030   0.933   2.426  1.1693 -0.9234  0.5480
  163MOL    H4639250   0.112   0.731   2.569 -0.0632 -0.4584  2.1482
  163MOL    H4739251   7.626   0.553   2.797  0.4960 -0.1088 -0.8040
  163MOL    H4839252   7.697   0.668   2.904 -1.8670 -3.5308  2.2639
  163MOL    H4939253   7.785   0.527   2.844  2.2883  0.4674 -2.5076
  163MOL    C5039254   7.880   0.671   2.435 -0.4713  0.0387 -0.1226
  163MOL    C5139255   7.869   0.521   2.445 -0.2965  0.3268 -0.0998
  163MOL    C5239256   7.814   0.464   2.318 -0.5783 -0.0516 -0.4390
  163MOL    O5339257   7.704   0.405   2.316 -0.2510 -0.2032 -0.0185
  163MOL    O5439258   7.884   0.489   2.219  0.1654 -0.3459 -0.3677
  163MOL    C5539259   7.865   0.406   2.102  0.2799 -0.0762  0.4245
  163MOL    H5639260   7.790   0.715   2.394  2.0255  1.9140 -3.9290
  163MOL    H5739261   0.016   0.693   2.353  1.2440 -1.5591  0.8555
  163MOL    H5839262   7.795   0.498   2.521 -0.3113 -0.2576 -0.2876
  163MOL    H5939263   7.929   0.432   2.017 -1.2431  0.7143 -0.5121
  163MOL    H6039264   7.766   0.419   2.058 -0.0918 -1.3004  0.8855
  163MOL    H6139265   7.877   0.304   2.137  0.4599  0.5971  2.3930
  163MOL    C6239266   0.063   0.452   2.485 -0.2788  0.4486  0.7036
  163MOL    C6339267   0.053   0.315   2.558 -0.0569 -0.1964  0.3405
  163MOL    C6439268   0.041   0.191   2.469  0.6696 -0.6277 -0.2043
  163MOL    O6539269   0.072   0.191   2.353 -0.6932  0.0699 -0.6343
  163MOL    O6639270   7.930   0.086   2.544 -0.1367  0.6983  0.2067
  163MOL    C6739271   7.927   7.888   2.480  0.4007  0.3653  0.2309
  163MOL    H6839272   0.135   0.451   2.403 -1.4698  0.5463 -0.3760
  163MOL    H6939273   0.108   0.517   2.560  0.4747  0.3712  0.3176
  163MOL    H7039274   7.890   0.314   2.611  0.8536  0.9044  2.0491
  163MOL    H7139275   7.880   7.892   2.381 -1.6755  0.7532  1.1974
  163MOL    H7239276   7.883   7.813   2.546 -0.7344  0.3227 -0.5592
  163MOL    H7339277   0.092   7.847   2.455  0.5060  0.3022  0.7519
  163MOL    C7439278   0.168   0.294   2.664 -0.3413  0.1666  0.6374
  163MOL    C7539279   0.297   0.227   2.618  0.6279  0.7005 -0.2720
  163MOL    C7639280   0.389   0.316   2.540  0.8645 -0.6797  0.3578
  163MOL    O7739281   0.465   0.403   2.591  0.1033  0.1799 -0.3263
  163MOL    O7839282   0.364   0.310   2.411  0.3918 -0.2980 -0.4773
  163MOL    C7939283   0.412   0.398   2.314 -0.7126  0.6443  0.1524
  163MOL    H8039284   0.186   0.390   2.712 -0.3645  0.5929 -0.1960
  163MOL    H8139285   0.118   0.242   2.746  0.0269  0.3693  0.9890
  163MOL    H8239286   0.295   0.132   2.565 -0.5452  0.6025 -0.0482
  163MOL    H8339287   0.325   0.447   2.270 -0.5007 -0.8316 -1.9364
  163MOL    H8439288   0.436   0.328   2.234 -0.7893  0.3078  0.4220
  163MOL    H8539289   0.488   0.466   2.353 -1.3399  0.4111  1.8612
  163MOL    C8639290   0.380   0.186   2.749 -0.5476  0.4465  0.3210
  163MOL    C8739291   0.325   0.071   2.828  0.1170  0.4472 -0.2774
  163MOL    C8839292   0.300   7.876   2.735 -0.2760 -0.3261 -0.6110
  163MOL    O8939293   0.383   7.834   2.652  0.2743 -0.3239  0.4157
  163MOL    O9039294   0.183   7.812   2.757  0.4163  0.0023  0.7419
  163MOL    C9139295   0.161   7.684   2.694  0.4572 -0.3750  0.1932
  163MOL    H9239296   0.483   0.166   2.719 -0.4590  0.5192  0.5765
  163MOL    H9339297   0.368   0.277   2.808  2.5495  1.4591 -0.4807
  163MOL    H9439298   0.229   0.111   2.862  0.4886  2.8185 -1.8602
  163MOL    H9539299   0.199   7.611   2.766  2.4025 -0.3764 -0.8026
  163MOL    H9639300   0.208   7.680   2.596 -0.1199 -1.3042 -0.0484
  163MOL    H9739301   0.057   7.654   2.681  0.0944  1.3911 -1.1356
  163MOL    C9839302   0.409   0.041   2.956 -0.5872 -0.2844 -0.4629
  163MOL    C9939303   0.324   0.014   3.083 -0.3370 -0.1554 -0.1649
  163MOL   C10039304   0.273   7.801   3.067 -1.0410 -0.0502  0.1304
  163MOL   O10139305   0.154   7.776   3.094  0.2873  0.3362  0.3049
  163MOL   O10239306   0.367   7.715   3.034  0.5565  0.2788  0.1614
  163MOL   C10339307   0.333   7.577   3.038  0.0594 -0.3521 -0.3497
  163MOL   H10439308   0.485   7.896   2.943 -2.1717 -1.9376 -0.0120
  163MOL   H10539309   0.467   0.130   2.979 -0.9076 -0.1134 -0.3154
  163MOL   H10639310   0.234   0.076   3.075 -0.5890 -0.5770 -0.6153
  163MOL   H10739311   0.291   7.546   3.134 -2.8790  0.5882 -1.2587
  163MOL   H10839312   0.420   7.514   3.022  0.1043  0.0071 -1.6211
  163MOL   H10939313   0.258   7.539   2.968 -1.1165  3.3023 -1.2082
  163MOL   C11039314   0.397   0.035   3.220 -0.1071 -0.6067  0.0909
  163MOL   C11139315   0.405   0.177   3.269 -0.6237  0.0205  1.2308
  163MOL   C11239316   0.527   0.253   3.216  0.5838 -0.9664  0.0320
  163MOL   O11339317   0.510   0.358   3.147  0.2810 -0.4467 -0.0962
  163MOL   O11439318   0.644   0.193   3.244 -0.4346 -0.0771 -0.6135
  163MOL   C11539319   0.769   0.240   3.209 -0.2232 -0.2514 -0.4096
  163MOL   H11639320   0.346   7.897   3.284 -0.1855 -0.2821  0.3880
  163MOL   H11739321   0.493   7.920   3.201 -0.4958 -1.4245  0.1714
  163MOL   H11839322   0.434   0.167   3.373 -3.9270  0.1530  2.2304
  163MOL   H11939323   0.816   0.172   3.137  0.3286 -0.1325 -0.1625
  163MOL   H12039324   0.844   0.246   3.287  2.0397  1.6002 -2.6681
  163MOL   H12139325   0.760   0.336   3.160  0.4437 -0.3687 -0.7687
  163MOL   C12239326   0.271   0.252   3.263  0.2441 -0.0678  0.2844
  163MOL   C12339327   0.156   0.174   3.326 -0.3487 -0.8116 -0.4772
  163MOL   C12439328   0.156   0.200   3.480  0.6655  0.5210 -0.5329
  163MOL   O12539329   0.231   0.284   3.532 -0.1543 -0.8175  0.2445
  163MOL   O12639330   0.080   0.115   3.547 -0.0676  0.1414  0.2227
  163MOL   C12739331   0.079   0.120   3.695 -0.6667 -0.0694 -0.5692
  163MOL   H12839332   0.279   0.352   3.306  0.6752 -0.5471  1.3350
  163MOL   H12939333   0.230   0.264   3.163  1.3335 -0.7393 -0.2464
  163MOL   H13039334   0.169   0.066   3.325 -0.6613 -0.9024  2.1949
  163MOL   H13139335   0.024   0.043   3.750  1.4740  0.2403  2.1117
  163MOL   H13239336   0.041   0.215   3.731  3.4017  0.9114  1.3637
  163MOL   H13339337   0.182   0.104   3.727 -0.9179 -1.2363 -0.3042
  163MOL   C13439338   0.013   0.194   3.260 -0.2258 -0.4498 -0.3059
  163MOL   C13539339   7.893   0.335   3.268  0.2002  0.1331 -0.2791
  163MOL   C13639340   7.932   0.408   3.142  0.2344 -0.1865  0.1330
  163MOL   O13739341   7.890   0.374   3.030  0.1894  0.7105 -0.2036
  163MOL   O13839342   0.087   0.507   3.174 -0.0846 -0.1619  0.8906
  163MOL   C13939343   0.108   0.604   3.066 -0.1885 -0.2964  0.3156
  163MOL   H14039344   0.011   0.154   3.159 -1.1648 -0.3508 -0.3324
  163MOL   H14139345   7.877   0.128   3.313 -0.6452  0.3225  0.1226
  163MOL   H14239346   0.004   0.388   3.352  0.5431 -1.3803  0.5225
  163MOL   H14339347   0.024   0.638   3.005  1.4988  0.4186 -1.6956
  163MOL   H14439348   0.186   0.558   3.006 -0.8604  1.5796 -2.0718
  163MOL   H14539349   0.150   0.694   3.110  1.5564 -0.9508  0.0140
  163MOL   C14639350   7.740   0.347   3.286  0.3724 -0.1571 -0.4115
  163MOL   C14739351   7.680   0.417   3.415 -0.2345 -0.7794 -0.3568
  163MOL   C14839352   7.686   0.318   3.531 -0.5197  0.0569 -0.4717
  163MOL   O14939353   7.776   0.335   3.621  0.8776 -0.0222 -0.3582
  163MOL   O15039354   7.611   0.210   3.515  0.5089  0.0647 -0.2691
  163MOL   C15139355   7.601   0.116   3.611 -0.0140  0.0281 -0.1290
  163MOL   H15239356   7.692   0.398   3.202 -3.2353 -2.1857  0.3237
  163MOL   H15339357   7.694   0.248   3.274  0.5450 -0.3804  0.7084
  163MOL   H15439358   7.573   0.431   3.406  0.0946  1.4712 -1.2712
  163MOL   H15539359   7.543   0.031   3.576 -1.5946  0.5416  1.1313
  163MOL   H15639360   7.552   0.163   3.697  0.6834  0.7517 -0.1162
  163MOL   H15739361   7.698   0.076   3.640 -0.3907  0.1130  1.2872
  163MOL   C15839362   7.742   0.565   3.444 -0.2796  0.4607  0.7646
  163MOL   C15939363   7.726   0.674   3.331  0.2229 -0.2206 -0.3082
  163MOL   C16039364   7.575   0.685   3.286  0.7867 -0.1476 -0.3892
  163MOL   O16139365   7.537   0.690   3.168 -0.4385  0.3959  0.1020
  163MOL   O16239366   7.495   0.688   3.390 -0.0841 -0.6600 -0.0162
  163MOL   C16339367   7.362   0.698   3.367 -0.1610  1.1235  0.1119
  163MOL   H16439368   7.695   0.595   3.538 -1.5536  1.5399 -0.1887
  163MOL   H16539369   7.849   0.562   3.462 -0.1884  0.4782  0.2483
  163MOL   H16639370   7.773   0.646   3.237  0.0431  2.0207 -1.0898
  163MOL   H16739371   7.339   0.790   3.312  0.6967 -0.9692 -3.9884
  163MOL   H16839372   7.302   0.697   3.458 -0.0131  1.0757  0.2089
  163MOL   H16939373   7.318   0.616   3.308 -0.0693  0.1922  1.3257
  163MOL   C17039374   7.759   0.823   3.364  0.0431 -0.0880 -0.3827
  163MOL   C17139375   7.912   0.837   3.393 -0.3981 -0.5773  0.7301
  163MOL   C17239376   0.035   0.965   3.329  0.1668 -0.2213 -0.3517
  163MOL   O17339377   0.043   1.071   3.384 -0.4197 -0.8060 -0.2090
  163MOL   O17439378   0.056   0.945   3.193  0.6993  0.1345 -0.3401
  163MOL   C17539379   0.099   1.053   3.113 -0.6947  0.0358 -0.1884
  163MOL   H17639380   7.728   0.894   3.287 -0.0270  2.1776  1.6546
  163MOL   H17739381   7.694   0.860   3.444 -0.0993 -1.4363  0.1466
  163MOL   H17839382   0.028   0.757   3.337 -0.7771  0.3108 -0.9341
  163MOL   H17939383   0.208   1.054   3.114 -0.6675 -0.0451 -1.7160
  163MOL   H18039384   0.059   1.149   3.144 -1.5326  0.2108 -1.7375
  163MOL   H18139385   0.055   1.040   3.014 -0.2560  0.0727 -0.3876
  163MOL   C18239386   0.029   0.822   3.540 -0.0468 -0.2129  0.0694
  163MOL   C18339387   0.179   0.789   3.555 -0.3045  0.4729  0.2946
  163MOL   C18439388   0.246   0.820   3.688  0.4817 -0.5531  0.7681
  163MOL   O18539389   0.348   0.886   3.692 -0.4309  0.2252 -0.0601
  163MOL   O18639390   0.181   0.772   3.796  0.0200  0.3795  0.5994
  163MOL   C18739391   0.219   0.813   3.920 -0.6854 -0.5443  1.2020
  163MOL   H18839392   0.032   0.920   3.589 -0.9783 -0.3650  0.4353
  163MOL   H18939393   7.902   0.755   3.601  0.6378  1.0151  2.1336
  163MOL   H19039394   0.228   0.853   3.482  0.3582  1.0837  1.2569
  163MOL   H19139395   0.288   0.741   3.964 -0.3121  0.8183  2.8958
  163MOL   H19239396   0.133   0.817   3.987 -0.9548  2.8255  0.7371
  163MOL   H19339397   0.264   0.912   3.923 -2.1215  0.1346  0.9685
  163MOL   C19439398   0.211   0.638   3.522  0.1003  0.6312 -0.7613
  163MOL   C19539399   0.362   0.590   3.508  0.5984 -0.0459  0.0810
  163MOL   C19639400   0.450   0.688   3.422  0.1767 -0.0950 -0.4231
  163MOL   O19739401   0.572   0.711   3.451 -0.0464  0.3067 -0.8645
  163MOL   O19839402   0.389   0.743   3.314  0.0801  0.1484  0.0857
  163MOL   C19939403   0.463   0.841   3.237 -0.4216  0.2016  0.0057
  163MOL   H20039404   0.157   0.572   3.590  0.4497  0.3017 -0.8051
  163MOL   H20139405   0.153   0.615   3.433 -0.1475  1.2161 -0.7566
  163MOL   H20239406   0.364   0.497   3.452 -1.9833  0.8227 -1.5614
  163MOL   H20339407   0.560   0.798   3.212 -0.0521  1.4840 -0.7891
  163MOL   H20439408   0.477   0.932   3.294  0.7346  0.9671 -1.4713
  163MOL   H20539409   0.416   0.850   3.139  1.2318  0.5708 -0.7649
  163MOL   C20639410   0.433   0.564   3.647  0.2246 -0.4184  0.5450
  163MOL   C20739411   0.561   0.479   3.648  0.0657  0.7233  0.1866
  163MOL   C20839412   0.648   0.510   3.766  0.7200  0.1239  0.2524
  163MOL   O20939413   0.759   0.566   3.750 -0.2345  0.2854 -0.0335
  163MOL   O21039414   0.588   0.489   3.886  0.3869 -0.3106  0.5187
  163MOL   C21139415   0.659   0.525   4.005  0.4339 -0.5718 -0.1190
  163MOL   H21239416   0.470   0.655   3.693  0.5079  0.3228 -1.1081
  163MOL   H21339417   0.355   0.525   3.712  0.8661 -1.2431  0.8415
  163MOL   H21439418   0.615   0.506   3.558  1.5053 -1.1584  0.4616
  163MOL   H21539419   0.613   0.481   4.093  0.1163 -0.1804 -0.0849
  163MOL   H21639420   0.664   0.633   4.018 -0.3116 -0.7453  1.8606
  163MOL   H21739421   0.753   0.469   4.000  1.4699  1.0196  0.9902
  163MOL   C21839422   0.538   0.322   3.630  0.5274  0.0400  0.1947
  163MOL   C21939423   0.652   0.224   3.662 -0.2854  0.5371 -0.4001
  163MOL   C22039424   0.613   0.078   3.635  0.2857  0.6754  0.1785
  163MOL   O22139425   0.598   0.030   3.521 -0.3624  0.4633  0.4961
  163MOL   O22239426   0.615   0.002   3.742  0.6662  0.0328 -0.0806
  163MOL   C22339427   0.573   7.796   3.733  0.5036 -0.1779 -0.6179
  163MOL   H22439428   0.442   0.292   3.673 -0.6555  0.9272 -1.7745
  163MOL   H22539429   0.507   0.314   3.526 -0.0008  0.8062  0.2936
  163MOL   H22639430   0.666   0.237   3.770 -1.8165  0.7787 -0.2147
  163MOL   H22739431   0.621   7.747   3.649 -0.5079  1.0210 -1.9101
  163MOL   H22839432   0.467   7.797   3.708 -0.0638 -0.3680  1.6500
  163MOL   H22939433   0.590   7.747   3.829  0.3758  1.7919  0.4458
  163MOL   C23039434   0.782   0.242   3.576  0.1238  0.4064 -0.1435
  163MOL   C23139435   0.915   0.161   3.627 -0.0704 -0.0245 -0.4449
  163MOL   C23239436   0.979   0.219   3.747  0.3728 -1.0184 -0.3128
  163MOL   O23339437   0.979   0.157   3.850  0.1287  0.1454 -0.4974
  163MOL   O23439438   1.031   0.342   3.734 -0.1069  0.6040  0.1843
  163MOL   C23539439   1.118   0.398   3.836  0.1120 -0.4016  0.0095
  163MOL   H23639440   0.771   0.208   3.473  1.0006  0.1516 -0.1609
  163MOL   H23739441   0.809   0.347   3.580 -0.5287  0.5687  0.0852
  163MOL   H23839442   0.993   0.139   3.555 -0.3282 -2.0155 -0.1282
  163MOL   H23939443   1.225   0.387   3.822 -0.4289 -2.4772 -2.7677
  163MOL   H24039444   1.090   0.374   3.939  0.3690  0.7826  0.3665
  163MOL   H24139445   1.095   0.505   3.833 -2.0380 -0.8616 -0.9748
  163MOL   H24239446   0.887   0.060   3.656  0.5138 -0.4034 -1.1935
  164MOL     C139447   1.413   5.716   6.686  0.7427 -0.0910  0.2614
  164MOL     C239448   1.306   5.823   6.710 -0.2159  0.2756 -0.0827
  164MOL     C339449   1.345   5.921   6.821 -0.1708  0.0286 -0.3628
  164MOL     O439450   1.297   5.913   6.933 -0.1784 -0.6468 -0.5829
  164MOL     O539451   1.433   6.004   6.776 -0.0202 -0.1547 -0.1300
  164MOL     C639452   1.476   6.106   6.854  0.3045 -0.0896  0.2977
  164MOL     H739453   1.509   5.737   6.640  0.4067  0.8441 -0.0226
  164MOL     H839454   1.363   5.645   6.620  1.1347  2.0057 -2.3352
  164MOL     H939455   1.219   5.762   6.734 -0.7998  1.1412  0.0167
  164MOL    H1039456   1.406   6.190   6.851  0.7491  0.3463  1.6503
  164MOL    H1139457   1.567   6.139   6.803  0.2125  0.2801  0.3686
  164MOL    H1239458   1.493   6.086   6.959 -1.5466 -0.9304  0.4448
  164MOL    H1339459   1.445   5.659   6.774 -2.6009 -2.5908 -0.0371
  164MOL    C1439460   1.287   5.899   6.576  0.2255  0.5969 -0.2379
  164MOL    C1539461   1.176   5.840   6.488  1.0308  0.0808 -0.0942
  164MOL    C1639462   1.041   5.871   6.558  0.0243  0.5443 -0.6313
  164MOL    O1739463   0.975   5.792   6.620  0.7236  0.5169  0.2774
  164MOL    O1839464   1.002   6.002   6.548  0.0164  0.1727 -0.2326
  164MOL    C1939465   0.903   6.053   6.625  0.2223  0.4236 -0.4218
  164MOL    H2039466   1.263   6.003   6.598  0.7085  0.8919 -1.1181
  164MOL    H2139467   1.381   5.899   6.522 -0.1719  1.3079 -0.9375
  164MOL    H2239468   1.197   5.734   6.480  0.4126 -0.0651  0.1766
  164MOL    H2339469   0.871   6.156   6.608  0.3878  0.7396  1.0863
  164MOL    H2439470   0.948   6.064   6.724 -0.2365  2.2593 -0.3912
  164MOL    H2539471   0.811   5.996   6.637  0.3746  0.4189  0.8170
  164MOL    C2639472   1.171   5.902   6.344  0.1775  0.5620  0.5678
  164MOL    C2739473   1.089   5.831   6.233 -0.3555 -0.4371 -0.2468
  164MOL    C2839474   1.079   5.918   6.110  0.0561  0.2506 -0.1038
  164MOL    O2939475   0.976   5.983   6.097  0.0997  0.2291  0.5521
  164MOL    O3039476   1.186   5.916   6.025  0.1541 -0.0425 -0.2777
  164MOL    C3139477   1.194   6.003   5.906  0.3461  0.2150 -0.1206
  164MOL    H3239478   1.140   6.005   6.356 -1.5821  0.1179 -0.0969
  164MOL    H3339479   1.271   5.911   6.300  0.6400  1.8997  1.8511
  164MOL    H3439480   0.987   5.837   6.271 -0.1704  0.1414  0.1654
  164MOL    H3539481   1.105   5.989   5.844 -1.5721 -1.6594  2.9058
  164MOL    H3639482   1.281   5.974   5.848  0.1244  1.0345 -0.8639
  164MOL    H3739483   1.200   6.111   5.920 -1.3787  0.2310  0.6153
  164MOL    C3839484   1.146   5.686   6.205 -0.2131 -0.2176  0.2843
  164MOL    C3939485   1.067   5.571   6.276  0.0555 -0.4866 -0.6397
  164MOL    C4039486   0.921   5.582   6.247 -0.3185  0.1741 -0.1460
  164MOL    O4139487   0.879   5.652   6.157  0.4648 -0.4737 -0.0781
  164MOL    O4239488   0.835   5.505   6.310 -0.7465 -0.1539 -0.1413
  164MOL    C4339489   0.699   5.510   6.293  0.7610  0.0211 -0.6751
  164MOL    H4439490   1.145   5.659   6.099 -2.2854 -2.5728  0.8627
  164MOL    H4539491   1.249   5.672   6.239 -0.1046  1.6575  0.8091
  164MOL    H4639492   1.056   5.593   6.382  0.9489 -0.4201 -0.5571
  164MOL    H4739493   0.667   5.406   6.297  1.5648 -0.2642 -1.5967
  164MOL    H4839494   0.662   5.547   6.198 -0.7617 -0.3872 -0.2578
  164MOL    H4939495   0.656   5.567   6.377  1.9452  2.0904 -1.4279
  164MOL    C5039496   1.130   5.427   6.263 -0.0780 -1.1032  0.3625
  164MOL    C5139497   1.115   5.363   6.123 -0.5543 -0.0439  0.1873
  164MOL    C5239498   1.214   5.418   6.021 -0.5150 -0.0666  0.2857
  164MOL    O5339499   1.192   5.445   5.899  0.4502 -0.1458 -0.1235
  164MOL    O5439500   1.340   5.426   6.073  0.3961 -0.0444  0.4598
  164MOL    C5539501   1.453   5.473   5.998  0.0752  0.3417  0.1482
  164MOL    H5639502   1.236   5.428   6.287 -0.1905 -0.2574  0.8381
  164MOL    H5739503   1.076   5.359   6.328 -1.8585  0.4689  0.5970
  164MOL    H5839504   1.014   5.371   6.084 -1.1710 -0.8581  1.5860
  164MOL    H5939505   1.541   5.414   6.026 -0.0259  0.8116  1.4991
  164MOL    H6039506   1.475   5.579   5.984 -0.6180  0.4640 -0.0406
  164MOL    H6139507   1.433   5.452   5.893  1.0326  1.0016 -0.1716
  164MOL    C6239508   1.138   5.207   6.139 -0.8902 -0.0861 -0.4261
  164MOL    C6339509   1.014   5.119   6.116 -0.0349 -0.2615  0.0013
  164MOL    C6439510   1.011   5.098   5.968  0.5083  0.0443  0.1114
  164MOL    O6539511   1.052   4.993   5.921  0.0576 -0.0204  0.3432
  164MOL    O6639512   0.957   5.202   5.900  0.1918  0.6720 -0.1006
  164MOL    C6739513   0.964   5.211   5.759  0.1858  0.0604  1.0684
  164MOL    H6839514   1.219   5.162   6.082 -0.7450 -0.5814  0.1656
  164MOL    H6939515   1.186   5.183   6.234  2.5041  1.1757 -1.7488
  164MOL    H7039516   0.928   5.176   6.152 -1.1626 -0.5941 -2.1201
  164MOL    H7139517   1.055   5.268   5.746 -0.2097  0.8916  1.9148
  164MOL    H7239518   0.884   5.272   5.717  0.8823  0.2536 -0.0006
  164MOL    H7339519   0.960   5.117   5.703 -1.4206  1.5639 -1.3964
  164MOL    C7439520   1.024   4.997   6.208  0.4558  0.6777 -0.3893
  164MOL    C7539521   0.894   4.913   6.224  0.7459 -0.0158  0.4164
  164MOL    C7639522   0.860   4.828   6.098  0.1700  0.0974  0.0737
  164MOL    O7739523   0.762   4.855   6.030 -0.1695  0.1976  0.3514
  164MOL    O7839524   0.946   4.727   6.088  0.0651 -0.0790 -0.3117
  164MOL    C7939525   0.947   4.633   5.983  0.5365  0.4002 -0.0049
  164MOL    H8039526   1.106   4.929   6.184 -0.6359 -0.7156 -0.2439
  164MOL    H8139527   1.047   5.032   6.309  0.1350  0.5661 -0.2772
  164MOL    H8239528   0.807   4.977   6.241  0.7814  0.4302 -1.0117
  164MOL    H8339529   0.850   4.584   5.973 -0.9014  3.2706 -0.7957
  164MOL    H8439530   1.021   4.554   5.999 -0.7533 -0.8851 -0.3343
  164MOL    H8539531   0.973   4.687   5.891  1.7355  0.3801  0.3129
  164MOL    C8639532   0.909   4.832   6.354 -0.4518 -0.7914 -0.8015
  164MOL    C8739533   0.785   4.747   6.398 -0.7443 -0.1538  0.8850
  164MOL    C8839534   0.823   4.648   6.504 -0.4869  0.8085  0.7075
  164MOL    O8939535   0.927   4.663   6.570  0.2023  0.6728  0.3848
  164MOL    O9039536   0.744   4.541   6.518  0.1649  0.0376  0.2990
  164MOL    C9139537   0.784   4.439   6.608  0.2015  0.5597  0.4561
  164MOL    H9239538   0.998   4.770   6.346  0.5083  0.3956  0.5089
  164MOL    H9339539   0.936   4.889   6.443 -1.2425 -2.6341  0.6605
  164MOL    H9439540   0.746   4.697   6.310  0.5686 -2.3652  1.5179
  164MOL    H9539541   0.758   4.345   6.559 -0.1375  0.5499  0.6553
  164MOL    H9639542   0.721   4.417   6.694 -0.0849 -1.7063 -0.2917
  164MOL    H9739543   0.885   4.444   6.650 -0.2127 -0.1655  1.5501
  164MOL    C9839544   0.672   4.844   6.446 -0.2983  0.5431  0.2242
  164MOL    C9939545   0.535   4.785   6.474 -0.5001  0.0600  0.0590
  164MOL   C10039546   0.453   4.880   6.560 -0.0836 -0.5584  0.0888
  164MOL   O10139547   0.386   4.976   6.515  0.0344  0.6990 -0.2367
  164MOL   O10239548   0.483   4.860   6.698 -0.7391  0.0775 -0.0041
  164MOL   C10339549   0.422   4.937   6.801 -0.0850  0.3343  0.3652
  164MOL   H10439550   0.711   4.899   6.531 -0.0595 -1.5132  1.4720
  164MOL   H10539551   0.658   4.909   6.360  0.8762  0.8468  0.2601
  164MOL   H10639552   0.553   4.695   6.532  0.0809 -1.5358 -2.5402
  164MOL   H10739553   0.316   4.916   6.807  0.1000 -0.6236  0.3167
  164MOL   H10839554   0.440   5.044   6.796  2.6496 -0.1074 -0.6515
  164MOL   H10939555   0.479   4.892   6.882 -1.1742 -1.8159 -0.0343
  164MOL   C11039556   0.456   4.737   6.350 -0.0860 -0.2718 -0.8077
  164MOL   C11139557   0.318   4.656   6.386  0.6287 -0.1353 -0.1226
  164MOL   C11239558   0.186   4.734   6.347 -0.2416 -0.4539  0.2302
  164MOL   O11339559   0.113   4.765   6.440 -0.2042 -0.0382  0.2693
  164MOL   O11439560   0.179   4.770   6.221  0.7253  0.0839 -0.1475
  164MOL   C11539561   0.059   4.837   6.179 -0.5069 -0.3837 -0.2143
  164MOL   H11639562   0.436   4.820   6.283 -0.7282  0.7538  0.6340
  164MOL   H11739563   0.527   4.676   6.294 -0.5096 -2.8625  1.3837
  164MOL   H11839564   0.311   4.647   6.494  1.1137  1.5673  0.0662
  164MOL   H11939565   0.058   4.862   6.073  2.9402 -0.0477 -0.2194
  164MOL   H12039566   0.072   4.928   6.236  0.1492 -0.0621 -0.8727
  164MOL   H12139567   7.894   4.800   6.211  1.5203 -1.1974  5.7105
  164MOL   C12239568   0.307   4.512   6.326  0.0755 -0.4265  0.4693
  164MOL   C12339569   0.391   4.403   6.387  0.3465 -0.0900  0.4381
  164MOL   C12439570   0.348   4.364   6.527 -0.4146  0.4854 -0.2102
  164MOL   O12539571   0.256   4.417   6.590  0.2559  0.2920 -0.4237
  164MOL   O12639572   0.433   4.269   6.570  0.4539  0.2574 -0.0167
  164MOL   C12739573   0.412   4.201   6.697 -0.2935 -0.1315  0.7336
  164MOL   H12839574   0.210   4.468   6.349 -0.4786  1.4951  2.0224
  164MOL   H12939575   0.296   4.525   6.218 -0.4054 -0.4503  0.5159
  164MOL   H13039576   0.489   4.448   6.403 -0.8526  2.3869  1.1177
  164MOL   H13139577   0.453   4.101   6.684 -0.4789 -0.0968 -0.1394
  164MOL   H13239578   0.304   4.194   6.708 -0.4681  1.8760  0.5223
  164MOL   H13339579   0.441   4.240   6.794  1.9803  2.1760 -0.7869
  164MOL   C13439580   0.410   4.287   6.288 -0.1096 -0.0917 -0.5670
  164MOL   C13539581   0.482   4.323   6.161  0.1853  0.2845 -0.9956
  164MOL   C13639582   0.625   4.366   6.182  0.2857 -0.1272  0.7341
  164MOL   O13739583   0.666   4.475   6.152 -0.2446 -0.3531  0.5540
  164MOL   O13839584   0.713   4.275   6.231 -0.1798  0.3480 -0.5191
  164MOL   C13939585   0.850   4.306   6.232  0.3458  0.3565  0.4818
  164MOL   H14039586   0.475   4.217   6.341  1.5412  0.4697 -1.8295
  164MOL   H14139587   0.318   4.229   6.281 -1.4097  1.1688  4.0263
  164MOL   H14239588   0.434   4.412   6.120 -1.0886  0.6033  1.1025
  164MOL   H14339589   0.895   4.376   6.302  0.8017  0.7327 -0.1782
  164MOL   H14439590   0.871   4.355   6.137  2.1406  1.7026  1.5358
  164MOL   H14539591   0.909   4.214   6.226  2.3866  1.6646  0.0054
  164MOL   C14639592   0.475   4.212   6.057 -0.2344 -0.0311 -0.6712
  164MOL   C14739593   0.548   4.230   5.928 -0.1129 -0.1322 -0.2404
  164MOL   C14839594   0.562   4.098   5.851  0.6593 -0.4529  0.8147
  164MOL   O14939595   0.461   4.038   5.824  0.8741 -0.4636  0.0819
  164MOL   O15039596   0.685   4.078   5.805  0.4883  0.5461 -0.3672
  164MOL   C15139597   0.712   3.978   5.712 -0.1467  0.0227  0.1890
  164MOL   H15239598   0.520   4.125   6.106 -0.7304  1.0391  1.7396
  164MOL   H15339599   0.371   4.188   6.034  0.3049 -0.5533 -2.6688
  164MOL   H15439600   0.652   4.257   5.942 -0.9750  3.9079 -0.9566
  164MOL   H15539601   0.813   3.994   5.676 -0.4992  2.4264  0.1901
  164MOL   H15639602   0.634   3.977   5.636  0.3424 -0.8909 -0.3154
  164MOL   H15739603   0.714   3.884   5.768 -2.6233 -0.5631 -0.6468
  164MOL   C15839604   0.486   4.341   5.838  0.6952  0.0884 -0.0331
  164MOL   C15939605   0.567   4.372   5.709  0.2995 -0.5935  0.5768
  164MOL   C16039606   0.472   4.456   5.616  0.1575  0.8980  0.5871
  164MOL   O16139607   0.401   4.395   5.538 -0.1750  0.1049  0.3808
  164MOL   O16239608   0.471   4.592   5.636  0.2957 -0.0228  0.4122
  164MOL   C16339609   0.398   4.674   5.546 -0.2544 -0.2146 -0.5540
  164MOL   H16439610   0.388   4.305   5.807 -0.0611  0.1563  2.1653
  164MOL   H16539611   0.472   4.429   5.901  2.6602  0.6071 -0.2722
  164MOL   H16639612   0.574   4.287   5.641 -0.9449 -0.2108 -0.0380
  164MOL   H16739613   0.464   4.698   5.463  0.1023 -2.7431 -1.0244
  164MOL   H16839614   0.375   4.771   5.591 -0.7070 -1.3452  1.6878
  164MOL   H16939615   0.306   4.629   5.508 -0.1199  0.4010 -1.6184
  164MOL   C17039616   0.707   4.430   5.738  0.0899 -0.3599  0.4844
  164MOL   C17139617   0.788   4.470   5.610  0.2135 -0.1981 -0.6814
  164MOL   C17239618   0.910   4.558   5.639  0.2050  0.0482 -0.5089
  164MOL   O17339619   1.004   4.503   5.707  1.2931  0.1187  0.0157
  164MOL   O17439620   0.913   4.669   5.561 -0.4131 -0.0050  0.4406
  164MOL   C17539621   1.024   4.753   5.568  0.7432  0.3269  0.3305
  164MOL   H17639622   0.685   4.515   5.803 -0.2993 -1.5279  1.9184
  164MOL   H17739623   0.745   4.347   5.797  1.8328  2.1688  3.0479
  164MOL   H17839624   0.726   4.539   5.553  0.3756  0.2102 -0.3626
  164MOL   H17939625   1.008   4.839   5.502 -0.8176 -0.8903 -0.9230
  164MOL   H18039626   1.123   4.710   5.548  1.6179  1.0723  2.8582
  164MOL   H18139627   1.034   4.796   5.667  0.4822  0.9116  0.1072
  164MOL   C18239628   0.828   4.352   5.521  0.1428  0.4982 -0.7044
  164MOL   C18339629   0.892   4.396   5.386 -0.3780  0.7396  0.1834
  164MOL   C18439630   0.999   4.291   5.340  0.3644 -0.0069 -0.3321
  164MOL   O18539631   1.122   4.314   5.357 -0.0507 -0.2497 -0.1598
  164MOL   O18639632   0.947   4.191   5.278 -0.0373  0.4968 -0.0109
  164MOL   C18739633   1.032   4.098   5.215  0.0205  0.1030 -0.0700
  164MOL   H18839634   0.904   4.290   5.569  0.3016  0.5170 -0.9294
  164MOL   H18939635   0.734   4.307   5.488 -0.8937  0.6120  1.9988
  164MOL   H19039636   0.950   4.487   5.403 -0.9084  1.0082  0.5585
  164MOL   H19139637   1.045   4.128   5.111 -1.1100 -2.6164 -1.0591
  164MOL   H19239638   0.995   3.995   5.220 -0.0092  0.1378  0.4447
  164MOL   H19339639   1.134   4.096   5.253 -0.4410  3.1979  1.4712
  164MOL   C19439640   0.786   4.435   5.274  0.0709  0.0851 -0.2595
  164MOL   C19539641   0.844   4.490   5.142  0.0593 -0.0121  0.4216
  164MOL   C19639642   0.829   4.388   5.027  0.6951  0.2169  0.5181
  164MOL   O19739643   0.938   4.352   4.978  0.1066  0.3501  0.4202
  164MOL   O19839644   0.709   4.360   4.977  0.3647  0.1167 -0.0994
  164MOL   C19939645   0.696   4.284   4.860  0.2389  0.2001  0.6185
  164MOL   H20039646   0.724   4.347   5.255  0.5710 -0.6144  1.2305
  164MOL   H20139647   0.729   4.518   5.315  0.7717  0.3807  0.1341
  164MOL   H20239648   0.952   4.505   5.137 -0.1579  1.7573  0.4540
  164MOL   H20339649   0.599   4.297   4.812 -0.3421 -3.9642  0.5212
  164MOL   H20439650   0.712   4.179   4.881  1.1041 -0.0156 -1.0924
  164MOL   H20539651   0.774   4.309   4.789  0.1802  1.9059  1.1072
  164MOL   C20639652   0.793   4.629   5.090 -0.8471  0.5965  0.2156
  164MOL   C20739653   0.866   4.749   5.154  0.4403 -0.3661 -0.1355
  164MOL   C20839654   1.020   4.753   5.133 -0.1185 -0.1305  0.2864
  164MOL   O20939655   1.092   4.789   5.228  0.4054 -0.3809 -0.0800
  164MOL   O21039656   1.069   4.719   5.009  0.4100 -0.7547  0.1245
  164MOL   C21139657   1.204   4.736   4.988  0.3111  0.4676 -0.1805
  164MOL   H21239658   0.809   4.629   4.982 -0.1008 -1.0154  0.3073
  164MOL   H21339659   0.686   4.634   5.110 -1.0396 -0.3427 -0.5128
  164MOL   H21439660   0.854   4.737   5.262  1.5677 -0.4110 -0.0154
  164MOL   H21539661   1.232   4.658   4.917 -1.7732  0.3292 -0.8970
  164MOL   H21639662   1.258   4.717   5.080  2.5556  0.1573 -1.5087
  164MOL   H21739663   1.230   4.828   4.936 -1.8561 -0.7200 -3.5407
  164MOL   C21839664   0.810   4.888   5.106  0.3047 -0.3502 -0.6000
  164MOL   C21939665   0.871   5.019   5.168  0.6861  0.0904  0.2009
  164MOL   C22039666   0.820   5.150   5.115  0.6035 -0.2286  0.0687
  164MOL   O22139667   0.736   5.157   5.022 -0.2529 -0.4512 -0.4149
  164MOL   O22239668   0.881   5.261   5.179 -0.0748  0.5341 -0.1630
  164MOL   C22339669   0.850   5.393   5.141  0.0398  0.3215 -0.1498
  164MOL   H22439670   0.807   4.886   4.997 -1.4467  0.7102 -0.5950
  164MOL   H22539671   0.702   4.885   5.126 -0.0144 -0.4462 -2.3170
  164MOL   H22639672   0.978   5.022   5.145  0.3746 -0.4422 -1.4381
  164MOL   H22739673   0.895   5.451   5.221 -2.1573 -0.6445  1.8343
  164MOL   H22839674   0.746   5.423   5.125 -0.8581 -1.7852  1.5327
  164MOL   H22939675   0.910   5.405   5.051 -0.2410  2.2383 -0.0974
  164MOL   C23039676   0.859   5.027   5.321 -0.1945 -1.0902 -0.2431
  164MOL   C23139677   0.717   5.026   5.382 -0.2804 -0.9515 -0.0825
  164MOL   C23239678   0.728   5.021   5.534 -0.0810  0.4253  0.2402
  164MOL   O23339679   0.720   5.129   5.605 -0.2966  0.2453  0.1372
  164MOL   O23439680   0.747   4.894   5.582  0.5504 -0.4860 -0.0238
  164MOL   C23539681   0.741   4.873   5.730  0.2226 -0.5530  0.7724
  164MOL   H23639682   0.917   4.947   5.367 -0.2611 -1.2140 -0.3725
  164MOL   H23739683   0.908   5.115   5.362 -2.0947 -0.1737  0.1054
  164MOL   H23839684   0.663   4.941   5.339  2.2700 -0.7814 -3.8087
  164MOL   H23939685   0.666   4.934   5.780 -0.5110 -0.4014 -0.5003
  164MOL   H24039686   0.833   4.898   5.783  1.3153  0.2362 -1.4355
  164MOL   H24139687   0.721   4.769   5.756 -0.7268 -0.3996  0.6937
  164MOL   H24239688   0.652   5.108   5.349 -0.2961 -0.9954 -0.1620
  165MOL     C139689   4.822   1.825   3.335  0.3583  0.1285  0.3755
  165MOL     C239690   4.754   1.883   3.463 -0.1714 -0.3662 -0.0457
  165MOL     C339691   4.799   2.022   3.504  0.3140 -0.5965 -0.2298
  165MOL     O439692   4.737   2.126   3.490  0.0854 -0.1489  0.1161
  165MOL     O539693   4.924   2.017   3.566  0.4435 -0.3052 -0.0854
  165MOL     C639694   4.989   2.139   3.623  0.3061  0.4638  0.3251
  165MOL     H739695   4.928   1.805   3.352  0.1901  0.7506  2.1832
  165MOL     H839696   4.816   1.899   3.256 -2.7664  0.0103  0.4346
  165MOL     H939697   4.793   1.820   3.543 -1.5982 -1.2334 -0.0056
  165MOL    H1039698   5.010   2.217   3.550  1.6845 -1.3072 -1.2236
  165MOL    H1139699   5.080   2.109   3.675  2.0855  2.2515 -1.6397
  165MOL    H1239700   4.924   2.184   3.698 -1.3506 -0.2838 -0.6515
  165MOL    H1339701   4.766   1.736   3.304 -1.1402  0.6709  1.4968
  165MOL    C1439702   4.603   1.880   3.470  0.1165  0.0757 -0.6096
  165MOL    C1539703   4.533   1.753   3.504 -0.0133  0.1811  0.1055
  165MOL    C1639704   4.589   1.692   3.632 -0.5232 -0.1310  0.6281
  165MOL    O1739705   4.660   1.588   3.630 -0.3737  0.1593 -0.7581
  165MOL    O1839706   4.562   1.769   3.744 -0.0137 -0.6916 -0.0399
  165MOL    C1939707   4.640   1.746   3.861 -0.1839 -0.2296 -0.4531
  165MOL    H2039708   4.571   1.947   3.549 -0.6706 -3.0154  1.8003
  165MOL    H2139709   4.576   1.924   3.374  0.5370 -0.8024 -1.1389
  165MOL    H2239710   4.554   1.684   3.423  2.2812 -0.0619  0.8831
  165MOL    H2339711   4.616   1.816   3.941 -0.1669  0.7664 -1.3212
  165MOL    H2439712   4.740   1.780   3.835  0.1574 -1.5117 -0.8560
  165MOL    H2539713   4.628   1.642   3.893  1.6455 -1.1098 -2.5598
  165MOL    C2639714   4.383   1.776   3.519  0.4114 -0.3566 -0.5001
  165MOL    C2739715   4.303   1.815   3.393 -0.3785 -0.6876  0.6845
  165MOL    C2839716   4.295   1.706   3.290  0.5494 -0.2697  0.6602
  165MOL    O2939717   4.339   1.722   3.175  0.3592  0.2319 -0.5202
  165MOL    O3039718   4.244   1.593   3.328 -0.1716 -0.0126 -0.1554
  165MOL    C3139719   4.224   1.485   3.243  0.4275  0.3446  0.3768
  165MOL    H3239720   4.328   1.692   3.562 -0.2722 -0.0134 -0.6852
  165MOL    H3339721   4.382   1.856   3.593  1.1835 -1.0535  0.2763
  165MOL    H3439722   4.354   1.898   3.344 -1.9003  0.0461  0.2848
  165MOL    H3539723   4.313   1.450   3.191  0.0804 -1.3257  0.8812
  165MOL    H3639724   4.144   1.500   3.170  1.2905 -1.9030 -1.0819
  165MOL    H3739725   4.181   1.408   3.307 -2.5592  0.3025 -1.5861
  165MOL    C3839726   4.158   1.862   3.440  0.4559 -0.3071  0.2744
  165MOL    C3939727   4.149   1.994   3.513  0.0426 -0.5261 -0.4540
  165MOL    C4039728   4.160   2.115   3.420 -0.7320 -0.4626  0.3745
  165MOL    O4139729   4.265   2.180   3.403 -0.0617  0.4494 -0.4980
  165MOL    O4239730   4.052   2.140   3.348  0.2448 -1.0060 -0.6823
  165MOL    C4339731   4.060   2.260   3.265 -0.0370  0.0343  0.1835
  165MOL    H4439732   4.096   1.865   3.351  0.8436  0.2176  0.0164
  165MOL    H4539733   4.121   1.778   3.498  0.0073 -0.6603 -0.5309
  165MOL    H4639734   4.240   2.005   3.572  0.8457  0.2747 -1.8294
  165MOL    H4739735   4.050   2.349   3.327 -1.4188  1.1364 -1.5692
  165MOL    H4839736   3.979   2.263   3.192 -0.3876  0.7329  0.5918
  165MOL    H4939737   4.156   2.263   3.214 -0.8380 -0.8969 -1.4209
  165MOL    C5039738   4.020   1.995   3.605  0.1087 -0.4727 -0.0063
  165MOL    C5139739   4.014   2.108   3.709  0.6231 -0.0157  0.2291
  165MOL    C5239740   4.147   2.128   3.787  0.7320 -0.3402 -0.4490
  165MOL    O5339741   4.226   2.218   3.763 -0.0427 -0.2076  0.7983
  165MOL    O5439742   4.171   2.018   3.861 -0.2306 -0.8962  0.2160
  165MOL    C5539743   4.304   2.004   3.910 -0.3035  0.4585  0.3173
  165MOL    H5639744   3.932   1.995   3.541  0.3131 -2.8624 -0.3627
  165MOL    H5739745   4.020   1.905   3.666 -3.4649 -0.9219 -0.6062
  165MOL    H5839746   3.944   2.076   3.787 -0.0886  1.9729  0.4342
  165MOL    H5939747   4.381   1.981   3.836  2.2289  0.9878  2.7241
  165MOL    H6039748   4.291   1.919   3.977 -1.1464  1.2470  1.1656
  165MOL    H6139749   4.329   2.098   3.959  0.0815  0.0537  0.8928
  165MOL    C6239750   3.951   2.238   3.660  0.1700 -0.2944 -0.5416
  165MOL    C6339751   3.811   2.236   3.601  0.3970 -0.1280  0.0182
  165MOL    C6439752   3.709   2.151   3.680  0.3263  0.5193  0.2532
  165MOL    O6539753   3.656   2.053   3.629  0.7323 -0.5762 -0.0242
  165MOL    O6639754   3.702   2.192   3.815 -0.6372 -0.1879  0.1787
  165MOL    C6739755   3.618   2.122   3.899 -0.4036 -0.2156 -0.4400
  165MOL    H6839756   3.957   2.312   3.739 -0.4632  0.2034 -0.9528
  165MOL    H6939757   4.016   2.278   3.582  1.1449 -0.6615  0.0843
  165MOL    H7039758   3.814   2.197   3.499  0.0785  0.3423 -0.1722
  165MOL    H7139759   3.519   2.161   3.874 -1.1103 -0.9654  1.1044
  165MOL    H7239760   3.638   2.146   4.004 -0.4963 -1.5199 -0.1134
  165MOL    H7339761   3.627   2.014   3.891  1.0020 -0.2963  1.7090
  165MOL    C7439762   3.753   2.380   3.592  0.4884 -0.5496  0.7134
  165MOL    C7539763   3.826   2.476   3.488  0.1597 -0.2880  0.4988
  165MOL    C7639764   3.759   2.483   3.349  0.1737  0.4983  0.6973
  165MOL    O7739765   3.818   2.443   3.253  0.3076 -0.0086 -0.1276
  165MOL    O7839766   3.641   2.539   3.349 -0.1488  0.2555  0.2582
  165MOL    C7939767   3.583   2.578   3.224  0.3486  0.2219  0.6483
  165MOL    H8039768   3.650   2.369   3.558  0.7875 -0.8837 -0.0922
  165MOL    H8139769   3.752   2.420   3.694  1.2681  1.1191  0.0985
  165MOL    H8239770   3.930   2.452   3.465 -0.4462 -2.4258 -0.1353
  165MOL    H8339771   3.527   2.672   3.232 -1.6983 -0.9142  0.0650
  165MOL    H8439772   3.504   2.507   3.200 -0.7535  1.2379  1.2038
  165MOL    H8539773   3.641   2.584   3.132 -1.9306 -0.6856 -0.8961
  165MOL    C8639774   3.831   2.617   3.555  0.0289 -0.1479 -0.6009
  165MOL    C8739775   3.934   2.634   3.673 -0.1799  0.5304 -0.2685
  165MOL    C8839776   4.087   2.646   3.629 -0.3472 -0.6028  0.6802
  165MOL    O8939777   4.158   2.746   3.648  0.1313  0.9054 -0.3136
  165MOL    O9039778   4.131   2.534   3.574  0.0942  0.8003 -0.2991
  165MOL    C9139779   4.263   2.526   3.527 -0.0829 -0.2588 -0.6322
  165MOL    H9239780   3.854   2.698   3.487 -0.5978 -0.2956 -0.9933
  165MOL    H9339781   3.733   2.644   3.594  0.4377  1.7335 -0.8691
  165MOL    H9439782   3.938   2.538   3.724 -0.2596  0.6485 -0.0432
  165MOL    H9539783   4.337   2.560   3.600  0.1324  1.3902 -1.5791
  165MOL    H9639784   4.277   2.599   3.447  0.8135  0.6263  0.3098
  165MOL    H9739785   4.282   2.423   3.497 -0.8366 -0.4854 -0.3440
  165MOL    C9839786   3.890   2.731   3.794 -0.0449 -0.6771 -0.2888
  165MOL    C9939787   3.907   2.888   3.776 -0.0128  0.3375 -0.0235
  165MOL   C10039788   3.840   2.949   3.654  0.0358  0.1923 -0.0473
  165MOL   O10139789   3.907   3.027   3.580 -0.1243 -0.1770  1.0566
  165MOL   O10239790   3.714   2.899   3.637  0.7001  0.0745 -0.0951
  165MOL   C10339791   3.646   2.927   3.513  0.2099  0.0376  0.0694
  165MOL   H10439792   3.788   2.703   3.821 -0.1978  0.3335  0.1844
  165MOL   H10539793   3.954   2.722   3.882  1.1812 -0.7224 -1.1598
  165MOL   H10639794   4.014   2.898   3.760 -0.0992  0.4506 -0.5212
  165MOL   H10739795   3.629   3.034   3.501  2.3541  0.3101 -0.6518
  165MOL   H10839796   3.554   2.870   3.524  1.3491 -1.5957  1.5820
  165MOL   H10939797   3.707   2.890   3.431  0.0254  0.4928 -0.2711
  165MOL   C11039798   3.872   2.966   3.910  0.3173 -0.4579 -0.0503
  165MOL   C11139799   3.971   3.083   3.963  0.4457  0.2769  0.3158
  165MOL   C11239800   4.111   3.029   3.968 -0.3427 -0.3184  0.2116
  165MOL   O11339801   4.212   3.087   3.919  0.2950 -0.4093  0.3310
  165MOL   O11439802   4.116   2.914   4.035 -0.0913 -0.5334 -0.1369
  165MOL   C11539803   4.236   2.856   4.068  0.3019 -0.0253 -0.0344
  165MOL   H11639804   3.768   2.997   3.905 -0.6579 -3.4583  0.3459
  165MOL   H11739805   3.855   2.892   3.988 -0.6709 -1.2869 -1.0242
  165MOL   H11839806   3.944   3.098   4.067 -6.0636  3.2494 -1.5316
  165MOL   H11939807   4.287   2.919   4.142 -1.0313  2.7593 -1.4188
  165MOL   H12039808   4.316   2.854   3.994  0.9692  2.2480  0.5822
  165MOL   H12139809   4.218   2.753   4.098 -1.6108 -0.0011 -1.0118
  165MOL   C12239810   3.950   3.211   3.878 -0.0598 -0.5560  0.1998
  165MOL   C12339811   3.823   3.299   3.906 -0.3489 -0.3308 -0.0620
  165MOL   C12439812   3.810   3.358   4.046 -0.2303 -0.3880 -0.4442
  165MOL   O12539813   3.715   3.328   4.120  0.1350 -0.0820  0.3399
  165MOL   O12639814   3.896   3.457   4.061 -0.4574 -1.1190 -0.3575
  165MOL   C12739815   3.880   3.532   4.188  0.6323  0.2746 -0.4517
  165MOL   H12839816   4.036   3.276   3.889 -0.1587 -0.3602 -0.1603
  165MOL   H12939817   3.968   3.178   3.776  1.3922  1.0083 -0.0725
  165MOL   H13039818   3.743   3.226   3.892  1.2039 -2.3181  1.1252
  165MOL   H13139819   3.833   3.473   4.266 -0.4753  1.9487  0.1779
  165MOL   H13239820   3.835   3.630   4.170 -0.0850 -0.1672 -1.0730
  165MOL   H13339821   3.982   3.548   4.222  0.9295  0.0067 -1.1968
  165MOL   C13439822   3.783   3.407   3.801  0.2472  0.2086  0.5810
  165MOL   C13539823   3.719   3.352   3.668 -0.7316 -0.3738 -0.4498
  165MOL   C13639824   3.585   3.293   3.691  0.5512 -0.2600 -0.3842
  165MOL   O13739825   3.560   3.175   3.677 -0.1833 -0.3146  0.1835
  165MOL   O13839826   3.490   3.389   3.726 -0.4014  0.1232 -0.0065
  165MOL   C13939827   3.355   3.359   3.746  0.3569 -0.2996 -0.3872
  165MOL   H14039828   3.719   3.474   3.857 -1.9826 -2.2088  1.0071
  165MOL   H14139829   3.869   3.467   3.771  0.9923 -1.4797 -0.7871
  165MOL   H14239830   3.788   3.272   3.641  1.0870  0.4414  1.5503
  165MOL   H14339831   3.343   3.299   3.837  1.2249 -0.3029 -0.2754
  165MOL   H14439832   3.298   3.311   3.667 -0.1312  0.7432 -0.6822
  165MOL   H14539833   3.311   3.459   3.755  0.8898 -0.0281 -0.7929
  165MOL   C14639834   3.726   3.457   3.553 -0.2617  0.1893 -0.0994
  165MOL   C14739835   3.722   3.372   3.415  0.9986 -0.0894 -0.4328
  165MOL   C14839836   3.625   3.439   3.319 -1.1794  0.0163 -0.4009
  165MOL   O14939837   3.529   3.380   3.269  0.3885  0.4664 -0.3347
  165MOL   O15039838   3.671   3.564   3.291  0.2934  0.2722  0.1755
  165MOL   C15139839   3.575   3.632   3.206  0.2266 -0.4232 -0.0415
  165MOL   H15239840   3.639   3.521   3.564  0.2678  1.0636 -0.9459
  165MOL   H15339841   3.822   3.510   3.548 -0.1856  0.0614  0.0007
  165MOL   H15439842   3.677   3.276   3.441  0.3221  0.0706 -1.0111
  165MOL   H15539843   3.477   3.635   3.251 -0.5632  0.3525 -1.7484
  165MOL   H15639844   3.559   3.580   3.111  0.6961  1.4974 -1.1982
  165MOL   H15739845   3.607   3.736   3.196  0.4209 -0.4561  0.2346
  165MOL   C15839846   3.866   3.362   3.356  0.2093  0.3376  0.0915
  165MOL   C15939847   3.880   3.265   3.235 -0.0452 -0.1442  0.0621
  165MOL   C16039848   4.010   3.295   3.149  0.3558  0.1663 -0.2654
  165MOL   O16139849   4.090   3.204   3.115 -0.1044  0.4589 -0.4835
  165MOL   O16239850   4.020   3.424   3.103  0.4328 -0.2539 -0.2676
  165MOL   C16339851   4.138   3.462   3.036  0.5005 -0.2866 -0.0198
  165MOL   H16439852   3.921   3.454   3.331  0.5985 -0.5550 -2.4561
  165MOL   H16539853   3.933   3.315   3.428  0.2336 -1.0912 -0.8559
  165MOL   H16639854   3.800   3.293   3.167 -1.0853 -0.0079  1.3318
  165MOL   H16739855   4.101   3.526   2.956  2.2509  1.3672  0.4532
  165MOL   H16839856   4.194   3.388   2.980 -0.7611  1.3346 -3.5312
  165MOL   H16939857   4.210   3.512   3.101  0.4441 -3.7355  2.8474
  165MOL   C17039858   3.884   3.116   3.281  0.6367 -0.0483 -0.2073
  165MOL   C17139859   3.819   3.024   3.174  0.3326 -0.0256  0.3408
  165MOL   C17239860   3.861   2.878   3.203 -0.0849  0.1082  0.9318
  165MOL   O17339861   3.780   2.791   3.231 -0.0399  0.3720  0.0427
  165MOL   O17439862   3.989   2.851   3.187 -0.1096  0.5409 -0.3728
  165MOL   C17539863   4.031   2.712   3.188  0.8981  0.5073 -0.2128
  165MOL   H17639864   3.984   3.086   3.312  0.5278 -1.0665 -0.8226
  165MOL   H17739865   3.824   3.114   3.373  1.2077 -1.8059  0.1494
  165MOL   H17839866   3.852   3.045   3.073  0.3365 -1.0756  0.1146
  165MOL   H17939867   3.981   2.666   3.273 -1.4508  0.3235 -1.6592
  165MOL   H18039868   4.139   2.700   3.201  0.8193 -0.4715 -0.4443
  165MOL   H18139869   3.995   2.660   3.099 -3.2411 -0.1089  1.6951
  165MOL   C18239870   3.663   3.043   3.176 -0.2009 -0.0297  0.0023
  165MOL   C18339871   3.580   2.988   3.056 -0.5619  0.4005 -0.0643
  165MOL   C18439872   3.432   2.952   3.094 -0.0281  0.3892 -1.0245
  165MOL   O18539873   3.405   2.835   3.134 -0.1146  0.1516  0.2628
  165MOL   O18639874   3.343   3.052   3.068  0.1605 -0.0577 -0.6460
  165MOL   C18739875   3.204   3.026   3.085  0.5797 -0.1456 -0.1444
  165MOL   H18839876   3.637   2.990   3.268  3.1700 -0.7508  0.6174
  165MOL   H18939877   3.635   3.146   3.195 -3.1122 -1.1953  2.4586
  165MOL   H19039878   3.613   2.886   3.036  0.8764  0.9147 -0.3250
  165MOL   H19139879   3.145   3.100   3.030  0.1956 -1.6010 -1.7358
  165MOL   H19239880   3.190   3.022   3.193 -4.2152 -0.1037 -0.6608
  165MOL   H19339881   3.187   2.927   3.042  1.0352 -0.0338 -0.5858
  165MOL   C19439882   3.594   3.054   2.913  0.4427 -0.2282 -0.6490
  165MOL   C19539883   3.553   3.198   2.916  0.1832  0.1281  0.0063
  165MOL   C19639884   3.672   3.298   2.909  0.3879  0.1095  0.3963
  165MOL   O19739885   3.672   3.385   2.993  0.5031 -0.6830 -0.0892
  165MOL   O19839886   3.749   3.283   2.800 -0.1042  0.4084 -0.7119
  165MOL   C19939887   3.849   3.377   2.771 -0.4194 -0.0481 -0.0042
  165MOL   H20039888   3.699   3.040   2.885  1.2084  0.2044  1.8492
  165MOL   H20139889   3.532   2.997   2.845  0.7563 -3.7058  1.8041
  165MOL   H20239890   3.503   3.225   3.010 -0.1499  0.9426 -0.3970
  165MOL   H20339891   3.942   3.353   2.822 -1.9557 -1.3937  2.2740
  165MOL   H20439892   3.807   3.473   2.802  1.7710 -0.1243  3.4928
  165MOL   H20539893   3.863   3.377   2.663 -1.6268 -0.3949 -0.1718
  165MOL   C20639894   3.450   3.241   2.806 -0.3623  0.1706 -0.7414
  165MOL   C20739895   3.361   3.361   2.821  0.0252 -0.0370 -0.2299
  165MOL   C20839896   3.297   3.386   2.683 -0.0572  0.5943  0.1069
  165MOL   O20939897   3.222   3.305   2.629  0.7543  0.5642 -0.6380
  165MOL   O21039898   3.332   3.502   2.635 -0.2280 -0.4447  0.1561
  165MOL   C21139899   3.286   3.554   2.513 -0.6999 -0.1627 -0.0568
  165MOL   H21239900   3.501   3.232   2.710  1.3499 -1.0807  0.2685
  165MOL   H21339901   3.389   3.151   2.796 -1.4434  0.2852  3.8066
  165MOL   H21439902   3.428   3.447   2.830  0.4258 -0.3177 -0.5101
  165MOL   H21539903   3.339   3.644   2.485  1.6579 -1.3036  0.5671
  165MOL   H21639904   3.180   3.576   2.516 -0.8283 -0.9068  1.8512
  165MOL   H21739905   3.314   3.482   2.436 -0.5056  0.2650 -0.3862
  165MOL   C21839906   3.260   3.339   2.929 -0.3280 -0.6918  0.0260
  165MOL   C21939907   3.202   3.462   2.994 -0.2266 -0.0513  0.5514
  165MOL   C22039908   3.100   3.540   2.899  0.2493  0.4275  0.2534
  165MOL   O22139909   3.122   3.656   2.869  0.2302  0.3678 -0.0170
  165MOL   O22239910   2.999   3.458   2.863 -0.1363 -0.6250 -0.2955
  165MOL   C22339911   2.887   3.515   2.804  0.3205 -0.6808  0.2071
  165MOL   H22439912   3.186   3.266   2.897 -0.7818 -0.2600  0.0940
  165MOL   H22539913   3.320   3.295   3.009  1.3466  0.0601 -0.7873
  165MOL   H22639914   3.279   3.539   3.005 -1.5156  1.1860  1.1332
  165MOL   H22739915   2.920   3.550   2.707 -0.9720 -0.7985 -0.2822
  165MOL   H22839916   2.844   3.593   2.867  0.7783  0.8056 -1.2973
  165MOL   H22939917   2.811   3.438   2.788 -0.8443  0.1692  1.4860
  165MOL   C23039918   3.131   3.437   3.132  0.3025  0.0073  0.3152
  165MOL   C23139919   3.084   3.564   3.204  0.1308  0.2445  0.3383
  165MOL   C23239920   3.055   3.534   3.348 -0.1149  0.3695 -0.1059
  165MOL   O23339921   3.142   3.490   3.420  0.0650  0.5326 -0.1248
  165MOL   O23439922   2.936   3.577   3.400  0.0053 -0.2876  0.2047
  165MOL   C23539923   2.919   3.558   3.536  0.3231 -0.0809 -0.3970
  165MOL   H23639924   3.036   3.386   3.118  1.6297 -2.1763 -0.9768
  165MOL   H23739925   3.200   3.381   3.195  1.0825  0.3413 -0.2388
  165MOL   H23839926   2.986   3.592   3.165  0.6793  0.4562 -0.9123
  165MOL   H23939927   3.013   3.571   3.591  0.9013 -0.4407 -1.2817
  165MOL   H24039928   2.892   3.455   3.558  1.0084 -0.5101 -1.5233
  165MOL   H24139929   2.848   3.628   3.579 -1.2680 -2.3261  0.7108
  165MOL   H24239930   3.147   3.652   3.218 -1.1669  1.0094  1.5637
  166MOL     C139931   2.380   1.137   5.982 -0.2625  1.0349 -0.6553
  166MOL     C239932   2.420   1.276   6.034 -0.8109  0.1053  0.0655
  166MOL     C339933   2.306   1.343   6.112 -0.3412  0.4399  0.6336
  166MOL     O439934   2.208   1.289   6.146  0.3349  0.3461 -0.2179
  166MOL     O539935   2.322   1.479   6.129  0.1774  0.0935  0.1123
  166MOL     C639936   2.212   1.554   6.168 -0.3809  0.6209  0.2471
  166MOL     H739937   2.457   1.103   5.913 -0.7087 -0.6681 -0.3179
  166MOL     H839938   2.291   1.146   5.921  1.2588 -2.5938 -3.5522
  166MOL     H939939   2.418   1.333   5.941 -2.0881  0.6585  0.4128
  166MOL    H1039940   2.147   1.574   6.082 -0.2882  1.6481  0.4107
  166MOL    H1139941   2.242   1.650   6.211  3.1862 -1.3731  2.4942
  166MOL    H1239942   2.156   1.502   6.246  3.4176 -0.3651  2.4365
  166MOL    H1339943   2.361   1.069   6.065 -1.1114  1.3928 -0.5506
  166MOL    C1439944   2.554   1.279   6.103 -0.3227  0.8471  0.1628
  166MOL    C1539945   2.587   1.254   6.259 -0.6596  0.2729  0.5494
  166MOL    C1639946   2.544   1.111   6.285  0.3360  0.0442  0.4452
  166MOL    O1739947   2.625   1.017   6.288 -0.2526  0.0975  0.1028
  166MOL    O1839948   2.410   1.092   6.309  0.1087  0.0207  0.2995
  166MOL    C1939949   2.359   0.964   6.313 -0.2770  0.1399  0.0921
  166MOL    H2039950   2.622   1.210   6.052 -1.6630 -0.5060  0.1580
  166MOL    H2139951   2.598   1.378   6.090 -0.8013  1.1453  0.7803
  166MOL    H2239952   2.512   1.307   6.317 -2.4047  0.6665 -2.0043
  166MOL    H2339953   2.386   0.910   6.222  2.3730 -0.0609  0.9330
  166MOL    H2439954   2.253   0.961   6.334 -0.1251  0.1769  0.8734
  166MOL    H2539955   2.420   0.929   6.396 -1.5413  2.2560  1.9668
  166MOL    C2639956   2.739   1.278   6.282  0.0133 -0.2081 -0.2593
  166MOL    C2739957   2.796   1.257   6.432  0.0064 -0.2931  0.5898
  166MOL    C2839958   2.947   1.276   6.433 -0.3408  0.2209  0.2502
  166MOL    O2939959   2.995   1.374   6.367 -0.0414  0.1547  0.5700
  166MOL    O3039960   3.017   1.179   6.486 -0.1327  0.3571 -0.4884
  166MOL    C3139961   3.156   1.203   6.504  0.0939  0.3225  0.2443
  166MOL    H3239962   2.802   1.217   6.217 -0.0206  0.2671 -0.7497
  166MOL    H3339963   2.764   1.377   6.244  0.1116 -0.3873 -0.6693
  166MOL    H3439964   2.765   1.157   6.462  1.6725 -0.5356  1.5783
  166MOL    H3539965   3.168   1.292   6.566 -3.0828 -0.4261  2.0403
  166MOL    H3639966   3.197   1.222   6.404  1.3164  0.3593  0.7491
  166MOL    H3739967   3.215   1.123   6.548  0.1560  0.7174  0.8880
  166MOL    C3839968   2.723   1.355   6.523 -0.7755  0.1696 -0.5998
  166MOL    C3939969   2.736   1.346   6.682 -0.0321  0.4533  0.8852
  166MOL    C4039970   2.714   1.205   6.730  0.2722 -0.0948 -0.4031
  166MOL    O4139971   2.809   1.137   6.773 -0.3825 -0.9535 -0.1057
  166MOL    O4239972   2.594   1.163   6.703 -0.1086 -0.0528 -0.1413
  166MOL    C4339973   2.570   1.037   6.747  0.5910 -0.5193 -0.4046
  166MOL    H4439974   2.751   1.457   6.498 -1.5162  0.5417  0.0754
  166MOL    H4539975   2.615   1.358   6.505 -0.7621  0.6546 -0.6147
  166MOL    H4639976   2.644   1.395   6.712 -1.2046 -0.7367 -0.6725
  166MOL    H4739977   2.485   0.991   6.697 -0.9815 -0.1770  1.9070
  166MOL    H4839978   2.535   1.038   6.850  0.4230  2.3581 -0.4449
  166MOL    H4939979   2.650   0.967   6.722  2.1618  1.0058  0.2371
  166MOL    C5039980   2.856   1.417   6.752  0.3345  0.3103  0.0677
  166MOL    C5139981   2.868   1.570   6.747 -0.5344 -0.0897 -0.0855
  166MOL    C5239982   2.751   1.637   6.821 -0.5639 -0.4354 -1.0009
  166MOL    O5339983   2.656   1.576   6.869  0.1533  0.3320 -0.1731
  166MOL    O5439984   2.761   1.768   6.823  0.1008 -0.5604  0.8874
  166MOL    C5539985   2.650   1.845   6.881 -0.4602  0.6280  0.5258
  166MOL    H5639986   2.843   1.390   6.857 -0.1062  0.1040 -0.0346
  166MOL    H5739987   2.949   1.371   6.721  0.8097 -0.7107  2.8140
  166MOL    H5839988   2.861   1.602   6.643 -0.5670 -0.0066 -0.0581
  166MOL    H5939989   2.561   1.838   6.820  0.5026 -0.4868 -0.7720
  166MOL    H6039990   2.667   1.953   6.870  0.1192  0.5683  0.7768
  166MOL    H6139991   2.619   1.832   6.985  0.1563 -1.1808  0.4979
  166MOL    C6239992   3.013   1.615   6.812 -0.3027  0.1167  0.1004
  166MOL    C6339993   3.106   1.685   6.707  0.4945 -0.0045 -0.8286
  166MOL    C6439994   3.069   1.821   6.665 -0.2423 -0.4405 -0.1401
  166MOL    O6539995   3.058   1.845   6.548 -0.0238  0.4076 -0.3097
  166MOL    O6639996   3.057   1.910   6.761 -0.1630  0.3711  0.2732
  166MOL    C6739997   3.030   2.043   6.735 -0.2867 -0.4272 -0.3087
  166MOL    H6839998   3.005   1.678   6.901  1.2919  0.7990 -0.2296
  166MOL    H6939999   3.068   1.527   6.844  0.8992  0.4365 -1.0420
  166MOL    H7040000   3.104   1.621   6.619  0.5096 -1.9580  0.5691
  166MOL    H7140001   3.044   2.100   6.827 -0.1217 -1.5977  0.3982
  166MOL    H7240002   2.924   2.048   6.713 -0.8036 -3.6649  1.1904
  166MOL    H7340003   3.073   2.085   6.644  1.7134  0.8029  1.1598
  166MOL    C7440004   3.253   1.678   6.763  0.5067 -0.0422 -0.1745
  166MOL    C7540005   3.356   1.702   6.659 -0.3148 -0.2952  0.5171
  166MOL    C7640006   3.483   1.735   6.730 -0.5432 -0.3046  0.0521
  166MOL    O7740007   3.513   1.850   6.754  0.0241 -0.0120 -0.6616
  166MOL    O7840008   3.550   1.622   6.762  0.1516 -0.3242 -0.5052
  166MOL    C7940009   3.660   1.633   6.852  0.0212  0.3594  0.1110
  166MOL    H8040010   3.262   1.757   6.838 -0.5118  0.3822 -0.4992
  166MOL    H8140011   3.269   1.581   6.810 -0.1688 -1.3527 -2.5994
  166MOL    H8240012   3.323   1.789   6.603  0.7149 -0.2613 -0.0562
  166MOL    H8340013   3.652   1.718   6.920  2.3658 -0.8617  1.9628
  166MOL    H8440014   3.754   1.639   6.798 -0.0348  2.4215  0.2183
  166MOL    H8540015   3.657   1.537   6.905  0.6143 -0.0756 -0.6397
  166MOL    C8640016   3.366   1.582   6.558 -0.1444  0.1476 -0.9764
  166MOL    C8740017   3.370   1.638   6.410 -0.0850  0.2953  1.0049
  166MOL    C8840018   3.505   1.710   6.392 -0.5617 -0.3408 -0.2028
  166MOL    O8940019   3.514   1.831   6.406 -0.4850  0.3251  0.1945
  166MOL    O9040020   3.608   1.627   6.387 -0.6675 -0.4975  0.1360
  166MOL    C9140021   3.741   1.675   6.361 -0.6420  0.4580 -0.0578
  166MOL    H9240022   3.450   1.514   6.573 -0.5058 -0.1671 -0.3641
  166MOL    H9340023   3.275   1.523   6.575  0.9102 -0.7695  1.8023
  166MOL    H9440024   3.294   1.715   6.394 -0.2791 -0.1271 -0.1385
  166MOL    H9540025   3.794   1.622   6.282  3.1059  3.2068  0.4343
  166MOL    H9640026   3.798   1.659   6.452  1.7315  0.5526 -1.4758
  166MOL    H9740027   3.755   1.780   6.334  0.0541 -0.1842 -2.3990
  166MOL    C9840028   3.340   1.530   6.301  0.3590  0.9512 -0.7420
  166MOL    C9940029   3.326   1.598   6.162  0.1945  0.2504  0.0319
  166MOL   C10040030   3.420   1.533   6.063 -0.0770 -0.1903 -0.1312
  166MOL   O10140031   3.484   1.429   6.074 -0.4046  0.0866 -0.0992
  166MOL   O10240032   3.420   1.602   5.945 -0.0786 -0.6287 -0.1203
  166MOL   C10340033   3.459   1.534   5.826 -0.1116 -0.5914 -0.0291
  166MOL   H10440034   3.394   1.437   6.317  2.1096  2.0519 -0.1391
  166MOL   H10540035   3.234   1.513   6.322  0.0895  1.8517 -1.3103
  166MOL   H10640036   3.361   1.701   6.172 -1.7262  0.8519  0.8748
  166MOL   H10740037   3.388   1.456   5.798  0.8313 -0.8792 -1.6812
  166MOL   H10840038   3.564   1.504   5.837  1.2934  3.8360 -0.5839
  166MOL   H10940039   3.451   1.607   5.746  0.5205 -0.1178  0.3338
  166MOL   C11040040   3.178   1.608   6.107 -0.2076  0.1705 -0.8153
  166MOL   C11140041   3.077   1.706   6.183 -0.0688  0.4580 -0.0374
  166MOL   C11240042   3.113   1.854   6.165 -0.2726 -0.1874  0.1306
  166MOL   O11340043   3.056   1.935   6.089 -0.0057  0.1653 -0.2723
  166MOL   O11440044   3.236   1.875   6.217  0.6413 -0.5008 -0.6911
  166MOL   C11540045   3.291   2.011   6.200 -0.2259  0.3609  0.4298
  166MOL   H11640046   3.187   1.634   6.002 -0.1225  0.3828 -0.7557
  166MOL   H11740047   3.137   1.508   6.093  0.9660 -0.5111  0.5262
  166MOL   H11840048   3.069   1.695   6.291 -0.1241 -1.1303 -0.1853
  166MOL   H11940049   3.254   2.086   6.270 -0.4870 -0.7510  1.4913
  166MOL   H12040050   3.267   2.050   6.101  0.4624  1.5289  0.7050
  166MOL   H12140051   3.400   2.010   6.207 -0.0901  1.3959 -1.2879
  166MOL   C12240052   2.935   1.677   6.123  0.6257  0.0394  0.4316
  166MOL   C12340053   2.819   1.763   6.178  0.9041  1.0457  0.4548
  166MOL   C12440054   2.712   1.777   6.072 -0.6213 -0.6177  0.5995
  166MOL   O12540055   2.702   1.882   6.007 -0.4339 -0.2652 -0.2783
  166MOL   O12640056   2.647   1.669   6.040  0.6510 -0.6539 -0.9016
  166MOL   C12740057   2.536   1.666   5.955 -0.1255  0.1960 -0.2960
  166MOL   H12840058   2.939   1.693   6.015 -1.7238  1.1183  0.4672
  166MOL   H12940059   2.914   1.570   6.122  1.9615 -0.2811 -3.7160
  166MOL   H13040060   2.860   1.859   6.210  2.0754  0.8741 -0.5170
  166MOL   H13140061   2.514   1.756   5.898 -1.2457  0.0459 -0.1046
  166MOL   H13240062   2.446   1.631   6.005  0.6750 -0.7710  0.4959
  166MOL   H13340063   2.554   1.585   5.883  1.7951  0.9533 -0.7035
  166MOL   C13440064   2.745   1.695   6.296  0.0169  0.4144  0.1721
  166MOL   C13540065   2.607   1.750   6.341 -0.4198 -0.1602 -0.1177
  166MOL   C13640066   2.549   1.649   6.444  0.1200 -0.3384  0.8343
  166MOL   O13740067   2.570   1.653   6.564  0.1649 -0.4847  0.6101
  166MOL   O13840068   2.467   1.565   6.383  0.2843 -0.1150  0.6945
  166MOL   C13940069   2.378   1.484   6.461  0.0638  0.1099  0.8743
  166MOL   H14040070   2.725   1.593   6.261  0.1524  0.9014 -1.3578
  166MOL   H14140071   2.811   1.695   6.383 -0.8673 -3.1075  0.9136
  166MOL   H14240072   2.533   1.753   6.262 -0.5077  0.1458 -0.0238
  166MOL   H14340073   2.347   1.395   6.408 -0.8188  1.2921 -0.6524
  166MOL   H14440074   2.289   1.546   6.478  0.7531  0.7791  2.1042
  166MOL   H14540075   2.416   1.460   6.561 -0.2631  1.2934  1.2967
  166MOL   C14640076   2.620   1.893   6.398  0.4868  0.0715  0.0441
  166MOL   C14740077   2.483   1.971   6.399  0.2788 -0.5497  0.4694
  166MOL   C14840078   2.394   1.948   6.278 -0.1207 -0.0989 -0.3882
  166MOL   O14940079   2.285   1.889   6.285 -0.1766 -0.5561  0.1487
  166MOL   O15040080   2.444   1.998   6.165  0.6308 -0.5779  0.1249
  166MOL   C15140081   2.369   1.986   6.047  0.0873 -0.2327  0.2149
  166MOL   H15240082   2.679   1.901   6.489  2.9717 -1.4209 -1.3629
  166MOL   H15340083   2.690   1.955   6.341  2.1744  0.8997  2.9140
  166MOL   H15440084   2.504   2.078   6.399  2.3566 -0.9381  0.1163
  166MOL   H15540085   2.425   1.951   5.961  0.3935  0.6290  0.0608
  166MOL   H15640086   2.319   2.082   6.033 -0.2826 -0.4888 -0.2283
  166MOL   H15740087   2.292   1.908   6.042  1.8698 -2.2583  2.7800
  166MOL   C15840088   2.400   1.956   6.528 -0.1998  0.3820 -0.2575
  166MOL   C15940089   2.283   2.062   6.539 -0.6697  0.0834  0.6044
  166MOL   C16040090   2.189   2.021   6.651  0.1621 -0.3152  0.4040
  166MOL   O16140091   2.068   2.017   6.638  0.3562  0.3799  0.2287
  166MOL   O16240092   2.255   2.001   6.764  0.0411 -0.2984 -0.3035
  166MOL   C16340093   2.183   1.981   6.889  0.3581  0.3280  0.8995
  166MOL   H16440094   2.355   1.857   6.535 -0.3790  0.5543  1.2788
  166MOL   H16540095   2.463   1.969   6.616  0.1232  1.0414 -0.5844
  166MOL   H16640096   2.221   2.062   6.449 -1.5045  0.5461  1.1653
  166MOL   H16740097   2.149   1.878   6.892  0.6975  0.1996  0.4143
  166MOL   H16840098   2.100   2.051   6.899  0.8590  0.7719  2.0109
  166MOL   H16940099   2.263   1.976   6.963  0.0449 -0.6957  1.1730
  166MOL   C17040100   2.311   2.219   6.534 -0.1763  0.1451 -0.5414
  166MOL   C17140101   2.389   2.283   6.655  0.0136  0.2498 -0.1147
  166MOL   C17240102   2.533   2.234   6.656  0.3684  0.0215  0.3180
  166MOL   O17340103   2.569   2.162   6.746 -0.0802  0.1072  0.6675
  166MOL   O17440104   2.613   2.272   6.555  0.7832  0.4021  0.4443
  166MOL   C17540105   2.740   2.229   6.556  0.4638 -0.7677  0.7586
  166MOL   H17640106   2.364   2.239   6.441  1.3190 -1.6100 -0.0876
  166MOL   H17740107   2.212   2.263   6.538 -0.6489 -0.9380 -0.2344
  166MOL   H17840108   2.346   2.259   6.752  1.2226 -1.2163  0.0805
  166MOL   H17940109   2.799   2.268   6.638  0.1864 -0.5709  0.8658
  166MOL   H18040110   2.791   2.272   6.470 -1.6049 -0.1729 -0.2169
  166MOL   H18140111   2.737   2.122   6.536 -0.8336 -0.3978 -1.2071
  166MOL   C18240112   2.383   2.434   6.637 -0.9433 -0.2105 -0.2322
  166MOL   C18340113   2.460   2.511   6.750  0.5036  0.1822  0.5485
  166MOL   C18440114   2.544   2.617   6.684  0.4912  0.5708  0.2022
  166MOL   O18540115   2.665   2.621   6.692  0.0286 -0.0111 -0.1443
  166MOL   O18640116   2.473   2.699   6.607  0.0191 -0.1308  0.1879
  166MOL   C18740117   2.538   2.816   6.560  0.1720  0.3061  0.0509
  166MOL   H18840118   2.428   2.458   6.540  0.9230  0.8535  0.8727
  166MOL   H18940119   2.283   2.475   6.629 -0.1067  1.7134 -1.0594
  166MOL   H19040120   2.534   2.445   6.796 -1.0438 -1.4665  0.7253
  166MOL   H19140121   2.588   2.782   6.469 -0.2907 -0.8019  0.1951
  166MOL   H19240122   2.618   2.858   6.621  0.7609 -0.5006 -0.1530
  166MOL   H19340123   2.465   2.891   6.531 -0.8880 -0.5028  0.5670
  166MOL   C19440124   2.365   2.581   6.848 -0.5339 -0.4992 -0.4626
  166MOL   C19540125   2.282   2.478   6.931 -1.2104 -0.4151  0.2840
  166MOL   C19640126   2.376   2.400   7.030 -0.0529 -0.1215 -0.1812
  166MOL   O19740127   2.384   2.434   7.146  0.3410  0.1335  0.0720
  166MOL   O19840128   2.429   2.296   6.979 -0.1697 -0.0543 -0.4609
  166MOL   C19940129   2.490   2.206   7.073 -0.2346  0.0690  0.1573
  166MOL   H20040130   2.423   2.645   6.914 -0.9926  1.8358 -2.2675
  166MOL   H20140131   2.298   2.644   6.789  1.1625 -0.0688 -1.9486
  166MOL   H20240132   2.245   2.403   6.861 -1.2190 -0.5020  0.3808
  166MOL   H20340133   2.433   2.193   7.164 -1.1146 -1.8145 -0.6362
  166MOL   H20440134   2.593   2.222   7.106 -0.1368 -1.0012  0.4004
  166MOL   H20540135   2.499   2.117   7.010 -0.9837 -0.2472  0.4956
  166MOL   C20640136   2.170   2.550   6.994 -0.0175 -0.5617  0.3879
  166MOL   C20740137   2.068   2.460   7.069 -0.3886  0.6707  0.5977
  166MOL   C20840138   1.958   2.550   7.138 -0.4079  0.4128 -0.6545
  166MOL   O20940139   1.939   2.668   7.103  0.2464 -0.4716  0.1612
  166MOL   O21040140   1.875   2.484   7.223 -0.1157  0.0772 -0.4965
  166MOL   C21140141   1.763   2.560   7.268  0.0679 -0.4799 -0.1142
  166MOL   H21240142   2.209   2.620   7.068 -1.9086 -0.0121  0.9043
  166MOL   H21340143   2.117   2.609   6.919  0.9932 -0.8934 -0.5932
  166MOL   H21440144   2.124   2.408   7.146 -1.4870 -0.2231  0.7931
  166MOL   H21540145   1.706   2.566   7.176 -1.0928 -0.0293  0.6276
  166MOL   H21640146   1.785   2.661   7.302 -1.5717  0.2800 -1.2780
  166MOL   H21740147   1.688   2.511   7.331  1.0289  0.5661  1.8856
  166MOL   C21840148   1.998   2.354   6.979  0.1555 -0.5796  0.4155
  166MOL   C21940149   1.893   2.402   6.878  0.3297 -0.6747  0.1534
  166MOL   C22040150   1.953   2.475   6.758 -0.0447 -0.2731 -0.1083
  166MOL   O22140151   2.050   2.433   6.693 -0.7144  0.4655  0.0420
  166MOL   O22240152   1.896   2.596   6.733 -0.1515 -0.4284  0.1814
  166MOL   C22340153   1.951   2.693   6.647 -0.2855  0.1161 -0.2523
  166MOL   H22440154   2.075   2.288   6.939 -3.0733 -1.9018 -3.9328
  166MOL   H22540155   1.938   2.292   7.045 -2.2630  1.8514  0.6078
  166MOL   H22640156   1.821   2.466   6.929 -0.6252 -1.3866 -0.2848
  166MOL   H22740157   1.888   2.692   6.557 -0.2121  0.5724 -0.3121
  166MOL   H22840158   2.056   2.671   6.627 -0.4614 -0.4921 -0.5069
  166MOL   H22940159   1.944   2.786   6.704  0.3315  0.2818 -0.4465
  166MOL   C23040160   1.808   2.278   6.831  0.0495  0.2661  0.4098
  166MOL   C23140161   1.676   2.316   6.769  0.2398 -0.1715  0.0350
  166MOL   C23240162   1.599   2.192   6.713  0.0474  0.3648  0.0725
  166MOL   O23340163   1.509   2.141   6.773 -0.1929 -0.4199 -0.9996
  166MOL   O23440164   1.653   2.163   6.598  0.1387  0.1747  0.5269
  166MOL   C23540165   1.593   2.059   6.517 -0.0393 -0.4430  0.2240
  166MOL   H23640166   1.876   2.223   6.766  0.9120  2.3902 -0.5550
  166MOL   H23740167   1.784   2.212   6.914  1.3029  0.9784  1.3567
  166MOL   H23840168   1.694   2.379   6.682  0.9403 -0.1393  0.2005
  166MOL   H23940169   1.539   2.094   6.430  1.1859  4.5244  1.3293
  166MOL   H24040170   1.543   1.982   6.576  0.1222 -0.3880  0.4359
  166MOL   H24140171   1.677   1.999   6.481  0.3025 -0.0180  0.3082
  166MOL   H24240172   1.611   2.374   6.835 -0.0709 -0.1777 -0.2619
  167MOL     C140173   5.090   6.466   7.126  0.2381 -0.1199  0.1120
  167MOL     C240174   5.160   6.390   7.241 -0.3193  0.5789 -0.2430
  167MOL     C340175   5.219   6.486   7.342  0.1883  0.0283 -0.0029
  167MOL     O440176   5.213   6.455   7.463 -0.3154 -0.3096  0.2331
  167MOL     O540177   5.289   6.595   7.294  0.2401  0.0216 -0.2090
  167MOL     C640178   5.361   6.680   7.384 -0.1024 -0.3358 -0.4365
  167MOL     H740179   5.027   6.411   7.056  0.7426  0.1190 -0.5268
  167MOL     H840180   5.154   6.511   7.051  0.0012 -0.5991 -0.3823
  167MOL     H940181   5.236   6.344   7.177 -1.9262 -1.0917 -1.0223
  167MOL    H1040182   5.294   6.754   7.430  2.2583  1.3499  0.3702
  167MOL    H1140183   5.439   6.733   7.331  1.2380  0.7248  2.4633
  167MOL    H1240184   5.422   6.624   7.455 -2.1298 -1.2971  0.5930
  167MOL    H1340185   5.041   6.556   7.163  1.4219  1.0197 -1.0473
  167MOL    C1440186   5.065   6.286   7.302  0.3418 -0.8833 -0.2538
  167MOL    C1540187   4.929   6.329   7.378  0.6452  0.1850 -0.4022
  167MOL    C1640188   4.819   6.402   7.297 -0.9612 -0.6063  0.0218
  167MOL    O1740189   4.764   6.349   7.198  0.0845 -0.0963  0.1571
  167MOL    O1840190   4.795   6.527   7.340 -0.5765 -0.2572 -0.3631
  167MOL    C1940191   4.701   6.618   7.290 -0.2558 -0.1892  0.0037
  167MOL    H2040192   5.041   6.216   7.223  1.8219 -0.6412 -0.9222
  167MOL    H2140193   5.133   6.234   7.370  2.0740  1.2842 -0.2605
  167MOL    H2240194   4.959   6.394   7.460  1.7531  0.4757 -1.0285
  167MOL    H2340195   4.741   6.720   7.288 -1.9478  0.5360  1.3884
  167MOL    H2440196   4.601   6.608   7.332 -0.7151  0.3302 -0.9613
  167MOL    H2540197   4.693   6.587   7.186 -2.6252  2.9505 -0.8107
  167MOL    C2640198   4.868   6.204   7.450  0.1622 -1.3449 -0.5374
  167MOL    C2740199   4.751   6.226   7.545  0.5640  1.3093 -0.0810
  167MOL    C2840200   4.711   6.094   7.610  0.1613 -0.6901  0.1565
  167MOL    O2940201   4.621   6.031   7.553 -0.1319  0.2311  0.6085
  167MOL    O3040202   4.761   6.070   7.730  0.0505 -0.0196  0.0837
  167MOL    C3140203   4.723   5.949   7.799 -0.0698  0.7151  0.6252
  167MOL    H3240204   4.847   6.132   7.371 -0.0779 -1.3643 -0.4549
  167MOL    H3340205   4.947   6.153   7.506 -0.1695  0.1378  1.3328
  167MOL    H3440206   4.669   6.239   7.475  1.5143  2.3740 -1.0066
  167MOL    H3540207   4.691   5.876   7.725 -1.5357  1.4533  0.5144
  167MOL    H3640208   4.647   5.973   7.873 -0.2688  1.8194  0.0742
  167MOL    H3740209   4.795   5.902   7.866 -2.1814 -1.0690  1.6814
  167MOL    C3840210   4.770   6.345   7.641 -0.6288 -0.5812  0.1593
  167MOL    C3940211   4.637   6.396   7.701 -0.3511 -0.2463  0.0803
  167MOL    C4040212   4.654   6.475   7.831 -0.1704  0.0803 -0.4420
  167MOL    O4140213   4.555   6.474   7.902 -0.5537 -0.3141 -0.5522
  167MOL    O4240214   4.770   6.538   7.849  0.3835 -0.4620 -0.2192
  167MOL    C4340215   4.782   6.630   0.014 -0.2818  0.6950 -0.4451
  167MOL    H4440216   4.819   6.303   7.728 -0.9129  0.6405  0.9237
  167MOL    H4540217   4.830   6.426   7.601 -0.8832  0.2803  1.4854
  167MOL    H4640218   4.573   6.311   7.725 -2.3630  1.4680  0.9538
  167MOL    H4740219   4.884   6.668   0.003 -0.4028  1.3043  0.4619
  167MOL    H4840220   4.773   6.581   0.112  2.2629 -0.2575 -0.6391
  167MOL    H4940221   4.713   6.713   0.004 -1.3945 -0.0491  0.9124
  167MOL    C5040222   4.561   6.469   7.586 -0.3334  0.0225  0.0027
  167MOL    C5140223   4.411   6.513   7.621 -0.3246 -0.3333  0.1308
  167MOL    C5240224   4.356   6.598   7.509 -0.4683  0.2375 -1.2573
  167MOL    O5340225   4.300   6.545   7.412 -0.1092 -0.6160 -0.0336
  167MOL    O5440226   4.382   6.727   7.534  0.5971  0.1541  0.2973
  167MOL    C5540227   4.353   6.825   7.429 -0.3900 -0.1141  0.4980
  167MOL    H5640228   4.612   6.560   7.556 -0.3342 -0.1934 -0.6733
  167MOL    H5740229   4.559   6.408   7.495 -0.4735 -0.7869  0.5377
  167MOL    H5840230   4.411   6.574   7.712 -0.5979 -0.7471  0.4081
  167MOL    H5940231   4.245   6.834   7.415 -0.5580 -0.6308  1.4132
  167MOL    H6040232   4.396   6.804   7.331  0.3136 -1.6288  1.1112
  167MOL    H6140233   4.408   6.910   7.468 -0.3646 -0.1312  0.4997
  167MOL    C6240234   4.334   6.382   7.653  0.3418  0.5833 -0.0356
  167MOL    C6340235   4.181   6.393   7.684 -0.3575  0.1947  0.1667
  167MOL    C6440236   4.105   6.292   7.591  0.7339  0.3323 -0.2246
  167MOL    O6540237   4.022   6.330   7.503  0.3444  0.2966 -0.2152
  167MOL    O6640238   4.140   6.168   7.615 -0.2902  0.3354 -0.1890
  167MOL    C6740239   4.088   6.064   7.544 -0.0667 -0.6147  0.9634
  167MOL    H6840240   4.344   6.326   7.559  1.1804  0.6590  0.0073
  167MOL    H6940241   4.379   6.316   7.727 -0.3467  0.2678  0.1072
  167MOL    H7040242   4.140   6.488   7.647 -0.8428 -0.7491 -1.7865
  167MOL    H7140243   4.154   6.043   7.460  0.6926  0.0812  1.3712
  167MOL    H7240244   3.989   6.080   7.503  0.0883  0.4854  0.9959
  167MOL    H7340245   4.085   5.971   7.600 -1.3178 -0.1568  1.6808
  167MOL    C7440246   4.146   6.398   7.831  0.3236  0.2904  0.7155
  167MOL    C7540247   4.074   6.530   7.873  0.0285  0.6485  0.7483
  167MOL    C7640248   4.147   6.657   7.852 -0.3014  0.2046  0.1287
  167MOL    O7740249   4.107   6.747   7.778  0.0413 -0.2726  0.4323
  167MOL    O7840250   4.261   6.665   7.921  0.4262  0.0055  0.0134
  167MOL    C7940251   4.339   6.785   0.001 -0.0005 -0.2408  0.3806
  167MOL    H8040252   4.098   6.303   7.854 -0.5530  0.5550 -0.0225
  167MOL    H8140253   4.243   6.398   7.882  0.8086  0.0381 -0.2035
  167MOL    H8240254   4.058   6.515   0.047 -0.2518 -1.9384  0.3960
  167MOL    H8340255   4.282   6.877   0.011  0.2618 -0.1836  1.3910
  167MOL    H8440256   4.396   6.794   7.841 -0.8156  0.0343 -0.0944
  167MOL    H8540257   4.415   6.761   0.076  0.6647 -0.1658 -0.2711
  167MOL    C8640258   3.924   6.529   7.825  0.0860  0.3754  0.5844
  167MOL    C8740259   3.844   6.407   7.879  0.6517  0.1444 -0.0299
  167MOL    C8840260   3.838   6.421   0.095 -0.5191 -0.7160  0.5575
  167MOL    O8940261   3.914   6.362   0.163 -0.0897 -0.2501  0.2928
  167MOL    O9040262   3.738   6.499   0.139  0.6386 -0.3483 -0.3478
  167MOL    C9140263   3.722   6.521   0.280  0.1867  0.0311 -0.6168
  167MOL    H9240264   3.873   6.622   7.850 -0.2000  0.7632 -1.3880
  167MOL    H9340265   3.917   6.519   7.717  0.0762 -1.6398  0.7623
  167MOL    H9440266   3.892   6.314   7.848  0.6236  0.1163  0.0112
  167MOL    H9540267   3.640   6.589   0.301 -0.1147 -0.6996  0.6115
  167MOL    H9640268   3.815   6.538   0.335  2.1990  0.5853 -4.0537
  167MOL    H9740269   3.682   6.429   0.322  3.7502 -1.7770 -0.9472
  167MOL    C9840270   3.701   6.391   7.818  0.1975  0.2667 -0.2761
  167MOL    C9940271   3.688   6.345   7.676  0.1940  0.4320 -0.2714
  167MOL   C10040272   3.692   6.194   7.662 -0.9422  0.8899  0.4587
  167MOL   O10140273   3.710   6.122   7.759  0.8305  0.1460 -0.4045
  167MOL   O10240274   3.677   6.160   7.534  0.6702 -0.3202  0.2528
  167MOL   C10340275   3.677   6.029   7.502 -0.1912 -0.2911  0.7257
  167MOL   H10440276   3.639   6.325   7.880 -1.0530 -0.8835 -2.6783
  167MOL   H10540277   3.652   6.487   7.834 -0.6453 -0.1220 -0.4781
  167MOL   H10640278   3.774   6.384   7.622  0.9620  1.1555  1.4190
  167MOL   H10740279   3.578   5.985   7.513 -0.8031  0.5983 -0.9476
  167MOL   H10840280   3.759   5.974   7.548  0.5567 -0.8372 -1.1835
  167MOL   H10940281   3.704   6.019   7.396  1.1911 -2.2938  1.2386
  167MOL   C11040282   3.551   6.398   7.623 -0.5811  0.2436 -0.4772
  167MOL   C11140283   3.526   6.553   7.629 -0.1639 -0.4143 -1.0375
  167MOL   C11240284   3.623   6.627   7.536 -0.1780  0.5792 -0.3070
  167MOL   O11340285   3.600   6.642   7.413  0.0980  0.5250 -0.0146
  167MOL   O11440286   3.727   6.672   7.604 -0.0843 -0.4397 -0.4088
  167MOL   C11540287   3.835   6.733   7.539 -0.4197 -0.4548  0.3970
  167MOL   H11640288   3.540   6.367   7.519 -2.1178 -2.7018  0.5068
  167MOL   H11740289   3.476   6.333   7.669 -0.8289 -1.9955 -3.8403
  167MOL   H11840290   3.533   6.597   7.728  0.6180  2.1560 -2.1979
  167MOL   H11940291   3.877   6.787   7.624  0.2969  0.0286 -0.2630
  167MOL   H12040292   3.805   6.819   7.479 -3.5675 -1.1847  0.8409
  167MOL   H12140293   3.912   6.670   7.495  0.0979 -0.2728  1.0275
  167MOL   C12240294   3.375   6.577   7.606  0.2909 -0.5133  0.1660
  167MOL   C12340295   3.331   6.720   7.547 -0.6918 -0.7205  0.1204
  167MOL   C12440296   3.182   6.719   7.524 -0.6280 -0.3692  0.8966
  167MOL   O12540297   3.110   6.767   7.607 -0.0132 -0.0808 -0.2187
  167MOL   O12640298   3.145   6.664   7.417  0.0214  0.6007 -0.6619
  167MOL   C12740299   3.004   6.664   7.375 -0.2152 -0.1059  0.3132
  167MOL   H12840300   3.340   6.506   7.530  2.6341 -1.0738 -0.4284
  167MOL   H12940301   3.316   6.581   7.697  0.4721  2.1334  0.2142
  167MOL   H13040302   3.373   6.742   7.449 -0.6318 -1.5446 -0.0384
  167MOL   H13140303   2.983   6.757   7.323 -0.8628  0.2359  1.1759
  167MOL   H13240304   2.938   6.647   7.460  1.8181 -1.9281  1.6021
  167MOL   H13340305   2.994   6.596   7.290  1.6504  0.8055 -0.6603
  167MOL   C13440306   3.383   6.838   7.639  0.4660 -0.2296  0.1997
  167MOL   C13540307   3.474   6.942   7.571 -0.1428  0.7082 -0.2837
  167MOL   C13640308   3.393   7.016   7.461  0.5571 -0.2224 -0.9910
  167MOL   O13740309   3.314   7.109   7.484 -0.2188  0.1184  0.4401
  167MOL   O13840310   3.413   6.966   7.338  1.5166 -0.1432 -0.1826
  167MOL   C13940311   3.350   7.023   7.222 -0.3915  0.3743 -0.3449
  167MOL   H14040312   3.304   6.903   7.677  1.0743 -0.5645  2.0765
  167MOL   H14140313   3.431   6.786   7.722 -2.4077 -2.3125  0.6243
  167MOL   H14240314   3.545   6.887   7.509  1.0941  2.1739 -0.2105
  167MOL   H14340315   3.245   6.995   7.232 -0.4632 -0.0604 -2.1383
  167MOL   H14440316   3.397   6.988   7.130 -0.7822  0.7991 -0.7032
  167MOL   H14540317   3.349   7.132   7.227 -3.6885  0.2816  3.0230
  167MOL   C14640318   3.546   7.026   7.675  0.0296 -0.1982 -0.5557
  167MOL   C14740319   3.628   7.142   7.614  0.2587  1.3618 -0.7316
  167MOL   C14840320   3.696   7.221   7.725  0.2681 -0.2846  0.8553
  167MOL   O14940321   3.641   7.321   7.770 -0.1299  0.1290  0.8145
  167MOL   O15040322   3.810   7.168   7.761  0.3140 -0.1301 -0.1582
  167MOL   C15140323   3.887   7.221   7.868  0.3872 -0.1046 -0.0506
  167MOL   H15240324   3.475   7.069   7.746 -0.4047 -3.5646  1.1987
  167MOL   H15340325   3.615   6.964   7.733  1.2086  0.2281 -1.4799
  167MOL   H15440326   3.563   7.216   7.567 -0.4405  0.4482 -1.2272
  167MOL   H15540327   3.959   7.149   7.907  1.4646  1.0676  0.1453
  167MOL   H15640328   3.837   7.273   0.018  0.6509 -2.8560  1.9425
  167MOL   H15740329   3.958   7.295   7.834  2.1335 -1.8123 -0.2038
  167MOL   C15840330   3.732   7.091   7.509 -0.3632 -0.5512  0.1604
  167MOL   C15940331   3.797   7.203   7.426  0.2191 -0.2237  0.1124
  167MOL   C16040332   3.935   7.171   7.363 -0.1023  0.1453  0.4250
  167MOL   O16140333   4.018   7.257   7.353 -0.1669 -0.0998  0.0967
  167MOL   O16240334   3.957   7.047   7.334 -0.4297  0.1343  0.4732
  167MOL   C16340335   4.084   6.999   7.283  0.0246 -0.2901  0.0974
  167MOL   H16440336   3.814   7.043   7.561  1.5207  2.3036 -0.0857
  167MOL   H16540337   3.685   7.013   7.448 -0.8223 -1.7538  2.0024
  167MOL   H16640338   3.828   7.288   7.488  0.1436 -0.7041  0.8165
  167MOL   H16740339   4.093   6.891   7.278  1.1021 -0.3096  2.1830
  167MOL   H16840340   4.176   7.046   7.319 -1.2734  0.5882  2.3451
  167MOL   H16940341   4.077   7.031   7.178 -1.7053 -0.4911  0.1402
  167MOL   C17040342   3.704   7.241   7.312  0.1187 -0.1559  0.6233
  167MOL   C17140343   3.702   7.394   7.272  0.0492  0.0206 -0.1102
  167MOL   C17240344   3.676   7.405   7.118 -0.0594 -0.4098 -1.1248
  167MOL   O17340345   3.769   7.428   7.035  0.1669 -0.1516 -0.5727
  167MOL   O17440346   3.544   7.386   7.095 -0.4490  0.2360  0.3948
  167MOL   C17540347   3.502   7.397   6.961  0.0729  0.4487  0.0960
  167MOL   H17640348   3.734   7.191   7.221 -1.6685  1.2016 -0.7446
  167MOL   H17740349   3.601   7.208   7.326 -0.5351  1.0067 -1.2559
  167MOL   H17840350   3.802   7.435   7.285  0.5712 -0.4659 -2.3775
  167MOL   H17940351   3.529   7.499   6.937 -1.6399  0.9117  0.0917
  167MOL   H18040352   3.396   7.383   6.942  0.2289  0.1208 -0.5558
  167MOL   H18140353   3.559   7.333   6.893 -0.5427  1.6558 -1.5651
  167MOL   C18240354   3.608   7.468   7.369 -0.2586 -0.8414  0.4912
  167MOL   C18340355   3.658   7.598   7.423 -0.1718 -0.1935 -0.1489
  167MOL   C18440356   3.776   7.571   7.526 -0.5369  0.4431 -0.2617
  167MOL   O18540357   3.752   7.568   7.648  0.0614  0.2772  0.9542
  167MOL   O18640358   3.895   7.554   7.470 -0.0453  0.2107  0.8791
  167MOL   C18740359   4.007   7.518   7.552 -0.4885  0.2148  0.3419
  167MOL   H18840360   3.508   7.471   7.326 -0.3832 -1.0683  0.7602
  167MOL   H18940361   3.590   7.410   7.459 -0.5859 -1.3727  0.0884
  167MOL   H19040362   3.569   7.619   7.483  0.4813  0.8181  0.4885
  167MOL   H19140363   4.006   7.577   7.644 -1.5859  2.5533 -1.1173
  167MOL   H19240364   4.085   7.544   7.480 -1.8956 -0.6573 -1.5173
  167MOL   H19340365   4.006   7.410   7.560  0.6980  0.2423  1.0878
  167MOL   C19440366   3.683   7.717   7.329  0.2978  0.4873 -0.1638
  167MOL   C19540367   3.566   7.811   7.291  0.2476 -0.3624 -0.2449
  167MOL   C19640368   3.616   0.018   7.261  0.4124  0.0236 -0.4052
  167MOL   O19740369   3.621   0.062   7.145 -0.3347  0.0474  0.1984
  167MOL   O19840370   3.667   0.074   7.363  0.6109 -0.1156  0.0219
  167MOL   C19940371   3.715   0.214   7.354 -0.1303 -0.5094 -0.2429
  167MOL   H20040372   3.756   7.775   7.384  0.2984  0.5299 -0.2100
  167MOL   H20140373   3.742   7.686   7.243 -0.6748 -1.4689 -0.1621
  167MOL   H20240374   3.497   7.823   7.375  1.2003 -1.8061  0.7602
  167MOL   H20340375   3.763   0.241   7.261  1.1044 -0.3166  0.4346
  167MOL   H20440376   3.791   0.237   7.430  0.4969 -0.5057 -0.8670
  167MOL   H20540377   3.632   0.283   7.366  0.5637  0.5189 -1.2686
  167MOL   C20640378   3.482   7.756   7.165  0.8057 -0.4595  0.3098
  167MOL   C20740379   3.329   7.797   7.160 -0.4164  0.0841 -0.0567
  167MOL   C20840380   3.314   0.010   7.099 -0.0720 -0.6069  0.1522
  167MOL   O20940381   3.325   0.108   7.171 -0.4471  0.1480 -0.2622
  167MOL   O21040382   3.305   0.008   6.970  0.1042  0.4135  0.3974
  167MOL   C21140383   3.284   0.132   6.903 -0.2723  0.0494  0.4252
  167MOL   H21240384   3.529   7.794   7.075 -0.3772  1.2422  0.3975
  167MOL   H21340385   3.485   7.647   7.167  0.6279 -0.5163 -1.7465
  167MOL   H21440386   3.294   7.794   7.263  1.7648  2.6601  0.8257
  167MOL   H21540387   3.294   0.137   6.795 -0.1660 -0.1394  0.4259
  167MOL   H21640388   3.363   0.203   6.930 -2.3295  1.7895  2.0598
  167MOL   H21740389   3.190   0.181   6.927 -0.6544 -0.4643 -0.0134
  167MOL   C21840390   3.239   7.701   7.084  0.4041  0.2609 -0.1370
  167MOL   C21940391   3.159   7.591   7.161  0.0668 -0.0301  0.8560
  167MOL   C22040392   3.045   7.665   7.231  0.4139  0.4571  0.5745
  167MOL   O22140393   3.050   7.684   7.352  0.4354 -0.5464 -0.2552
  167MOL   O22240394   2.953   7.719   7.153  0.1530 -0.0383 -0.3565
  167MOL   C22340395   2.843   7.785   7.204 -0.2348 -0.5439  0.3150
  167MOL   H22440396   3.164   7.754   7.026  1.9387  2.4380 -0.2127
  167MOL   H22540397   3.311   7.670   7.007 -2.2254  0.6727 -2.8804
  167MOL   H22640398   3.219   7.546   7.239  0.4286 -0.5712  0.2718
  167MOL   H22740399   2.778   7.837   7.133 -1.6221 -0.1356  1.8435
  167MOL   H22840400   2.873   7.851   7.286  4.2500 -0.9027 -0.9087
  167MOL   H22940401   2.767   7.723   7.252 -0.9476  0.1697  0.1415
  167MOL   C23040402   3.100   7.488   7.066  0.2080 -0.3368  0.1724
  167MOL   C23140403   3.007   7.377   7.117 -1.0187  0.0262 -0.3348
  167MOL   C23240404   3.063   7.285   7.229  0.0325  0.2185 -0.2195
  167MOL   O23340405   3.180   7.293   7.266  0.5178  0.5640  0.0851
  167MOL   O23440406   2.975   7.187   7.259 -0.1321  0.3190  0.2193
  167MOL   C23540407   2.991   7.080   7.356  0.3356 -0.6814 -0.4630
  167MOL   H23640408   3.063   7.540   6.978  0.1350 -1.4767 -0.4928
  167MOL   H23740409   3.192   7.442   7.029  0.0478  1.6369 -2.8616
  167MOL   H23840410   2.991   7.316   7.028 -0.0623  0.4820 -0.8301
  167MOL   H23940411   2.904   7.014   7.358 -1.1825  1.2913  0.6755
  167MOL   H24040412   3.004   7.112   7.459  1.7174 -2.0965 -0.1831
  167MOL   H24140413   3.087   7.028   7.354  0.8816  0.1338  2.1408
  167MOL   H24240414   2.912   7.417   7.151 -0.6899 -0.8006  1.6531
  168MOL     C140415   3.164   2.367   1.086 -0.1426  0.3932  0.0778
  168MOL     C240416   3.058   2.457   1.137 -1.2260  0.9897  0.7682
  168MOL     C340417   3.001   2.541   1.020 -0.1007 -0.0237  0.0420
  168MOL     O440418   2.917   2.494   0.945 -0.0034 -0.6245  0.0574
  168MOL     O540419   3.043   2.669   1.017 -0.0971  0.3822 -0.6473
  168MOL     C640420   2.977   2.749   0.920  0.4505 -0.5331 -0.6507
  168MOL     H740421   3.256   2.417   1.058  1.6253 -1.7853  1.8385
  168MOL     H840422   3.129   2.319   0.995 -1.0833 -0.0181  0.6418
  168MOL     H940423   3.102   2.524   1.210 -2.6348  2.0941  0.6375
  168MOL    H1040424   2.869   2.767   0.930  0.3952 -1.0742 -0.2832
  168MOL    H1140425   2.996   2.722   0.816 -0.8802  3.0845 -1.9532
  168MOL    H1240426   3.015   2.851   0.929 -0.9873  0.1045 -1.4962
  168MOL    H1340427   3.191   2.281   1.147  0.6045 -0.1595 -1.0220
  168MOL    C1440428   2.947   2.380   1.212  0.4521  0.9449 -0.1531
  168MOL    C1540429   2.845   2.459   1.305 -0.5351  0.6535 -0.0152
  168MOL    C1640430   2.739   2.537   1.231 -0.4948 -0.2292 -0.5709
  168MOL    O1740431   2.722   2.657   1.257 -0.4054 -0.2191 -0.2052
  168MOL    O1840432   2.663   2.462   1.143  0.4937  0.1705 -0.0544
  168MOL    C1940433   2.565   2.527   1.070 -0.2330 -0.2438 -0.2000
  168MOL    H2040434   2.894   2.316   1.142 -0.8815  1.9933 -0.1296
  168MOL    H2140435   2.988   2.297   1.269 -1.9585 -0.2132 -0.0361
  168MOL    H2240436   2.893   2.543   1.355 -1.8004  1.9346 -0.9312
  168MOL    H2340437   2.614   2.578   0.987 -1.7401  0.7602 -0.4896
  168MOL    H2440438   2.504   2.594   1.130  0.4496 -0.1230  0.3693
  168MOL    H2540439   2.510   2.446   1.022 -3.5695  0.8117  1.7434
  168MOL    C2640440   2.774   2.379   1.424 -0.2635 -0.7968 -0.3401
  168MOL    C2740441   2.856   2.359   1.554 -0.9726  0.1017 -0.1715
  168MOL    C2840442   2.887   2.486   1.638  0.7381  0.1343 -0.2567
  168MOL    O2940443   3.000   2.529   1.654 -0.3987  0.1455  0.0293
  168MOL    O3040444   2.775   2.537   1.691  0.3200 -0.3579  0.5622
  168MOL    C3140445   2.783   2.645   1.778 -0.1181 -0.0310  0.0156
  168MOL    H3240446   2.683   2.427   1.460 -0.5198 -1.2778 -0.3442
  168MOL    H3340447   2.744   2.282   1.386  2.3930 -1.0745 -1.8475
  168MOL    H3440448   2.958   2.324   1.538 -1.0031 -0.0756  0.0195
  168MOL    H3540449   2.822   2.618   1.876 -0.0251  1.0094  0.2761
  168MOL    H3640450   2.681   2.673   1.805 -0.7714 -1.8638 -0.4941
  168MOL    H3740451   2.848   2.718   1.730 -0.5980  0.4114  0.0350
  168MOL    C3840452   2.787   2.250   1.641  0.3904 -0.5299 -0.0957
  168MOL    C3940453   2.821   2.108   1.600 -0.5348 -1.0192 -0.0553
  168MOL    C4040454   2.969   2.074   1.636 -0.4714  0.4296  0.3473
  168MOL    O4140455   3.060   2.058   1.557  0.2438 -0.0228 -0.2411
  168MOL    O4240456   2.986   2.085   1.765 -0.8067 -0.1011  0.6511
  168MOL    C4340457   3.117   2.069   1.824  0.1539  0.6014  0.4106
  168MOL    H4440458   2.807   2.259   1.748  4.6470 -0.9802 -0.7748
  168MOL    H4540459   2.679   2.263   1.645  0.4109 -0.8640  2.0618
  168MOL    H4640460   2.829   2.101   1.491  0.7744 -0.2510 -0.0242
  168MOL    H4740461   3.119   2.136   1.911 -0.4711  0.1892  0.7455
  168MOL    H4840462   3.198   2.091   1.756  0.0477  0.9440  0.3940
  168MOL    H4940463   3.126   1.962   1.845  1.1427  0.4468 -0.7715
  168MOL    C5040464   2.719   2.010   1.668  0.4940 -0.1565 -0.1233
  168MOL    C5140465   2.703   1.868   1.606 -0.2516  0.6173  0.2045
  168MOL    C5240466   2.602   1.778   1.686 -0.3935 -0.5198  0.1387
  168MOL    O5340467   2.508   1.714   1.635 -0.1642 -0.0179 -0.9116
  168MOL    O5440468   2.623   1.778   1.815  0.0593  0.0774  0.4390
  168MOL    C5540469   2.552   1.689   1.897  0.5581  0.1312  0.7678
  168MOL    H5640470   2.760   1.990   1.767 -0.2896  0.8194  0.4057
  168MOL    H5740471   2.618   2.050   1.684  0.6003 -0.6428  1.9513
  168MOL    H5840472   2.797   1.816   1.626  0.8187  0.9368 -3.5525
  168MOL    H5940473   2.607   1.646   1.981 -0.4021 -0.2979  1.1829
  168MOL    H6040474   2.508   1.607   1.841  1.0593  0.5285 -0.2271
  168MOL    H6140475   2.456   1.730   1.930  0.2878 -1.2872  1.7795
  168MOL    C6240476   2.674   1.860   1.452  0.7600 -0.1449 -0.3924
  168MOL    C6340477   2.766   1.763   1.382  0.1301 -0.4866 -0.3378
  168MOL    C6440478   2.722   1.613   1.394 -0.6408  0.2164 -0.8023
  168MOL    O6540479   2.646   1.553   1.320 -0.6580  0.0191  0.3034
  168MOL    O6640480   2.773   1.554   1.503  0.1837  0.0014 -0.2829
  168MOL    C6740481   2.757   1.416   1.534  0.2466 -0.1854  0.2066
  168MOL    H6840482   2.572   1.827   1.432  0.8962 -0.8702  0.0921
  168MOL    H6940483   2.690   1.963   1.420  0.9674 -0.5230 -1.5553
  168MOL    H7040484   2.856   1.752   1.442  1.8742  0.7756 -2.6232
  168MOL    H7140485   2.748   1.358   1.443 -1.0961 -1.6946  1.2889
  168MOL    H7240486   2.674   1.403   1.603  0.7851 -0.3145  0.8358
  168MOL    H7340487   2.844   1.377   1.587 -0.6959 -0.4381  1.5911
  168MOL    C7440488   2.802   1.807   1.240  1.0418 -0.2953  0.3883
  168MOL    C7540489   2.918   1.743   1.170 -0.2025  0.5244  0.8198
  168MOL    C7640490   2.914   1.758   1.016 -0.3541  0.0953 -0.8463
  168MOL    O7740491   2.886   1.664   0.946  1.0462  0.5183  0.1937
  168MOL    O7840492   2.924   1.886   0.979 -0.3034 -0.1688 -0.0990
  168MOL    C7940493   2.950   1.931   0.844  0.1609  0.2945  0.0031
  168MOL    H8040494   2.717   1.775   1.179  1.8490 -1.5103 -0.1065
  168MOL    H8140495   2.819   1.915   1.230  2.7230 -0.5174  0.7710
  168MOL    H8240496   2.923   1.637   1.192 -0.4939  0.5210  0.8740
  168MOL    H8340497   3.028   1.874   0.795  0.1606 -1.2655  1.7567
  168MOL    H8440498   2.980   2.036   0.839  1.9548 -0.2885 -2.0602
  168MOL    H8540499   2.863   1.915   0.781 -0.5944  0.8424  0.8861
  168MOL    C8640500   3.053   1.807   1.224 -0.0493  0.0719 -0.3683
  168MOL    C8740501   3.173   1.716   1.242 -0.1517  0.3096  0.3825
  168MOL    C8840502   3.272   1.716   1.126  0.2675 -0.1195 -0.0261
  168MOL    O8940503   3.261   1.792   1.030  0.2073 -0.2378 -1.1432
  168MOL    O9040504   3.371   1.632   1.144 -0.5119 -0.5944 -0.0668
  168MOL    C9140505   3.475   1.623   1.048  0.2345 -0.1395  0.2669
  168MOL    H9240506   3.083   1.894   1.165  3.5301 -0.1889  0.9649
  168MOL    H9340507   3.044   1.849   1.323 -0.0121 -0.8571  0.0363
  168MOL    H9440508   3.137   1.614   1.244  0.9856 -0.1128 -0.0121
  168MOL    H9540509   3.444   1.570   0.958 -0.6914  1.5783 -0.4522
  168MOL    H9640510   3.565   1.576   1.089  1.1129 -0.3200 -1.8296
  168MOL    H9740511   3.504   1.722   1.015  0.7311 -0.0784  0.8746
  168MOL    C9840512   3.249   1.730   1.378 -0.6668 -0.7778  0.9030
  168MOL    C9940513   3.188   1.653   1.489 -0.1604 -0.3419 -0.1312
  168MOL   C10040514   3.170   1.499   1.463 -0.1638  0.3155 -0.1669
  168MOL   O10140515   3.059   1.458   1.433  0.7084  0.3435 -0.4135
  168MOL   O10240516   3.279   1.423   1.483  0.5276 -0.7909 -0.1083
  168MOL   C10340517   3.276   1.286   1.476  0.1736  0.0021 -0.8025
  168MOL   H10440518   3.348   1.685   1.371 -1.4301 -2.5268  1.1402
  168MOL   H10540519   3.267   1.836   1.395  0.8403 -0.1460 -3.7773
  168MOL   H10640520   3.085   1.688   1.485 -0.3176 -0.7920 -0.0321
  168MOL   H10740521   3.374   1.243   1.498 -0.9634 -1.8639  0.8038
  168MOL   H10840522   3.251   1.258   1.374 -2.0032  0.0417 -0.3050
  168MOL   H10940523   3.191   1.248   1.533  1.7726 -1.1814  0.8377
  168MOL   C11040524   3.249   1.678   1.624 -0.6236  0.3524 -0.5932
  168MOL   C11140525   3.178   1.614   1.745 -0.1626  0.2997 -0.5464
  168MOL   C11240526   3.270   1.645   1.868  0.5118  0.3942  0.8469
  168MOL   O11340527   3.326   1.558   1.925 -0.3389 -0.0713 -0.0668
  168MOL   O11440528   3.271   1.770   1.899  0.1720 -0.4889  0.3025
  168MOL   C11540529   3.357   1.821   1.999  0.6240  1.0082 -0.1258
  168MOL   H11640530   3.347   1.633   1.609 -1.7303 -2.4362  0.1875
  168MOL   H11740531   3.254   1.786   1.641  0.3916 -0.3123  4.0126
  168MOL   H11840532   3.165   1.507   1.729 -3.1091  0.4298  0.8428
  168MOL   H11940533   3.458   1.803   1.961 -0.4548  0.4982 -2.8886
  168MOL   H12040534   3.335   1.772   2.094 -1.9089  2.1724 -0.0686
  168MOL   H12140535   3.347   1.929   2.005 -0.8335  0.7944  1.7255
  168MOL   C12240536   3.038   1.668   1.768 -0.3826 -0.1995 -0.4802
  168MOL   C12340537   2.952   1.599   1.881 -0.1182 -0.3069  0.1965
  168MOL   C12440538   2.929   1.442   1.874  0.5064  0.1639 -0.2752
  168MOL   O12540539   3.025   1.362   1.875  0.0401  0.3789 -0.1317
  168MOL   O12640540   2.802   1.404   1.871 -0.3006  0.1160  0.9726
  168MOL   C12740541   2.773   1.265   1.856  0.5738  0.1566  0.3717
  168MOL   H12840542   3.055   1.776   1.770  0.3552 -0.3313  2.8662
  168MOL   H12940543   2.983   1.651   1.676 -0.8109  0.3245 -0.3242
  168MOL   H13040544   2.846   1.615   1.861  0.2286 -1.5581 -3.0234
  168MOL   H13140545   2.813   1.235   1.759 -0.7737  2.1679 -0.8377
  168MOL   H13240546   2.665   1.251   1.848  0.3930  0.6957  1.7030
  168MOL   H13340547   2.819   1.204   1.933  0.6333 -1.7832 -1.1580
  168MOL   C13440548   2.983   1.632   2.033 -0.3938 -0.7021  0.1815
  168MOL   C13540549   3.002   1.783   2.074  0.3458  0.0410  0.1319
  168MOL   C13640550   2.868   1.857   2.076  0.2349 -0.4241 -0.1542
  168MOL   O13740551   2.826   1.898   1.972  0.8408  0.3966  0.0998
  168MOL   O13840552   2.803   1.860   2.194  0.1665  0.2670 -0.0845
  168MOL   C13940553   2.666   1.896   2.195 -0.8125  0.0092 -0.4199
  168MOL   H14040554   2.907   1.581   2.093 -0.2674 -0.5167  0.4999
  168MOL   H14140555   3.077   1.583   2.059 -0.0699 -0.5838 -0.7504
  168MOL   H14240556   3.073   1.828   2.004  0.9714 -2.7090 -1.0734
  168MOL   H14340557   2.637   1.927   2.295 -0.9883  1.2009 -0.8376
  168MOL   H14440558   2.601   1.812   2.168  0.7833 -1.5318  0.4531
  168MOL   H14540559   2.637   1.973   2.124 -2.6820 -0.3253 -0.0635
  168MOL   C14640560   3.078   1.791   2.207 -0.7962 -0.0417 -0.6443
  168MOL   C14740561   3.152   1.923   2.240 -0.2774 -0.5047 -0.0244
  168MOL   C14840562   3.052   2.041   2.265 -0.7736 -1.0971 -0.4949
  168MOL   O14940563   3.042   2.136   2.187  0.2735  0.1675  0.5959
  168MOL   O15040564   2.987   2.033   2.375  0.0339 -0.0436  0.1010
  168MOL   C15140565   2.901   2.141   2.410  0.0859  0.6302  0.2459
  168MOL   H15240566   3.007   1.779   2.289  1.1299  1.9987  1.3959
  168MOL   H15340567   3.150   1.710   2.209 -0.9180 -0.1450 -0.4132
  168MOL   H15440568   3.223   1.955   2.163 -1.7294  0.3390 -1.0452
  168MOL   H15540569   2.829   2.157   2.331  1.9412 -1.3585 -1.9116
  168MOL   H15640570   2.947   2.240   2.416 -0.6342  0.8854  2.2106
  168MOL   H15740571   2.854   2.119   2.506 -1.5987  0.5511 -0.5869
  168MOL   C15840572   3.231   1.905   2.372 -0.7016  0.3226 -0.0488
  168MOL   C15940573   3.388   1.918   2.348 -0.3583  0.1589  0.2321
  168MOL   C16040574   3.438   2.064   2.350  0.2629  0.6995 -0.8481
  168MOL   O16140575   3.465   2.127   2.249 -0.1490 -0.3650 -0.3885
  168MOL   O16240576   3.455   2.113   2.476 -0.5533  0.4728 -0.0716
  168MOL   C16340577   3.524   2.236   2.492 -0.1435 -0.5365  0.0740
  168MOL   H16440578   3.213   1.979   2.450  0.3416  0.0774  0.4375
  168MOL   H16540579   3.204   1.809   2.416  2.0786  0.2770  1.7010
  168MOL   H16640580   3.403   1.886   2.245 -1.8649  0.3172 -0.0461
  168MOL   H16740581   3.528   2.266   2.597  0.5853 -1.7413  0.4004
  168MOL   H16840582   3.462   2.313   2.446  1.0920  1.1226  1.1176
  168MOL   H16940583   3.623   2.252   2.450 -0.7579  0.9516 -0.8292
  168MOL   C17040584   3.457   1.827   2.452 -0.4741  0.3891 -0.7125
  168MOL   C17140585   3.606   1.791   2.435 -0.5932  0.4467 -0.5497
  168MOL   C17240586   3.636   1.766   2.291 -0.0124 -0.3890  0.1577
  168MOL   O17340587   3.579   1.678   2.229  0.3927 -0.3527  0.8319
  168MOL   O17440588   3.713   1.870   2.247  0.0561  0.3812  0.5341
  168MOL   C17540589   3.739   1.875   2.114 -0.5215  0.2898 -0.0884
  168MOL   H17640590   3.452   1.861   2.555  2.0338 -0.0649 -0.4189
  168MOL   H17740591   3.405   1.731   2.449 -0.8485  0.5262  0.9254
  168MOL   H17840592   3.622   1.690   2.472 -1.6731  0.4404 -0.1012
  168MOL   H17940593   3.803   1.791   2.087  1.0201  1.2998  0.3392
  168MOL   H18040594   3.780   1.967   2.072  0.2929 -0.0305 -0.0135
  168MOL   H18140595   3.653   1.841   2.056 -1.1565 -0.2555  1.1618
  168MOL   C18240596   3.709   1.882   2.508 -0.6959  0.0944  1.0075
  168MOL   C18340597   3.852   1.830   2.502  0.9162  0.4439 -0.2540
  168MOL   C18440598   3.951   1.940   2.532  0.2905  0.6670  0.1336
  168MOL   O18540599   3.923   2.054   2.555  0.2010 -0.0447 -1.0017
  168MOL   O18640600   4.078   1.894   2.528  0.3107 -0.3484  0.3829
  168MOL   C18740601   4.191   1.985   2.545 -0.5186 -0.7385  0.7504
  168MOL   H18840602   3.708   1.987   2.477 -0.3070 -0.4841 -1.0262
  168MOL   H18940603   3.673   1.865   2.610 -0.4732  1.0833  1.2587
  168MOL   H19040604   3.892   1.803   2.404  2.8578  1.9139  0.0981
  168MOL   H19140605   4.172   2.081   2.594  0.7147 -0.8368  1.4481
  168MOL   H19240606   4.223   1.993   2.442 -1.4346  0.1770  0.5251
  168MOL   H19340607   4.267   1.934   2.605  0.3433  1.5424  1.6234
  168MOL   C19440608   3.861   1.704   2.589 -0.2695 -0.1851 -0.2374
  168MOL   C19540609   3.976   1.603   2.553 -0.0355 -0.2626  0.5173
  168MOL   C19640610   4.056   1.557   2.675  0.4815  0.2285 -0.2876
  168MOL   O19740611   4.069   1.437   2.708 -0.0638  0.1146 -0.0048
  168MOL   O19840612   4.113   1.665   2.743 -0.2658 -0.2297 -0.4667
  168MOL   C19940613   4.180   1.638   2.865 -0.1381  0.0061 -0.1344
  168MOL   H20040614   3.878   1.732   2.693  0.4658 -0.2490 -0.3387
  168MOL   H20140615   3.768   1.648   2.597 -1.3504  1.5077 -0.6446
  168MOL   H20240616   4.051   1.662   2.500 -1.1232  0.5959 -0.0997
  168MOL   H20340617   4.283   1.611   2.842 -0.3058 -0.8334  0.1018
  168MOL   H20440618   4.137   1.554   2.919  0.5651  0.7708  1.6652
  168MOL   H20540619   4.188   1.729   2.924 -0.1184  0.8554 -1.4340
  168MOL   C20640620   3.913   1.492   2.467 -0.2439 -0.0106 -0.1087
  168MOL   C20740621   4.020   1.394   2.400 -0.7935  0.4321  0.3306
  168MOL   C20840622   3.955   1.267   2.355 -0.1851 -0.0346  0.4555
  168MOL   O20940623   3.924   1.246   2.239 -0.3357 -0.5610  0.3328
  168MOL   O21040624   3.925   1.182   2.456 -0.4543 -0.2347 -0.8083
  168MOL   C21140625   3.857   1.059   2.426  0.3182 -0.7252  0.2170
  168MOL   H21240626   3.841   1.434   2.523 -0.7560  0.7977  0.0823
  168MOL   H21340627   3.863   1.528   2.377 -1.5840 -0.6825  0.3557
  168MOL   H21440628   4.094   1.362   2.474 -1.5772  0.8371  1.2995
  168MOL   H21540629   3.861   1.033   2.320  2.2544 -1.0229  0.3489
  168MOL   H21640630   3.754   1.080   2.453  0.6812  1.9875 -0.4554
  168MOL   H21740631   3.902   0.972   2.474  1.5407  0.2631  0.8848
  168MOL   C21840632   4.103   1.454   2.285  0.2316 -0.3393  0.8956
  168MOL   C21940633   4.220   1.366   2.241 -0.1676 -0.4479 -0.8064
  168MOL   C22040634   4.277   1.411   2.108 -0.3698 -0.7414 -0.3031
  168MOL   O22140635   4.301   1.529   2.083 -0.1545  0.0773 -0.8548
  168MOL   O22240636   4.315   1.301   2.044  0.0485 -1.0757  0.4337
  168MOL   C22340637   4.382   1.305   1.915  0.4922 -0.1456  0.4375
  168MOL   H22440638   4.048   1.479   2.194  4.7962  1.4018 -1.5384
  168MOL   H22540639   4.137   1.552   2.318 -1.4564  1.0749 -1.3984
  168MOL   H22640640   4.180   1.267   2.221 -0.8734 -0.4747  0.7317
  168MOL   H22740641   4.419   1.204   1.897 -2.1317 -0.6961 -2.2428
  168MOL   H22840642   4.465   1.374   1.926 -0.4149  1.3842 -2.0278
  168MOL   H22940643   4.310   1.326   1.836  0.3516  1.7256  1.0472
  168MOL   C23040644   4.341   1.368   2.343 -0.1730 -0.1568  0.6070
  168MOL   C23140645   4.403   1.226   2.360  0.3626  0.1204  0.8755
  168MOL   C23240646   4.310   1.127   2.426  0.2465 -0.2688  0.1221
  168MOL   O23340647   4.274   1.026   2.370  0.5438  0.2509  0.0427
  168MOL   O23440648   4.283   1.165   2.548  0.8908  0.5741  0.5972
  168MOL   C23540649   4.208   1.074   2.628  0.6537  0.8865  0.5255
  168MOL   H23640650   4.412   1.448   2.321 -0.2443 -0.1728  0.3255
  168MOL   H23740651   4.312   1.402   2.443 -1.9044 -0.7830  0.3362
  168MOL   H23840652   4.494   1.235   2.419  1.7563 -0.0516 -1.1661
  168MOL   H23940653   4.185   1.120   2.724 -0.3693  0.9125  0.2741
  168MOL   H24040654   4.257   0.977   2.643  1.2227  0.4570 -3.5411
  168MOL   H24140655   4.111   1.040   2.591  1.3745  1.0169 -1.5705
  168MOL   H24240656   4.419   1.192   2.257 -0.8531 -1.4316  1.1892
  169MOL     C140657   4.075   1.067   5.782  0.6837 -0.5765  0.4638
  169MOL     C240658   3.990   1.012   5.665 -0.0345 -0.2927 -0.8848
  169MOL     C340659   3.869   0.940   5.725 -0.1646 -0.4378 -0.5904
  169MOL     O440660   3.857   0.818   5.713 -0.0006 -0.3737  0.9334
  169MOL     O540661   3.784   1.021   5.798 -0.3524 -0.2929 -0.0697
  169MOL     C640662   3.691   0.961   5.877  0.5790  0.3629 -0.6359
  169MOL     H740663   4.012   1.099   5.865 -1.6601 -0.9847 -1.1254
  169MOL     H840664   4.142   1.148   5.753  0.5679 -1.2063 -1.6238
  169MOL     H940665   4.053   0.943   5.609  1.3525  0.6798 -0.5540
  169MOL    H1040666   3.672   1.036   5.954  2.1272 -1.6252  1.7582
  169MOL    H1140667   3.718   0.866   5.924 -0.0922  0.0325 -0.9101
  169MOL    H1240668   3.599   0.933   5.824  0.9285 -2.8008  0.3005
  169MOL    H1340669   4.131   0.985   5.826  1.7751  0.0491  0.2485
  169MOL    C1440670   3.933   1.118   5.564 -0.0489 -0.0096 -0.4263
  169MOL    C1540671   3.888   1.084   5.420  0.6085  0.1524 -0.2052
  169MOL    C1640672   3.749   1.021   5.419  0.3888  0.3486 -0.0645
  169MOL    O1740673   3.732   0.904   5.378 -0.3135 -0.6486  0.4828
  169MOL    O1840674   3.650   1.099   5.467 -0.8984  0.5450 -0.1311
  169MOL    C1940675   3.523   1.045   5.465  0.0852  0.2111  0.6430
  169MOL    H2040676   3.854   1.168   5.620  0.7250  1.0856 -0.2835
  169MOL    H2140677   4.007   1.197   5.552  0.9796 -0.7401  0.9350
  169MOL    H2240678   3.966   1.016   5.383 -0.0933  0.6308 -2.7061
  169MOL    H2340679   3.483   1.028   5.365 -1.6444 -1.4142  1.5764
  169MOL    H2440680   3.460   1.120   5.513 -1.3092  0.9065 -2.1517
  169MOL    H2540681   3.511   0.949   5.515 -0.3313 -1.2791 -2.1934
  169MOL    C2640682   3.905   1.205   5.331 -0.3972  0.2549  0.1463
  169MOL    C2740683   3.902   1.179   5.178  0.1861 -0.1758 -0.0247
  169MOL    C2840684   3.918   1.315   5.097 -0.0131 -0.4497 -0.5666
  169MOL    O2940685   3.944   1.420   5.157 -0.0032  0.5637  0.1957
  169MOL    O3040686   3.911   1.301   4.963 -0.1233  0.0233 -0.3159
  169MOL    C3140687   3.922   1.406   4.867 -0.6679 -0.9188  0.5382
  169MOL    H3240688   3.830   1.280   5.355 -0.1827  1.3278 -2.3393
  169MOL    H3340689   4.002   1.248   5.357  0.3412 -0.1337 -1.8711
  169MOL    H3440690   3.808   1.132   5.151  0.9379 -2.0208  0.4535
  169MOL    H3540691   4.024   1.444   4.861 -0.2039 -1.9840  1.4817
  169MOL    H3640692   3.851   1.481   4.901  0.9076 -0.0026  1.8069
  169MOL    H3740693   3.898   1.374   4.765 -2.1407  0.8108  0.3168
  169MOL    C3840694   4.013   1.090   5.132  0.2998  0.4024  0.2276
  169MOL    C3940695   3.961   0.952   5.086  0.3481 -0.0002 -0.5681
  169MOL    C4040696   3.890   0.963   4.948 -0.2122 -0.1780 -0.4276
  169MOL    O4140697   3.961   0.936   4.850  0.4655 -0.2886 -0.5773
  169MOL    O4240698   3.765   1.009   4.954  0.4326  0.2711 -0.5654
  169MOL    C4340699   3.699   1.053   4.843  1.0799 -0.3893 -0.6311
  169MOL    H4440700   4.064   1.124   5.042 -0.1498 -0.4299 -0.3505
  169MOL    H4540701   4.099   1.093   5.199 -0.7250 -0.1464  1.6007
  169MOL    H4640702   3.880   0.919   5.151  0.9226 -0.8527 -0.2681
  169MOL    H4740703   3.676   0.977   4.768 -0.7563 -1.5539  1.0790
  169MOL    H4840704   3.758   1.127   4.789 -1.1254  1.5397 -0.4594
  169MOL    H4940705   3.603   1.096   4.869  1.6650  1.0215 -0.7653
  169MOL    C5040706   4.080   0.853   5.086  0.7585 -0.1266  0.5255
  169MOL    C5140707   4.113   0.798   5.227  0.3441 -0.4641  0.1578
  169MOL    C5240708   4.006   0.692   5.260 -0.3272  0.4810 -0.2788
  169MOL    O5340709   3.939   0.636   5.178 -0.1896  0.2287 -0.2121
  169MOL    O5440710   3.982   0.668   5.390  0.0419  0.0594 -0.1257
  169MOL    C5540711   3.866   0.596   5.435 -0.3836 -0.4344 -0.3848
  169MOL    H5640712   4.064   0.767   5.021  1.0812  0.6410 -0.6056
  169MOL    H5740713   4.164   0.906   5.041  0.4648  0.6028  0.8318
  169MOL    H5840714   4.103   0.880   5.299  2.2671 -0.5339  0.5484
  169MOL    H5940715   3.857   0.613   5.542  0.0136  0.7208 -0.5295
  169MOL    H6040716   3.879   0.489   5.417  0.3994 -0.2585 -0.9155
  169MOL    H6140717   3.777   0.615   5.375  1.3419  2.1949 -2.2344
  169MOL    C6240718   4.256   0.746   5.225  0.4484  0.1333  0.5171
  169MOL    C6340719   4.281   0.648   5.342 -0.0746  0.3441  0.1286
  169MOL    C6440720   4.422   0.607   5.310 -0.3710 -0.0153 -0.7704
  169MOL    O6540721   4.521   0.673   5.353  0.0927  0.8754 -0.4103
  169MOL    O6640722   4.419   0.509   5.226 -0.1469 -0.5225  0.5257
  169MOL    C6740723   4.542   0.467   5.174  0.3236 -0.1051 -0.0783
  169MOL    H6840724   4.266   0.694   5.129  0.7116  0.1068  0.5576
  169MOL    H6940725   4.325   0.830   5.223  0.2075  0.3097 -0.5801
  169MOL    H7040726   4.225   0.555   5.339  1.3542 -0.5354  0.1804
  169MOL    H7140727   4.523   0.379   5.112  0.3979 -0.4665  0.4083
  169MOL    H7240728   4.617   0.458   5.253 -1.6793  0.7695  1.9436
  169MOL    H7340729   4.582   0.546   5.110  1.4623 -0.2113  0.4791
  169MOL    C7440730   4.276   0.713   5.488  0.1270 -0.1929  0.5619
  169MOL    C7540731   4.230   0.617   5.601 -0.4401 -0.3104  0.2348
  169MOL    C7640732   4.298   0.479   5.588  0.0426  0.2753 -0.1981
  169MOL    O7740733   4.419   0.467   5.598 -0.6108 -0.4457  0.1999
  169MOL    O7840734   4.219   0.380   5.563 -0.5380  0.0288 -0.1400
  169MOL    C7940735   4.272   0.246   5.593 -0.1109  0.1270 -0.3306
  169MOL    H8040736   4.375   0.751   5.516  1.2173 -0.5378 -2.5667
  169MOL    H8140737   4.215   0.804   5.493  2.4558  1.4318  0.4043
  169MOL    H8240738   4.123   0.599   5.592 -0.7113  0.9666  0.8039
  169MOL    H8340739   4.343   0.217   5.516  1.5703  2.1474  0.4050
  169MOL    H8440740   4.197   0.167   5.600 -0.4044  0.2301 -2.2581
  169MOL    H8540741   4.316   0.242   5.693 -1.3631  2.9516  0.3900
  169MOL    C8640742   4.254   0.673   5.746  0.3859  0.1197  0.5106
  169MOL    C8740743   4.182   0.588   5.858 -0.3162  0.0278 -0.4270
  169MOL    C8840744   4.295   0.500   5.925  0.0910 -0.5026  0.0754
  169MOL    O8940745   4.303   0.379   5.916 -0.3287  0.5984  0.4681
  169MOL    O9040746   4.379   0.586   5.982  0.0944  0.1027 -0.4974
  169MOL    C9140747   4.506   0.550   6.016 -0.1956  0.4315  0.1617
  169MOL    H9240748   4.360   0.691   5.765  0.0679  2.5808  0.1737
  169MOL    H9340749   4.221   0.776   5.762  0.6939 -0.0844  2.6834
  169MOL    H9440750   4.108   0.528   5.805  0.3456 -1.0035 -0.1845
  169MOL    H9540751   4.532   0.599   6.110  0.8554  0.1909  0.0040
  169MOL    H9640752   4.576   0.579   5.938 -1.3668  1.6776 -0.4620
  169MOL    H9740753   4.520   0.442   6.012 -1.7259  0.2509 -0.8427
  169MOL    C9840754   4.098   0.670   5.967  0.2437 -0.0422  0.4561
  169MOL    C9940755   3.997   0.587   6.040  0.3249 -0.2714  0.2041
  169MOL   C10040756   3.964   0.647   6.180  0.4819 -0.1445  0.5939
  169MOL   O10140757   4.001   0.586   6.279 -0.1146  0.5817 -0.3770
  169MOL   O10240758   3.883   0.754   6.170 -0.0172 -0.2664 -0.9532
  169MOL   C10340759   3.802   0.787   6.282 -0.3094 -0.2483 -0.2623
  169MOL   H10440760   4.166   0.712   6.041  2.2057 -0.4284 -1.0772
  169MOL   H10540761   4.047   0.761   5.936 -0.5667 -0.5955  0.1451
  169MOL   H10640762   4.036   0.489   6.068 -0.5921 -0.3731  1.1757
  169MOL   H10740763   3.826   0.742   6.377  0.6354 -0.6579 -0.6858
  169MOL   H10840764   3.698   0.762   6.261 -1.1485  0.9698  2.1952
  169MOL   H10940765   3.813   0.895   6.298  1.1374 -0.7173  2.0451
  169MOL   C11040766   3.878   0.572   5.949  0.2026 -0.0051  0.4026
  169MOL   C11140767   3.758   0.504   6.009  0.2730 -0.7286 -0.1059
  169MOL   C11240768   3.627   0.534   5.921  0.1476  0.0586  0.0839
  169MOL   O11340769   3.540   0.606   5.971 -0.4486 -0.3802 -0.0956
  169MOL   O11440770   3.632   0.488   5.789 -0.3505 -0.5306  0.1021
  169MOL   C11540771   3.521   0.514   5.700 -0.0192 -0.1921  0.0541
  169MOL   H11640772   3.855   0.675   5.921  0.9840 -0.0354 -0.3949
  169MOL   H11740773   3.898   0.545   5.845  1.3891  1.2659  0.2853
  169MOL   H11840774   3.729   0.554   6.102 -1.0949 -0.7361 -0.5194
  169MOL   H11940775   3.458   0.426   5.685  0.6354 -0.6643  0.0465
  169MOL   H12040776   3.572   0.551   5.611 -0.4501 -0.1253 -0.1640
  169MOL   H12140777   3.461   0.593   5.745 -2.0119 -0.4886 -1.9887
  169MOL   C12240778   3.771   0.354   6.036  0.3044 -0.0912 -0.6603
  169MOL   C12340779   3.656   0.288   6.117  0.1641 -0.1823 -0.0370
  169MOL   C12440780   3.547   0.235   6.022  0.0439 -0.4411  0.0299
  169MOL   O12540781   3.432   0.268   6.048  0.3540  0.4025  0.1329
  169MOL   O12640782   3.588   0.161   5.914 -0.3428 -0.0200  0.3074
  169MOL   C12740783   3.496   0.114   5.817 -0.0169 -0.7925 -0.2501
  169MOL   H12840784   3.807   0.296   5.951 -0.8130 -0.7657 -0.6862
  169MOL   H12940785   3.866   0.357   6.090 -1.1359  0.0713  1.9384
  169MOL   H13040786   3.616   0.375   6.170 -1.2591  0.1674 -1.6345
  169MOL   H13140787   3.543   0.037   5.757 -0.5683 -2.2831  1.1835
  169MOL   H13240788   3.465   0.198   5.755 -0.3380 -0.4085  0.4186
  169MOL   H13340789   3.412   0.067   5.868 -1.5240  1.4546 -0.5542
  169MOL   C13440790   3.710   0.189   6.219  0.1239 -0.2119  0.4137
  169MOL   C13540791   3.784   0.258   6.340 -0.2398 -0.8977 -0.2206
  169MOL   C13640792   3.671   0.289   6.442  0.2611  0.9067 -0.2752
  169MOL   O13740793   3.626   0.403   6.448  0.0494  0.8334 -0.0152
  169MOL   O13840794   3.619   0.186   6.499 -0.4605  0.2130 -0.1064
  169MOL   C13940795   3.535   0.194   6.611 -0.5494 -0.0268 -0.1673
  169MOL   H14040796   3.631   0.125   6.256 -0.4784  0.7327  0.7735
  169MOL   H14140797   3.772   0.112   6.173  1.5278 -0.3465  2.4707
  169MOL   H14240798   3.830   0.354   6.317  1.1220 -1.3355  0.6757
  169MOL   H14340799   3.474   0.282   6.590  0.4861  0.5563 -0.7646
  169MOL   H14440800   3.603   0.210   6.695  1.0747 -1.1739 -1.2309
  169MOL   H14540801   3.469   0.109   6.625 -0.3730 -0.1904 -0.3216
  169MOL   C14640802   3.903   0.180   6.395  0.0805 -0.2829  0.2733
  169MOL   C14740803   4.024   0.167   6.308 -0.5643  0.4177  0.3695
  169MOL   C14840804   4.119   0.288   6.297  0.2419 -0.5221  0.1296
  169MOL   O14940805   4.163   0.322   6.188 -0.8656  0.1071  0.3239
  169MOL   O15040806   4.150   0.344   6.423  0.4442 -0.0262 -0.3312
  169MOL   C15140807   4.231   0.459   6.435  0.6410  0.0541 -0.3767
  169MOL   H15240808   3.928   0.217   6.494  0.9752  1.2751 -0.5300
  169MOL   H15340809   3.864   0.080   6.415  1.1373 -0.5528  1.0350
  169MOL   H15440810   3.982   0.156   6.208 -0.0332  1.9159 -0.0400
  169MOL   H15540811   4.292   0.458   6.345  0.8729 -0.8324 -0.2173
  169MOL   H15640812   4.301   0.450   6.519 -1.5370  1.5360  1.6455
  169MOL   H15740813   4.171   0.549   6.443 -1.1095 -0.9795 -1.4528
  169MOL   C15840814   4.105   0.040   6.348 -0.5146  1.0994 -0.0512
  169MOL   C15940815   4.085   7.859   6.251 -0.1370  0.6316  0.9268
  169MOL   C16040816   4.159   7.884   6.121 -0.0444  0.2010 -0.2701
  169MOL   O16140817   4.277   7.858   6.108  0.1250 -0.3437  0.0639
  169MOL   O16240818   4.084   0.004   6.029  0.0395  0.1899  0.8715
  169MOL   C16340819   4.149   0.064   5.917 -0.3776  0.0249 -0.0978
  169MOL   H16440820   4.213   0.053   6.359 -0.5950  0.8944  1.0219
  169MOL   H16540821   4.083   0.018   6.452 -3.1874  0.5778 -0.7100
  169MOL   H16640822   3.978   7.856   6.230  0.1320 -0.2490 -0.3381
  169MOL   H16740823   4.084   0.045   5.832 -1.9974 -0.4724  1.2215
  169MOL   H16840824   4.251   0.027   5.907  0.1073  1.1936  0.3731
  169MOL   H16940825   4.153   0.173   5.927 -0.7090  0.1297 -1.0965
  169MOL   C17040826   4.128   7.726   6.309 -0.3759 -0.4224 -0.3064
  169MOL   C17140827   4.040   7.678   6.421 -0.3991 -0.0020 -0.2577
  169MOL   C17240828   3.887   7.662   6.376 -0.4352  0.8991  0.6190
  169MOL   O17340829   3.856   7.564   6.305  0.0740 -0.1269  0.1528
  169MOL   O17440830   3.807   7.762   6.413  0.4545  0.0698  0.4059
  169MOL   C17540831   3.682   7.775   6.347 -0.3620  0.3673  1.2474
  169MOL   H17640832   4.143   7.647   6.235 -3.0154 -1.5288  0.2677
  169MOL   H17740833   4.229   7.739   6.348 -0.0063 -0.7317 -1.1537
  169MOL   H17840834   4.042   7.746   6.505  1.5603  1.1346 -1.1922
  169MOL   H17940835   3.694   7.771   6.239  2.0388  2.2777  1.4100
  169MOL   H18040836   3.628   7.867   6.370  1.9354  1.4174  2.6252
  169MOL   H18140837   3.614   7.692   6.371 -0.5879  0.1034 -0.2861
  169MOL   C18240838   4.093   7.543   6.467 -0.2720 -0.3328 -0.0774
  169MOL   C18340839   4.221   7.543   6.546  0.0248 -0.2203  0.1762
  169MOL   C18440840   4.180   7.560   6.692 -0.2097 -0.7238  0.0569
  169MOL   O18540841   4.225   7.657   6.759  0.3639  0.8213  0.4688
  169MOL   O18640842   4.122   7.459   6.750 -0.0963  0.5166  0.3821
  169MOL   C18740843   4.074   7.477   6.884 -0.3699  0.0266 -0.1916
  169MOL   H18840844   4.014   7.490   6.520 -1.4404  3.0097  1.6047
  169MOL   H18940845   4.109   7.476   6.382 -0.5038 -3.3141  2.1493
  169MOL   H19040846   4.273   7.634   6.517  1.9890 -1.2248  0.4610
  169MOL   H19140847   4.141   7.538   6.945  1.2707 -1.1335 -0.8141
  169MOL   H19240848   4.063   7.379   6.931 -1.3706 -0.7237 -1.9425
  169MOL   H19340849   3.978   7.529   6.893 -0.2427  0.0286  1.2962
  169MOL   C19440850   4.311   7.421   6.517 -0.2886 -0.4820  0.1755
  169MOL   C19540851   4.371   7.415   6.373 -0.9247  0.7661  0.0266
  169MOL   C19640852   4.504   7.479   6.384 -0.7766 -0.3701  0.1369
  169MOL   O19740853   4.604   7.410   6.394 -0.5163 -0.6064  0.0994
  169MOL   O19840854   4.507   7.611   6.391  0.2757  0.1242 -0.2849
  169MOL   C19940855   4.628   7.680   6.399  0.0374 -0.6172  0.6482
  169MOL   H20040856   4.389   7.409   6.591  0.1955  0.4985 -0.1634
  169MOL   H20140857   4.247   7.336   6.539 -0.4871 -0.6429 -0.9775
  169MOL   H20240858   4.305   7.478   6.315  0.4945  2.1096 -0.1703
  169MOL   H20340859   4.687   7.653   6.486  0.9647  1.9175  0.8462
  169MOL   H20440860   4.617   7.788   6.395 -1.0081 -0.7342  0.1195
  169MOL   H20540861   4.686   7.658   6.309  0.0562 -0.5105  0.6341
  169MOL   C20640862   4.381   7.271   6.319 -0.1567 -0.4704 -0.0805
  169MOL   C20740863   4.368   7.260   6.161 -0.1111 -0.1564  0.6298
  169MOL   C20840864   4.236   7.282   6.102  0.2653 -0.4303 -0.1946
  169MOL   O20940865   4.170   7.199   6.047  0.0849  0.0093  0.3858
  169MOL   O21040866   4.195   7.413   6.089 -0.3906  0.2763 -0.7158
  169MOL   C21140867   4.062   7.450   6.047  0.3770 -0.1565  0.2035
  169MOL   H21240868   4.468   7.211   6.348 -0.1199 -0.4508 -0.1489
  169MOL   H21340869   4.296   7.217   6.359  0.6447  0.0225  2.3987
  169MOL   H21440870   4.391   7.156   6.140  1.1925  0.2280  0.0473
  169MOL   H21540871   4.070   7.558   6.045  1.0300 -0.1416  2.5072
  169MOL   H21640872   3.985   7.426   6.121  2.9927  1.0031  3.4296
  169MOL   H21740873   4.028   7.416   5.949  3.3562  0.1267 -0.9803
  169MOL   C21840874   4.468   7.333   6.080  0.3541  0.5345 -0.4127
  169MOL   C21940875   4.478   7.316   5.927 -0.4296  0.2135  0.5815
  169MOL   C22040876   4.590   7.403   5.871  0.0617 -0.7539 -0.1902
  169MOL   O22140877   4.563   7.517   5.827  0.2062 -0.4112  0.0102
  169MOL   O22240878   4.719   7.353   5.880 -0.1330  0.1136  0.5082
  169MOL   C22340879   4.828   7.428   5.852 -0.0683 -0.7971  0.2441
  169MOL   H22440880   4.458   7.440   6.098 -0.9824  0.4873 -0.8322
  169MOL   H22540881   4.567   7.308   6.118  0.8286  4.7615  1.4475
  169MOL   H22640882   4.385   7.361   5.893 -0.0405  0.5028 -0.1057
  169MOL   H22740883   4.832   7.480   5.756 -1.6360  1.6530  1.4590
  169MOL   H22840884   4.910   7.358   5.869 -0.6778 -2.0641 -1.8854
  169MOL   H22940885   4.833   7.508   5.926 -2.6764  1.6023 -2.0482
  169MOL   C23040886   4.475   7.170   5.886  1.1442 -0.1983  0.1290
  169MOL   C23140887   4.445   7.145   5.735 -0.1131  0.2764 -0.2740
  169MOL   C23240888   4.297   7.176   5.705 -0.1486 -0.6264 -0.6997
  169MOL   O23340889   4.205   7.097   5.731 -0.4258 -0.5016 -0.2303
  169MOL   O23440890   4.284   7.291   5.653 -0.0027 -0.0225 -0.3389
  169MOL   C23540891   4.162   7.346   5.610  0.4732  0.2464 -0.0235
  169MOL   H23640892   4.562   7.123   5.931  0.2195  0.3720  2.5902
  169MOL   H23740893   4.389   7.127   5.935  2.0846 -2.2651  0.0027
  169MOL   H23840894   4.447   7.037   5.721  3.8073  0.4134 -1.2678
  169MOL   H23940895   4.092   7.265   5.589 -0.6245  0.7695  1.5257
  169MOL   H24040896   4.169   7.399   5.515 -0.7289 -0.0958 -0.3152
  169MOL   H24140897   4.124   7.409   5.691  1.2619  0.4500  0.1931
  169MOL   H24240898   4.520   7.190   5.670 -0.5954 -0.4819 -1.3815
  170MOL     C140899   6.702   1.342   4.622 -0.2339  0.7773 -0.3277
  170MOL     C240900   6.636   1.240   4.520  0.2640 -0.3980  0.5896
  170MOL     C340901   6.618   1.097   4.590  0.2087 -0.0013  0.3796
  170MOL     O440902   6.667   1.073   4.700 -0.0748  0.0012 -0.1622
  170MOL     O540903   6.552   1.015   4.507  0.2583 -0.5271 -0.3671
  170MOL     C640904   6.485   0.907   4.571  0.0457  0.7092  0.0303
  170MOL     H740905   6.716   1.428   4.557 -0.3556 -0.1476 -1.5867
  170MOL     H840906   6.798   1.305   4.660 -1.4971 -0.7004  1.5469
  170MOL     H940907   6.715   1.229   4.446 -0.5299  1.3629 -0.5409
  170MOL    H1040908   6.407   0.861   4.509  4.1998 -1.7669 -3.7125
  170MOL    H1140909   6.425   0.935   4.657 -0.0641 -0.1237  0.2303
  170MOL    H1240910   6.554   0.825   4.591 -0.4099  0.1388 -0.6759
  170MOL    H1340911   6.642   1.382   4.704 -0.1992  1.7928 -0.7962
  170MOL    C1440912   6.491   1.292   4.479 -0.5011  0.0595  0.0307
  170MOL    C1540913   6.445   1.239   4.338  0.5006  0.8452  0.5697
  170MOL    C1640914   6.300   1.277   4.304 -0.3415 -0.3312  0.0994
  170MOL    O1740915   6.212   1.194   4.301  0.3533  0.4152 -0.6040
  170MOL    O1840916   6.282   1.412   4.301  0.3371 -0.5490 -0.2633
  170MOL    C1940917   6.147   1.456   4.287 -0.2886  0.2290 -0.1926
  170MOL    H2040918   6.419   1.265   4.555 -1.8372  0.1635 -1.1715
  170MOL    H2140919   6.482   1.400   4.472 -0.3746  0.1642  1.5112
  170MOL    H2240920   6.433   1.130   4.342  0.5813  0.7327 -1.6152
  170MOL    H2340921   6.114   1.439   4.185 -1.3677  0.2066  0.1571
  170MOL    H2440922   6.161   1.564   4.299  0.8853  0.3113 -2.1369
  170MOL    H2540923   6.088   1.411   4.366 -1.0787 -2.3356 -2.1999
  170MOL    C2640924   6.538   1.265   4.216 -0.5429 -0.3783  0.0841
  170MOL    C2740925   6.493   1.183   4.090  0.1762 -0.3994 -0.0592
  170MOL    C2840926   6.566   1.229   3.959  0.9310 -0.1111  0.3639
  170MOL    O2940927   6.671   1.291   3.972  0.2194  0.3961  0.0377
  170MOL    O3040928   6.506   1.179   3.853 -0.3195 -0.1968  0.4644
  170MOL    C3140929   6.580   1.167   3.738 -1.0135  0.4807  0.0067
  170MOL    H3240930   6.532   1.373   4.198 -1.4559 -0.8124 -2.4029
  170MOL    H3340931   6.644   1.252   4.236  0.1835  2.4034 -1.6130
  170MOL    H3440932   6.389   1.207   4.066  1.0064  1.6843 -1.6846
  170MOL    H3540933   6.513   1.119   3.667 -0.3710 -0.6649  0.1656
  170MOL    H3640934   6.668   1.105   3.754 -1.0499  0.8848  1.9066
  170MOL    H3740935   6.607   1.264   3.695  1.6437 -0.6330 -0.9439
  170MOL    C3840936   6.535   1.026   4.101  0.2411 -0.1342  1.0224
  170MOL    C3940937   6.414   0.926   4.099  0.0477 -0.3719 -0.2470
  170MOL    C4040938   6.360   0.925   3.956 -0.0442 -0.8315  0.5940
  170MOL    O4140939   6.248   0.967   3.931  0.2039  1.0359  0.3897
  170MOL    O4240940   6.433   0.850   3.878 -0.0289  0.7894  0.0196
  170MOL    C4340941   6.407   0.849   3.740  0.2151  0.1374 -0.8055
  170MOL    H4440942   6.608   0.987   4.030 -0.2481  1.6506 -0.5444
  170MOL    H4540943   6.577   1.013   4.200 -0.0336  0.8398  1.2740
  170MOL    H4640944   6.330   0.961   4.158 -1.4993 -2.3359 -1.2193
  170MOL    H4740945   6.305   0.818   3.718 -0.1419 -1.0418  2.2481
  170MOL    H4840946   6.484   0.786   3.694  1.2445  1.9417 -1.5895
  170MOL    H4940947   6.423   0.942   3.686 -1.6124  0.6182 -0.5562
  170MOL    C5040948   6.453   0.784   4.157 -0.6597  0.4627 -0.1271
  170MOL    C5140949   6.332   0.707   4.217 -0.1903  0.0061 -0.4019
  170MOL    C5240950   6.225   0.657   4.120 -0.8982  1.1637  0.1830
  170MOL    O5340951   6.120   0.627   4.168  0.1122  0.2861 -0.1537
  170MOL    O5440952   6.263   0.623   3.996 -0.5238  0.4706 -0.1445
  170MOL    C5540953   6.163   0.587   3.895  0.3055 -0.3423 -0.7041
  170MOL    H5640954   6.504   0.720   4.085  0.3314 -1.2212  2.0082
  170MOL    H5740955   6.513   0.804   4.246  1.4758  0.0095 -1.4380
  170MOL    H5840956   6.287   0.790   4.271 -1.0255 -0.4319 -0.4046
  170MOL    H5940957   6.084   0.661   3.888  0.1773 -0.4858 -0.7810
  170MOL    H6040958   6.106   0.494   3.901  1.1140 -0.7169  1.5129
  170MOL    H6140959   6.211   0.586   3.797  0.4524  0.6101 -0.6486
  170MOL    C6240960   6.364   0.603   4.325  0.2352  0.5968 -0.9541
  170MOL    C6340961   6.400   0.460   4.272 -0.0248  0.2000 -0.1605
  170MOL    C6440962   6.540   0.461   4.210  0.3954 -0.1056  0.5864
  170MOL    O6540963   6.556   0.459   4.086 -0.2258 -0.1143  0.1404
  170MOL    O6640964   6.630   0.495   4.297 -0.4365 -0.3833  0.2051
  170MOL    C6740965   6.756   0.527   4.243  0.1443 -0.5968  0.1891
  170MOL    H6840966   6.432   0.652   4.395  0.8333 -0.9765 -0.4213
  170MOL    H6940967   6.277   0.590   4.389  1.7091 -0.4950  0.8900
  170MOL    H7040968   6.331   0.428   4.193  2.2418 -1.0378 -1.6999
  170MOL    H7140969   6.742   0.621   4.190  2.2205 -0.8958 -0.9173
  170MOL    H7240970   6.796   0.454   4.173  0.7447 -0.7684  0.7044
  170MOL    H7340971   6.829   0.546   4.322  1.6028 -2.2200 -0.7440
  170MOL    C7440972   6.392   0.359   4.389 -0.3320 -0.7183 -0.2731
  170MOL    C7540973   6.338   0.219   4.342 -0.2630  0.2267 -0.7079
  170MOL    C7640974   6.212   0.230   4.256  0.2122  0.7096 -0.4518
  170MOL    O7740975   6.194   0.148   4.164 -0.3882  0.0010 -0.3145
  170MOL    O7840976   6.128   0.332   4.293  0.0908 -0.0581 -0.4700
  170MOL    C7940977   6.013   0.351   4.213 -0.2191 -0.1382 -0.4447
  170MOL    H8040978   6.485   0.356   4.445 -0.8556  0.4482  0.6992
  170MOL    H8140979   6.320   0.397   4.462 -1.8347  1.6047 -2.8413
  170MOL    H8240980   6.304   0.176   4.436  2.0239 -0.0212  0.0533
  170MOL    H8340981   5.944   0.428   4.248 -0.4965 -0.4569 -0.2925
  170MOL    H8440982   5.953   0.260   4.206  0.9460 -0.9270 -0.2825
  170MOL    H8540983   6.046   0.383   4.114 -0.6464 -2.9399 -1.5208
  170MOL    C8640984   6.453   0.140   4.277 -0.3032  0.2935  0.3290
  170MOL    C8740985   6.451   7.918   4.279  0.7241  0.0832 -0.1165
  170MOL    C8840986   6.473   7.854   4.143 -0.8439  0.6016  0.6536
  170MOL    O8940987   6.570   7.773   4.119  0.1247 -0.9346  0.0041
  170MOL    O9040988   6.387   7.894   4.051 -0.2604 -0.0428  0.4541
  170MOL    C9140989   6.408   7.847   3.919  0.2521 -0.0908 -0.6078
  170MOL    H9240990   6.442   0.162   4.171  0.2363 -0.7282  0.0458
  170MOL    H9340991   6.546   0.177   4.320  0.2514 -1.4575  0.7127
  170MOL    H9440992   6.351   7.875   4.288 -0.5989  2.7062 -1.5160
  170MOL    H9540993   6.478   7.903   3.857  1.9377 -1.5151 -0.0365
  170MOL    H9640994   6.313   7.853   3.866 -0.6939 -1.3503  0.9313
  170MOL    H9740995   6.432   7.741   3.927 -1.3814 -0.3161  1.6202
  170MOL    C9840996   6.549   7.859   4.389 -0.2242 -0.5001 -0.1501
  170MOL    C9940997   6.484   7.836   4.528 -0.1491  0.2118 -0.3794
  170MOL   C10040998   6.361   7.736   4.526 -0.5128 -0.1374  0.4959
  170MOL   O10140999   6.339   7.656   4.435 -0.0857  0.0929 -0.5135
  170MOL   O10241000   6.298   7.739   4.642  0.0210 -0.5569 -0.4727
  170MOL   C10341001   6.216   7.628   4.673  0.0051 -0.3831  0.3068
  170MOL   H10441002   6.591   7.763   4.360 -1.4351 -1.1568  0.1985
  170MOL   H10541003   6.632   7.927   4.405 -1.6402  2.2013 -3.5625
  170MOL   H10641004   6.449   0.005   4.542  0.4605  0.6335 -1.7780
  170MOL   H10741005   6.267   7.532   4.667 -0.5463 -0.7174  0.9629
  170MOL   H10841006   6.132   7.611   4.606 -1.0326  1.8607  0.9918
  170MOL   H10941007   6.170   7.643   4.771 -2.0670  0.3230 -0.7427
  170MOL   C11041008   6.599   7.793   4.624 -0.2080  0.5501  0.1346
  170MOL   C11141009   6.569   7.803   4.772  0.2691 -0.4313  0.1140
  170MOL   C11241010   6.683   7.728   4.861 -0.2811 -1.1244  0.3640
  170MOL   O11341011   6.671   7.613   4.894 -0.4474  0.0123  0.8399
  170MOL   O11441012   6.798   7.807   4.873 -0.1390  0.5675  0.1978
  170MOL   C11541013   6.890   7.769   4.972 -0.3735  0.2638  0.7288
  170MOL   H11641014   6.618   7.687   4.606  1.5331  0.8704  0.0817
  170MOL   H11741015   6.692   7.845   4.606 -0.0620  0.1692 -0.2140
  170MOL   H11841016   6.479   7.742   4.784 -0.7359  0.6239 -1.8961
  170MOL   H11941017   6.844   7.727   5.062 -0.9385 -2.6560 -0.8756
  170MOL   H12041018   6.961   7.849   4.992  1.2788 -0.5558 -1.6959
  170MOL   H12141019   6.954   7.688   4.939 -0.6412  1.3515 -2.6740
  170MOL   C12241020   6.534   0.018   4.808 -0.1484  0.6085 -0.2094
  170MOL   C12341021   6.501   0.051   4.954 -0.6928  0.4910  0.3065
  170MOL   C12441022   6.623   0.082   5.041  0.5194 -0.4117  0.2399
  170MOL   O12541023   6.654   0.027   5.152 -0.0167  0.5797  0.0095
  170MOL   O12641024   6.693   0.182   4.989 -0.3578  0.5937  0.1085
  170MOL   C12741025   6.805   0.243   5.052  0.2855 -0.1106  0.2139
  170MOL   H12841026   6.609   0.079   4.758 -0.1746  0.7322 -0.0964
  170MOL   H12941027   6.441   0.036   4.755 -1.2127 -1.7348  0.7973
  170MOL   H13041028   6.468   7.894   5.006  0.8739  0.1453  0.7302
  170MOL   H13141029   6.852   0.306   4.976 -0.5282  0.3921  0.1226
  170MOL   H13241030   6.867   0.162   5.090  4.3432  1.6624 -2.2513
  170MOL   H13341031   6.783   0.311   5.134 -0.4482 -0.5352  0.3753
  170MOL   C13441032   6.389   0.154   4.972  0.7317 -1.0010  0.1981
  170MOL   C13541033   6.414   0.308   4.942  0.3284  0.0010 -0.2963
  170MOL   C13641034   6.459   0.319   4.792  0.7981 -0.5699  0.0113
  170MOL   O13741035   6.390   0.293   4.698 -0.0923  0.1296  0.1209
  170MOL   O13841036   6.583   0.360   4.776 -0.0078 -0.3228 -0.1476
  170MOL   C13941037   6.639   0.386   4.643 -0.3529 -0.2421  0.1404
  170MOL   H14041038   6.307   0.118   4.909  2.2866 -2.1656 -1.2077
  170MOL   H14141039   6.354   0.148   5.075 -1.4656 -1.8449 -0.5712
  170MOL   H14241040   6.505   0.347   4.986 -0.0927  0.0462  0.5412
  170MOL   H14341041   6.737   0.435   4.645 -1.2605  1.5922  0.5629
  170MOL   H14441042   6.566   0.445   4.587 -0.6360 -1.1250 -0.4369
  170MOL   H14541043   6.645   0.292   4.587 -1.5107  0.2167 -0.7748
  170MOL   C14641044   6.303   0.407   4.972  0.5661 -0.0274 -0.4017
  170MOL   C14741045   6.227   0.382   5.110  0.3722 -0.7193  0.5629
  170MOL   C14841046   6.320   0.367   5.227 -0.5968 -0.0710  0.0182
  170MOL   O14941047   6.435   0.412   5.232  0.1092  0.0721 -0.2113
  170MOL   O15041048   6.277   0.282   5.320 -0.2457  0.5845  0.1003
  170MOL   C15141049   6.340   0.278   5.451  0.2136 -0.7051 -0.1262
  170MOL   H15241050   6.331   0.512   4.958  2.0779 -0.1439  1.4888
  170MOL   H15341051   6.229   0.390   4.894  1.6620 -0.7716 -1.2750
  170MOL   H15441052   6.177   0.286   5.097 -2.6398  0.7936  0.4900
  170MOL   H15541053   6.273   0.222   5.515  0.5087 -0.5209  0.3487
  170MOL   H15641054   6.350   0.376   5.498  0.5276 -0.6535 -0.2931
  170MOL   H15741055   6.444   0.244   5.451 -0.2324 -2.1546  1.7664
  170MOL   C15841056   6.116   0.492   5.134  0.4616  0.6282 -0.3873
  170MOL   C15941057   6.014   0.503   5.018  0.0385 -0.3243 -0.5115
  170MOL   C16041058   5.948   0.367   4.999  0.9061 -0.3976  0.4049
  170MOL   O16141059   5.980   0.298   4.903  0.5700  0.0489 -0.8423
  170MOL   O16241060   5.853   0.335   5.099 -0.2373 -0.1908  0.0114
  170MOL   C16341061   5.785   0.215   5.095  0.0950 -0.1928 -0.3732
  170MOL   H16441062   6.067   0.457   5.225  3.1519 -1.6954  0.2547
  170MOL   H16541063   6.159   0.591   5.153  1.8761  0.6725 -3.5988
  170MOL   H16641064   6.082   0.516   4.934  2.2651  1.6432  1.5275
  170MOL   H16741065   5.696   0.207   5.034  0.1903  1.5670 -0.7970
  170MOL   H16841066   5.742   0.193   5.193 -2.8052 -2.3529 -2.0766
  170MOL   H16941067   5.852   0.132   5.074 -0.3799 -0.8398  0.6266
  170MOL   C17041068   5.921   0.631   5.029 -0.6854 -0.8536 -0.2515
  170MOL   C17141069   5.865   0.700   4.898 -0.6482  0.0417 -0.6424
  170MOL   C17241070   5.724   0.652   4.859 -0.5076 -0.1735  0.3184
  170MOL   O17341071   5.650   0.586   4.927 -0.4570  0.3025 -0.6599
  170MOL   O17441072   5.696   0.690   4.735 -0.0980 -0.4867 -1.0181
  170MOL   C17541073   5.570   0.662   4.686  0.0325 -0.7481  0.0959
  170MOL   H17641074   5.840   0.607   5.098  0.9000  0.3164  2.0730
  170MOL   H17741075   5.985   0.700   5.083 -2.1330 -0.8583  1.5163
  170MOL   H17841076   5.931   0.666   4.819  0.2816  1.9198 -0.6906
  170MOL   H17941077   5.525   0.572   4.728  1.9801 -1.5504  0.4916
  170MOL   H18041078   5.572   0.674   4.578  1.5841  1.2729  0.3195
  170MOL   H18141079   5.515   0.744   4.732  1.2678 -0.1953  0.5942
  170MOL   C18241080   5.876   0.858   4.922  0.0001  0.5263 -0.0462
  170MOL   C18341081   6.019   0.917   4.917 -0.8012  0.2370  0.3549
  170MOL   C18441082   6.084   0.880   4.784  0.6134 -0.1790 -0.2799
  170MOL   O18541083   6.166   0.792   4.768  0.0404  0.8725 -0.3748
  170MOL   O18641084   6.038   0.953   4.680 -0.4287  0.2712 -0.8079
  170MOL   C18741085   6.113   0.951   4.559  0.3371  0.1845 -0.7005
  170MOL   H18841086   5.824   0.905   4.839 -1.6276  0.8538  1.1465
  170MOL   H18941087   5.831   0.895   5.014 -0.9489 -0.3775 -0.1488
  170MOL   H19041088   6.079   0.862   4.990 -0.0212 -1.4993 -1.5459
  170MOL   H19141089   6.137   0.850   4.527  0.8197 -0.0823  0.4683
  170MOL   H19241090   6.205   1.009   4.570 -1.5129  3.0199  0.2678
  170MOL   H19341091   6.068   1.010   4.479  0.5070  0.1190 -0.8463
  170MOL   C19441092   6.026   1.066   4.957 -0.6379  0.8379 -0.3986
  170MOL   C19541093   6.171   1.129   4.966 -0.1239 -0.0484  0.4479
  170MOL   C19641094   6.227   1.185   4.829 -0.5783 -0.1588  0.0385
  170MOL   O19741095   6.323   1.139   4.773 -0.1785  0.6986  0.2708
  170MOL   O19841096   6.153   1.293   4.787  0.5723  0.2730  0.3421
  170MOL   C19941097   6.194   1.351   4.658 -0.0740 -0.4712 -0.1681
  170MOL   H20041098   5.955   1.120   4.895  1.5668  2.4248 -1.6238
  170MOL   H20141099   5.980   1.068   5.056 -0.1203 -0.0361 -0.1292
  170MOL   H20241100   6.236   1.049   5.002  1.3700 -0.3002 -2.5793
  170MOL   H20341101   6.121   1.427   4.630 -0.7155 -0.1924  2.1402
  170MOL   H20441102   6.197   1.264   4.592  0.9529  0.7011 -1.6780
  170MOL   H20541103   6.294   1.392   4.673 -0.6554 -0.1836  3.3225
  170MOL   C20641104   6.177   1.245   5.074  0.9694  0.4457  0.4128
  170MOL   C20741105   6.318   1.307   5.102 -0.7365  0.6221  0.4808
  170MOL   C20841106   6.302   1.435   5.178  0.0885  0.0708 -0.5861
  170MOL   O20941107   6.206   1.451   5.253 -0.6525 -0.2606 -0.2596
  170MOL   O21041108   6.415   1.514   5.155 -0.2520  0.1697 -0.1977
  170MOL   C21141109   6.442   1.615   5.249 -0.5145  0.1318 -0.8056
  170MOL   H21241110   6.092   1.308   5.047  1.4383  0.7111 -0.4780
  170MOL   H21341111   6.137   1.201   5.165 -0.1218  0.3398 -0.0960
  170MOL   H21441112   6.364   1.342   5.009 -0.8420 -0.7357 -0.0913
  170MOL   H21541113   6.359   1.685   5.252  0.6530  1.5483 -0.8199
  170MOL   H21641114   6.534   1.659   5.210 -1.2079  2.0609 -0.3247
  170MOL   H21741115   6.470   1.574   5.346  2.6719  1.5558 -1.0411
  170MOL   C21841116   6.417   1.205   5.169  0.1035  0.2710  0.2031
  170MOL   C21941117   6.573   1.251   5.161  0.2461  0.4522  0.9056
  170MOL   C22041118   6.650   1.173   5.266 -0.2006  0.0053 -0.6010
  170MOL   O22141119   6.663   1.051   5.255 -0.5836 -0.7233 -0.0998
  170MOL   O22241120   6.689   1.243   5.370 -0.3028 -0.6877 -0.1018
  170MOL   C22341121   6.780   1.186   5.463  0.3703 -0.5112 -0.2076
  170MOL   H22441122   6.380   1.180   5.269 -1.0282 -0.9354 -0.5012
  170MOL   H22541123   6.407   1.105   5.126 -1.5141 -0.7628  2.8102
  170MOL   H22641124   6.572   1.358   5.184 -0.7215  0.6192  0.1235
  170MOL   H22741125   6.820   1.271   5.518  2.0237  0.0060 -2.1116
  170MOL   H22841126   6.868   1.142   5.415 -0.0744 -2.0272  0.3148
  170MOL   H22941127   6.733   1.110   5.526  2.6798 -1.9744 -0.1674
  170MOL   C23041128   6.638   1.222   5.024  0.1111 -0.5317  0.0076
  170MOL   C23141129   6.772   1.296   5.010 -0.0516 -0.4566  0.0834
  170MOL   C23241130   6.748   1.448   5.014 -0.0419 -0.4150  0.4255
  170MOL   O23341131   6.777   1.516   5.111  0.1988 -0.0005  1.1415
  170MOL   O23441132   6.689   1.491   4.908 -0.1475 -0.1038 -0.1866
  170MOL   C23541133   6.656   1.624   4.908 -1.0400  0.2417  0.0964
  170MOL   H23641134   6.666   1.118   5.008 -0.5076 -0.4040 -2.0801
  170MOL   H23741135   6.580   1.266   4.943  1.0916  2.0473  0.6282
  170MOL   H23841136   6.802   1.273   4.908 -2.5049  2.0074 -1.2695
  170MOL   H23941137   6.631   1.633   4.802  0.8149  0.6599 -0.3267
  170MOL   H24041138   6.742   1.690   4.918  0.2201 -1.3775  0.0587
  170MOL   H24141139   6.575   1.645   4.978 -2.4723 -1.8079 -0.8861
  170MOL   H24241140   6.846   1.271   5.086  2.3830  1.2963 -1.6422
  171MOL     C141141   7.878   6.536   3.748 -0.7001 -0.2421 -0.0423
  171MOL     C241142   0.090   6.487   3.774  0.2282  0.0050 -0.2502
  171MOL     C341143   0.100   6.343   3.836 -0.2884  0.5749 -0.3955
  171MOL     O441144   0.094   6.240   3.773  0.2802 -0.7132 -0.7634
  171MOL     O541145   0.110   6.353   3.971  0.6061 -0.2351  0.2012
  171MOL     C641146   0.121   6.228   4.038  0.8218 -0.7199  0.0314
  171MOL     H741147   7.835   6.552   3.846  0.6259  1.2352  0.3207
  171MOL     H841148   7.810   6.462   3.707 -3.1723  0.4024  2.7544
  171MOL     H941149   0.151   6.552   3.837 -0.2407 -1.2882  1.5853
  171MOL    H1041150   0.216   6.175   4.042 -0.8392 -3.6510  3.7588
  171MOL    H1141151   0.058   6.149   3.996  1.3038 -1.4796  0.7160
  171MOL    H1241152   0.082   6.239   4.139 -1.9839  0.7590 -1.1542
  171MOL    H1341153   7.873   6.627   3.687 -2.2037  1.1891  2.1564
  171MOL    C1441154   0.169   6.481   3.642  0.6591 -0.0139  0.4964
  171MOL    C1541155   0.164   6.602   3.548  0.2680  0.1732  0.4986
  171MOL    C1641156   0.200   6.734   3.617  0.9657  0.3917  0.3569
  171MOL    O1741157   0.118   6.829   3.621  0.3346 -0.5045  0.2585
  171MOL    O1841158   0.318   6.725   3.679  0.1479 -0.2867 -0.1037
  171MOL    C1941159   0.368   6.834   3.757 -0.1556  0.8075  0.2757
  171MOL    H2041160   0.273   6.453   3.659 -0.0417 -3.3779 -0.4330
  171MOL    H2141161   0.136   6.400   3.577  0.6626  1.3518 -1.2643
  171MOL    H2241162   0.060   6.604   3.517  0.5427  2.6562 -0.3316
  171MOL    H2341163   0.304   6.838   3.845  0.1308  0.5267  0.4977
  171MOL    H2441164   0.353   6.933   3.714  0.6555  1.2554  0.9966
  171MOL    H2541165   0.475   6.832   3.776  0.3213 -1.5764 -2.2522
  171MOL    C2641166   0.243   6.588   3.413 -0.0406 -0.4904  0.0770
  171MOL    C2741167   0.399   6.572   3.424  0.2780  0.2734  0.0847
  171MOL    C2841168   0.444   6.460   3.317 -0.2321 -0.0450  0.2163
  171MOL    O2941169   0.393   6.441   3.203  0.2590 -0.4339 -0.2525
  171MOL    O3041170   0.554   6.399   3.359  0.0313 -0.1508  0.0422
  171MOL    C3141171   0.604   6.296   3.278  0.3447 -0.5141 -0.3661
  171MOL    H3241172   0.199   6.504   3.360 -1.4792  0.0207  0.4175
  171MOL    H3341173   0.221   6.673   3.347 -1.1310 -0.3396  0.6175
  171MOL    H3441174   0.429   6.535   3.522  2.7656  2.4063  0.2043
  171MOL    H3541175   0.657   6.220   3.336  0.5445  0.4829  0.7745
  171MOL    H3641176   0.663   6.324   3.192  0.9620 -1.4821 -0.2628
  171MOL    H3741177   0.519   6.240   3.238  0.1468 -1.8653  1.8072
  171MOL    C3841178   0.491   6.698   3.406 -0.4636  0.1652 -0.0062
  171MOL    C3941179   0.474   6.785   3.276 -0.4903 -0.3990 -0.4841
  171MOL    C4041180   0.367   6.897   3.293 -0.4400  0.0748  0.3481
  171MOL    O4141181   0.268   6.897   3.217  0.5823 -0.0809 -0.2765
  171MOL    O4241182   0.391   6.971   3.405 -0.0769 -1.2438  0.3683
  171MOL    C4341183   0.307   7.074   3.437 -0.1059 -0.4741  0.3181
  171MOL    H4441184   0.465   6.761   3.491  1.8652 -0.2063  1.0053
  171MOL    H4541185   0.597   6.677   3.419 -0.7486 -1.3391  0.0739
  171MOL    H4641186   0.448   6.721   3.192 -0.3023 -1.7798  0.4973
  171MOL    H4741187   0.292   7.086   3.545 -2.2129 -0.1172 -0.0039
  171MOL    H4841188   0.213   7.072   3.384 -0.3995 -1.9278  0.8731
  171MOL    H4941189   0.345   7.168   3.396 -1.2458  0.0483  0.4615
  171MOL    C5041190   0.615   6.848   3.254 -0.2072  0.5594 -0.2871
  171MOL    C5141191   0.643   6.897   3.112  0.5409  0.5520 -0.5741
  171MOL    C5241192   0.557   7.008   3.056  0.6621 -0.0515  0.6817
  171MOL    O5341193   0.472   6.984   2.967  0.3581  0.2253  0.2878
  171MOL    O5441194   0.572   7.115   3.123 -0.0445 -0.1111 -0.9477
  171MOL    C5541195   0.487   7.227   3.088 -0.3013 -0.0520 -0.4670
  171MOL    H5641196   0.642   6.924   3.327  1.1442 -1.4157  1.3310
  171MOL    H5741197   0.696   6.776   3.267 -0.2704  0.0212 -2.6053
  171MOL    H5841198   0.624   6.813   3.044 -2.3608  0.0131  0.7941
  171MOL    H5941199   0.518   7.310   3.152  0.4414 -0.4775 -0.2687
  171MOL    H6041200   0.383   7.204   3.111 -0.1461  0.5869  0.9665
  171MOL    H6141201   0.497   7.260   2.985  0.5005 -0.4485 -0.5207
  171MOL    C6241202   0.793   6.923   3.095 -0.6561 -0.0953 -0.3638
  171MOL    C6341203   0.836   6.976   2.953  0.2379  0.0121  0.1782
  171MOL    C6441204   0.988   6.997   2.946  0.0152  0.5128 -0.4202
  171MOL    O6541205   1.061   6.942   3.028 -0.3678 -0.0023 -0.2566
  171MOL    O6641206   1.028   7.076   2.849 -0.1435 -0.6797  0.1720
  171MOL    C6741207   1.161   7.109   2.826  0.7354 -0.2595 -0.0916
  171MOL    H6841208   0.830   6.999   3.163 -0.6794 -1.1865  0.8946
  171MOL    H6941209   0.845   6.830   3.120  1.8719  1.7804  1.5684
  171MOL    H7041210   0.794   7.076   2.939 -1.3809 -0.7626 -0.6624
  171MOL    H7141211   1.176   7.215   2.804  1.5969  0.0200  1.7579
  171MOL    H7241212   1.221   7.049   2.757  1.2992 -0.8801  0.9236
  171MOL    H7341213   1.226   7.085   2.910  2.2823 -0.1026 -1.2085
  171MOL    C7441214   0.790   6.894   2.825  0.2838 -0.1190  0.0558
  171MOL    C7541215   0.846   6.752   2.806  0.2001 -0.8436 -0.0106
  171MOL    C7641216   0.764   6.651   2.889  0.4250 -0.1392  0.6077
  171MOL    O7741217   0.806   6.566   2.960 -0.2215 -0.4326 -0.4765
  171MOL    O7841218   0.639   6.659   2.861 -0.4350  0.5353 -0.1633
  171MOL    C7941219   0.549   6.579   2.935 -0.0933 -0.1078  0.0152
  171MOL    H8041220   0.681   6.895   2.822  0.3118  0.2762 -2.7091
  171MOL    H8141221   0.816   6.961   2.743  0.4610  2.8306  2.4423
  171MOL    H8241222   0.952   6.742   2.826  0.6478  0.0927 -1.7560
  171MOL    H8341223   0.555   6.474   2.905  0.0330  0.1078 -0.7389
  171MOL    H8441224   0.447   6.617   2.928 -0.9519 -1.7163  2.9537
  171MOL    H8541225   0.567   6.594   3.041  1.2738  0.9724 -0.3481
  171MOL    C8641226   0.848   6.693   2.664 -0.1755  0.1048 -0.2068
  171MOL    C8741227   0.957   6.756   2.567 -0.6492 -0.6693  0.0962
  171MOL    C8841228   1.075   6.677   2.540  0.4690 -0.1621  0.0312
  171MOL    O8941229   1.184   6.715   2.581 -0.0345 -0.1472 -0.1545
  171MOL    O9041230   1.058   6.566   2.470  0.5440 -0.0738  0.4299
  171MOL    C9141231   1.171   6.477   2.445 -0.3448 -0.0383  0.5852
  171MOL    H9241232   0.874   6.588   2.673 -0.9016  0.0874  2.1286
  171MOL    H9341233   0.749   6.689   2.619  0.6961 -0.4660 -2.0978
  171MOL    H9441234   1.000   6.845   2.613 -1.3008 -0.0491 -0.4906
  171MOL    H9541235   1.212   6.491   2.345 -0.8317  0.9623  0.5209
  171MOL    H9641236   1.132   6.375   2.453 -1.0365  0.1690 -0.0538
  171MOL    H9741237   1.256   6.504   2.507  0.7137  1.5132 -1.4634
  171MOL    C9841238   0.897   6.813   2.437 -0.0079 -0.6142 -1.3207
  171MOL    C9941239   0.813   6.723   2.346 -1.2722  0.2644 -0.3245
  171MOL   C10041240   0.669   6.761   2.320  0.9686 -0.3447 -0.3410
  171MOL   O10141241   0.578   6.700   2.376  0.0268  0.0892 -0.3602
  171MOL   O10241242   0.652   6.876   2.251 -0.3950  0.1564 -0.1364
  171MOL   C10341243   0.537   6.884   2.165 -0.2958  0.5200 -0.3281
  171MOL   H10441244   0.839   6.899   2.470  1.3675 -0.0162 -0.3861
  171MOL   H10541245   0.979   6.858   2.381  0.8190  0.8344  0.9584
  171MOL   H10641246   0.809   6.630   2.403 -0.8518  0.8291  0.6398
  171MOL   H10741247   0.522   6.974   2.105 -0.4386  0.1241 -0.8949
  171MOL   H10841248   0.450   6.891   2.232 -0.5744 -0.4555 -0.5748
  171MOL   H10941249   0.511   6.789   2.117  0.1785  0.0586  0.3173
  171MOL   C11041250   0.885   6.684   2.214 -0.0602 -0.9131 -0.0357
  171MOL   C11141251   0.822   6.582   2.118  0.5507  0.2853 -0.0171
  171MOL   C11241252   0.913   6.567   1.993  0.2915  0.6618  0.0582
  171MOL   O11341253   0.878   6.594   1.881  0.2226  0.8684 -0.5358
  171MOL   O11441254   1.035   6.516   2.024  0.1162  0.8306  0.1446
  171MOL   C11541255   1.133   6.498   1.920  0.2126 -0.4789 -0.4668
  171MOL   H11641256   0.888   6.778   2.159  1.2297 -0.9167  0.0311
  171MOL   H11741257   0.988   6.662   2.239 -0.2813  0.9888  2.6975
  171MOL   H11841258   0.722   6.613   2.086  0.9622  1.5346 -0.0893
  171MOL   H11941259   1.076   6.498   1.827 -2.0590 -0.0949  0.8795
  171MOL   H12041260   1.177   6.400   1.938  1.7367  0.0086 -1.5398
  171MOL   H12141261   1.211   6.574   1.920 -1.5706  1.4071  0.6881
  171MOL   C12241262   0.802   6.441   2.192  0.2967  0.4930 -0.5238
  171MOL   C12341263   0.718   6.327   2.132  0.3161  0.0267 -0.1483
  171MOL   C12441264   0.574   6.380   2.090 -0.8051  0.4645 -0.1300
  171MOL   O12541265   0.552   6.412   1.973  0.1162  0.1364 -0.6145
  171MOL   O12641266   0.504   6.418   2.198  0.1756 -0.0438  0.1036
  171MOL   C12741267   0.391   6.497   2.182  0.4644  0.3825 -0.1428
  171MOL   H12841268   0.896   6.390   2.213 -0.9516 -1.0334  1.5512
  171MOL   H12941269   0.753   6.466   2.286  2.2710 -1.0829  0.9571
  171MOL   H13041270   0.712   6.253   2.211  2.5056 -1.1163 -1.0256
  171MOL   H13141271   0.394   6.554   2.275  0.2361 -1.8103  1.2261
  171MOL   H13241272   0.298   6.441   2.191 -1.3162  3.4728  1.6798
  171MOL   H13341273   0.397   6.551   2.087 -2.4679  0.6784 -0.1867
  171MOL   C13441274   0.788   6.238   2.028 -0.3838  0.4229  0.1174
  171MOL   C13541275   0.717   6.103   2.010 -0.1294 -0.6707 -0.4018
  171MOL   C13641276   0.639   6.105   1.882  0.8724  0.3889 -0.6756
  171MOL   O13741277   0.521   6.066   1.878 -0.1239  0.9128  0.0456
  171MOL   O13841278   0.709   6.136   1.770 -0.1445  0.1600 -0.4056
  171MOL   C13941279   0.655   6.094   1.647  0.4468 -0.3535 -0.2878
  171MOL   H14041280   0.809   6.284   1.931 -0.6432  0.7903  0.2306
  171MOL   H14141281   0.883   6.202   2.066 -0.2008  2.7086  1.9470
  171MOL   H14241282   0.641   6.097   2.088  0.1061 -0.3106 -0.1464
  171MOL   H14341283   0.551   6.127   1.637 -0.1986 -1.5915  2.1429
  171MOL   H14441284   0.664   5.986   1.649  2.3767 -0.1747  2.1727
  171MOL   H14541285   0.714   6.143   1.569 -0.2972  1.2963  0.1440
  171MOL   C14641286   0.806   5.978   2.036  0.1377 -0.7074  0.3056
  171MOL   C14741287   0.916   5.942   1.933 -0.1456 -0.1301 -0.0883
  171MOL   C14841288   1.052   6.008   1.966 -0.2288 -0.0421  0.4187
  171MOL   O14941289   1.084   6.032   2.083 -0.0311  0.2502 -0.1823
  171MOL   O15041290   1.124   6.046   1.859  0.3662 -0.4148  0.2144
  171MOL   C15141291   1.254   6.103   1.867  0.9952  0.1309 -1.0679
  171MOL   H15241292   0.842   5.994   2.138  1.7940 -0.1430 -0.3409
  171MOL   H15341293   0.733   5.898   2.048 -0.1815 -0.3297  0.9218
  171MOL   H15441294   0.886   5.992   1.841 -0.2041 -1.5385 -0.8448
  171MOL   H15541295   1.312   6.039   1.934 -0.7479  0.9438  1.2897
  171MOL   H15641296   1.250   6.203   1.910 -0.0078 -0.4378  0.2038
  171MOL   H15741297   1.310   6.105   1.773  3.5752 -2.5721  0.3315
  171MOL   C15841298   0.923   5.790   1.908 -0.0570  0.3140 -0.3682
  171MOL   C15941299   1.005   5.697   1.999 -0.2650  0.2860  0.0771
  171MOL   C16041300   0.940   5.684   2.139 -0.3953  0.0794 -0.4579
  171MOL   O16141301   0.990   5.737   2.235 -0.5574  0.0082 -0.4572
  171MOL   O16241302   0.830   5.616   2.147 -0.3732  0.1610 -1.1415
  171MOL   C16341303   0.749   5.606   2.272 -0.2644  0.2976 -0.5256
  171MOL   H16441304   0.828   5.742   1.882  0.2959 -0.7329  0.2385
  171MOL   H16541305   0.982   5.800   1.817  0.0151 -0.4643 -0.4100
  171MOL   H16641306   1.108   5.730   2.004  1.0618 -3.4015 -1.3006
  171MOL   H16741307   0.669   5.680   2.267  1.8135  2.5973 -0.8120
  171MOL   H16841308   0.819   5.609   2.355  2.5275 -0.6169 -2.7265
  171MOL   H16941309   0.706   5.506   2.284  0.9124 -0.1782 -0.1415
  171MOL   C17041310   1.020   5.566   1.921  0.3559  0.1822  0.3469
  171MOL   C17141311   1.153   5.484   1.943 -0.3867 -0.4713 -0.3901
  171MOL   C17241312   1.162   5.418   2.089  0.7099 -0.5528 -0.4575
  171MOL   O17341313   1.103   5.310   2.104  0.5873  0.3710  1.1918
  171MOL   O17441314   1.224   5.493   2.172  0.2518 -0.1237  0.0960
  171MOL   C17541315   1.197   5.469   2.313 -0.7230  0.4186  0.0812
  171MOL   H17641316   0.931   5.506   1.942  1.0768 -0.5770  1.3632
  171MOL   H17741317   1.014   5.577   1.813 -1.8128  3.4777  0.7549
  171MOL   H17841318   1.231   5.558   1.923  1.5547 -2.0941  0.8778
  171MOL   H17941319   1.281   5.506   2.373  0.4506 -2.0603  0.0643
  171MOL   H18041320   1.177   5.365   2.338  0.1139 -0.0146 -0.9997
  171MOL   H18141321   1.100   5.516   2.325 -0.1497  0.9721  2.9323
  171MOL   C18241322   1.162   5.374   1.834 -0.3675  0.2787  0.3102
  171MOL   C18341323   1.293   5.303   1.813 -0.8651 -0.2549  0.2489
  171MOL   C18441324   1.280   5.205   1.694 -0.3202 -0.4154 -0.0218
  171MOL   O18541325   1.257   5.246   1.574  0.0336 -0.0599  0.1875
  171MOL   O18641326   1.299   5.079   1.731 -0.2321 -0.6496  0.4867
  171MOL   C18741327   1.266   4.971   1.637 -0.1315 -0.5366  0.0146
  171MOL   H18841328   1.090   5.297   1.863 -0.0367 -0.1375  0.0261
  171MOL   H18941329   1.133   5.420   1.739  3.3300  0.2741 -0.8852
  171MOL   H19041330   1.313   5.251   1.906 -2.3560 -0.3779  0.5137
  171MOL   H19141331   1.172   4.985   1.584  1.6797  1.2184 -2.8257
  171MOL   H19241332   1.267   4.885   1.704 -0.6782 -0.4599  0.1219
  171MOL   H19341333   1.356   4.970   1.575  1.1195 -0.7264  1.8016
  171MOL   C19441334   1.422   5.399   1.782 -0.2810  0.3225  0.2612
  171MOL   C19541335   1.563   5.350   1.823 -0.6860  0.5043  0.4033
  171MOL   C19641336   1.578   5.338   1.972 -0.4894 -0.2891  0.3942
  171MOL   O19741337   1.574   5.224   2.026 -0.3506 -0.0541  0.3173
  171MOL   O19841338   1.570   5.457   2.026  0.0231 -0.3596 -0.4275
  171MOL   C19941339   1.572   5.472   2.169  0.4822  0.3365  0.3911
  171MOL   H20041340   1.422   5.428   1.677 -0.5988 -0.6156 -0.0008
  171MOL   H20141341   1.406   5.494   1.834 -1.3868  1.2790 -1.7500
  171MOL   H20241342   1.641   5.423   1.799 -0.2304  0.0783  0.5747
  171MOL   H20341343   1.674   5.450   2.198  0.7959 -3.3745 -3.1588
  171MOL   H20441344   1.504   5.407   2.224 -0.3953 -0.2103 -1.3070
  171MOL   H20541345   1.553   5.577   2.191  1.2620  0.7363 -0.8478
  171MOL   C20641346   1.608   5.228   1.742 -0.1126 -0.1400 -0.2459
  171MOL   C20741347   1.614   5.246   1.589 -0.6480  0.9018  0.1374
  171MOL   C20841348   1.710   5.365   1.547 -0.0860  0.6875  0.4280
  171MOL   O20941349   1.671   5.473   1.501  0.3985  0.1731  0.6588
  171MOL   O21041350   1.840   5.338   1.570 -0.1665 -0.3565  0.3649
  171MOL   C21141351   1.936   5.424   1.511 -0.0789  0.0311 -0.0023
  171MOL   H21241352   1.710   5.206   1.773 -0.3051  0.3008  0.6940
  171MOL   H21341353   1.555   5.138   1.774 -0.9243  0.9654  1.5588
  171MOL   H21441354   1.514   5.277   1.557 -1.8277  1.1903  3.8734
  171MOL   H21541355   1.935   5.409   1.403  0.6238  1.7805 -0.2811
  171MOL   H21641356   2.032   5.399   1.555  0.7168  2.8980  0.0029
  171MOL   H21741357   1.915   5.528   1.536  1.1798  0.4307 -0.5556
  171MOL   C21841358   1.649   5.119   1.507 -0.2252  0.5735  0.3017
  171MOL   C21941359   1.561   5.101   1.378  0.5727  0.1265  0.2327
  171MOL   C22041360   1.549   5.222   1.282  0.1199 -0.6614 -0.0309
  171MOL   O22141361   1.446   5.281   1.257 -0.2549 -0.2515  0.2649
  171MOL   O22241362   1.671   5.264   1.241 -0.5304  0.2380 -0.2337
  171MOL   C22341363   1.685   5.398   1.193  1.0695  0.2629  0.1905
  171MOL   H22441364   1.753   5.120   1.474  0.0451 -2.3444  0.8954
  171MOL   H22541365   1.640   5.037   1.579  2.3027 -0.9446 -1.0409
  171MOL   H22641366   1.461   5.076   1.414  0.4102  0.6143  0.1330
  171MOL   H22741367   1.734   5.391   1.095 -1.8328 -0.0452 -1.2710
  171MOL   H22841368   1.759   5.445   1.258  1.9154 -4.1550  2.6046
  171MOL   H22941369   1.597   5.462   1.192  0.5518 -0.4381  0.3754
  171MOL   C23041370   1.596   4.976   1.288 -0.4002 -0.0655 -0.5075
  171MOL   C23141371   1.479   4.923   1.209  0.2561  0.0648 -0.2203
  171MOL   C23241372   1.395   4.803   1.266  0.1054 -0.7265  0.7740
  171MOL   O23341373   1.289   4.821   1.331  0.0067  0.0889  0.3107
  171MOL   O23441374   1.456   4.688   1.237  0.1859 -0.3953 -0.4365
  171MOL   C23541375   1.398   4.562   1.260 -0.0157 -0.5461  0.3121
  171MOL   H23641376   1.685   4.976   1.226  0.1906 -0.4204  0.3292
  171MOL   H23741377   1.613   4.898   1.362 -0.1951  0.4166 -0.0470
  171MOL   H23841378   1.522   4.883   1.117  0.9122 -0.0189  0.1151
  171MOL   H23941379   1.301   4.558   1.211  0.3376  0.5630 -0.5038
  171MOL   H24041380   1.373   4.552   1.366  0.7091  1.8125  0.7446
  171MOL   H24141381   1.462   4.475   1.247 -0.1484 -0.5869 -0.0703
  171MOL   H24241382   1.414   5.004   1.176  1.4925  1.0302 -0.3175
  172MOL     C141383   2.335   7.895   3.955  0.5356 -0.1136 -0.5891
  172MOL     C241384   2.201   0.023   3.927  0.0590 -0.0799 -0.0690
  172MOL     C341385   2.114   7.894   3.819  0.0309  0.5291  0.0614
  172MOL     O441386   2.031   7.801   3.839  0.3260  0.8893 -0.6171
  172MOL     O541387   2.135   0.020   3.700  0.4128 -0.1132  0.6676
  172MOL     C641388   2.066   7.903   3.583 -0.3096 -0.4981 -0.2496
  172MOL     H741389   2.385   7.871   3.861  1.2380 -1.8705  0.2014
  172MOL     H841390   2.321   7.804   4.014  0.9732  0.6596  0.7201
  172MOL     H941391   2.224   0.122   3.888  1.5334 -0.2295  0.3908
  172MOL    H1041392   1.967   7.861   3.599 -0.8275 -0.0434 -2.0667
  172MOL    H1141393   2.124   7.830   3.526 -1.2648 -1.1225 -0.4189
  172MOL    H1241394   2.060   0.053   3.512  0.9217  0.3851  0.6557
  172MOL    H1341395   2.405   0.029   4.006  0.0004  1.2944 -1.6924
  172MOL    C1441396   2.114   0.029   4.054 -0.4780 -0.2866 -0.0845
  172MOL    C1541397   2.176   0.108   4.171  0.6644 -0.6393 -0.3720
  172MOL    C1641398   2.228   0.248   4.124  0.4393  0.3856  0.0931
  172MOL    O1741399   2.349   0.267   4.132 -0.6391  0.2273  0.2395
  172MOL    O1841400   2.140   0.326   4.067  0.1550 -0.1100  0.3278
  172MOL    C1941401   2.166   0.460   4.047 -0.3549 -0.0554  0.3792
  172MOL    H2041402   2.016   0.068   4.026  0.0959  0.6736 -0.7415
  172MOL    H2141403   2.101   7.860   4.091  3.8141 -0.6388  0.6621
  172MOL    H2241404   2.264   0.054   4.207  1.2305  0.6435  0.1793
  172MOL    H2341405   2.085   0.512   3.996 -0.1291  1.8799  1.9433
  172MOL    H2441406   2.243   0.459   3.971 -0.7650 -0.0934 -0.0357
  172MOL    H2541407   2.204   0.521   4.129 -1.1984  1.2207 -0.1547
  172MOL    C2641408   2.077   0.123   4.288 -0.1706  0.2005  0.7357
  172MOL    C2741409   2.153   0.147   4.428 -0.3252 -0.5340  0.6235
  172MOL    C2841410   2.194   0.296   4.455 -0.9229 -0.5293  0.1137
  172MOL    O2941411   2.140   0.388   4.388 -0.2331  0.1499 -0.8755
  172MOL    O3041412   2.297   0.307   4.551 -0.5267 -0.2215 -0.2839
  172MOL    C3141413   2.328   0.433   4.601 -0.1983  0.1700  0.0082
  172MOL    H3241414   2.007   0.206   4.275  0.1204  0.6420  1.9527
  172MOL    H3341415   2.011   0.037   4.295 -0.9822  0.8027  0.5858
  172MOL    H3441416   2.252   0.100   4.423 -0.4486 -0.6152 -1.0225
  172MOL    H3541417   2.236   0.462   4.651 -1.2634 -2.1081 -0.5658
  172MOL    H3641418   2.344   0.495   4.512  1.9785 -1.3997 -0.7592
  172MOL    H3741419   2.408   0.429   4.676 -0.1071 -0.5973 -0.1223
  172MOL    C3841420   2.080   0.082   4.549 -0.2796  0.6621 -0.0072
  172MOL    C3941421   2.165   7.904   4.623 -0.4687 -0.4171  1.1457
  172MOL    C4041422   2.139   7.892   4.775  0.5584  0.6515 -0.3517
  172MOL    O4141423   2.093   7.788   4.815 -0.4225  0.2389  0.5714
  172MOL    O4241424   2.173   0.074   4.838 -0.3029  0.5266  0.2360
  172MOL    C4341425   2.138   0.084   4.974 -0.2814  0.5189 -1.5479
  172MOL    H4441426   2.064   0.164   4.619  1.8286 -0.6546  2.0950
  172MOL    H4541427   1.984   0.042   4.518  0.6531 -0.5163 -1.4232
  172MOL    H4641428   2.268   0.005   4.622  0.1293 -2.1610  1.6778
  172MOL    H4741429   2.034   0.116   4.988 -0.6823 -0.6392 -1.8319
  172MOL    H4841430   2.210   0.151   5.021  0.5012  0.0348 -2.0587
  172MOL    H4941431   2.146   7.922   5.026 -1.8876  1.3897  0.3703
  172MOL    C5041432   2.174   7.776   4.537  0.6378  0.0192 -0.1443
  172MOL    C5141433   2.320   7.716   4.525  0.8469  0.5807 -0.3338
  172MOL    C5241434   2.370   7.663   4.661  0.4446  0.6982  0.1919
  172MOL    O5341435   2.447   7.736   4.727  0.0417 -0.1776 -0.6380
  172MOL    O5441436   2.322   7.537   4.686 -0.5998  0.4949  0.0882
  172MOL    C5541437   2.311   7.499   4.820 -0.1612  0.3315 -0.1124
  172MOL    H5641438   2.119   7.693   4.582  0.3300 -0.8461 -2.0708
  172MOL    H5741439   2.117   7.794   4.446  2.5948  0.2549 -1.3479
  172MOL    H5841440   2.383   7.804   4.508 -0.5688  1.2630 -2.2815
  172MOL    H5941441   2.289   7.587   4.880 -2.2362 -1.9409  2.5713
  172MOL    H6041442   2.409   7.452   4.834 -0.8150 -0.9991  0.0362
  172MOL    H6141443   2.242   7.420   4.849  2.3828 -1.9607 -0.0832
  172MOL    C6241444   2.333   7.612   4.400 -0.7711 -0.4178 -0.0805
  172MOL    C6341445   2.473   7.599   4.341  0.1132 -0.2063 -0.6906
  172MOL    C6441446   2.514   7.727   4.272  0.1612  0.5540 -0.0110
  172MOL    O6541447   2.503   7.744   4.149  0.1157  0.2850 -0.7183
  172MOL    O6641448   2.565   7.818   4.359 -0.0204 -0.9551 -0.1331
  172MOL    C6741449   2.616   0.012   4.309 -0.7288 -0.3814  0.1754
  172MOL    H6841450   2.304   7.514   4.439  0.1135 -0.1846  1.1949
  172MOL    H6941451   2.265   7.638   4.319 -0.4406 -0.6575 -0.4359
  172MOL    H7041452   2.466   7.525   4.261  2.1289 -1.0579 -0.1027
  172MOL    H7141453   2.534   0.063   4.258  0.0868  1.4760  0.6818
  172MOL    H7241454   2.705   0.014   4.245  0.0103  0.9134  1.2149
  172MOL    H7341455   2.643   0.083   4.387  3.0392 -2.6364  1.0883
  172MOL    C7441456   2.586   7.534   4.435 -0.2132  0.2229 -0.4299
  172MOL    C7541457   2.728   7.518   4.371 -0.5029  0.0976 -0.3041
  172MOL    C7641458   2.821   7.632   4.408 -0.5633  0.3462  0.4290
  172MOL    O7741459   2.875   7.701   4.324  0.3319 -0.3951  0.0994
  172MOL    O7841460   2.854   7.630   4.532 -0.1972  0.2411 -0.2669
  172MOL    C7941461   2.952   7.722   4.593  0.2164  0.5715  0.2217
  172MOL    H8041462   2.595   7.604   4.518 -1.2701  1.9167 -1.6991
  172MOL    H8141463   2.552   7.437   4.471  0.9668 -0.1668 -0.3539
  172MOL    H8241464   2.709   7.528   4.264  1.1709 -1.4531 -0.7668
  172MOL    H8341465   2.910   7.808   4.643 -0.3396 -0.4547  1.5456
  172MOL    H8441466   3.022   7.748   4.513 -0.4447 -0.7479 -0.8128
  172MOL    H8541467   3.006   7.659   4.664 -0.5985 -0.8107 -0.3678
  172MOL    C8641468   2.784   7.376   4.394  0.0498  0.5258 -0.3631
  172MOL    C8741469   2.725   7.282   4.289 -0.2070  0.2143 -0.1709
  172MOL    C8841470   2.784   7.302   4.151 -0.0751  0.0677 -0.3877
  172MOL    O8941471   2.718   7.351   4.064  0.2064  0.4206  0.0047
  172MOL    O9041472   2.906   7.250   4.148  0.1763 -0.4804  0.0471
  172MOL    C9141473   2.984   7.259   4.026  0.7953  1.2850 -0.2000
  172MOL    H9241474   2.892   7.387   4.381 -0.1875  1.5700 -1.5727
  172MOL    H9341475   2.768   7.346   4.497  0.3788 -1.8115 -0.9640
  172MOL    H9441476   2.625   7.319   4.265  0.0365 -0.6468 -2.7662
  172MOL    H9541477   2.927   7.213   3.946  0.4501 -0.7608  1.1660
  172MOL    H9641478   3.079   7.206   4.035  0.4099  0.3184 -1.6788
  172MOL    H9741479   3.022   7.355   3.995  0.6696  1.3236 -0.2384
  172MOL    C9841480   2.729   7.128   4.333  0.3919 -0.0348  0.4583
  172MOL    C9941481   2.659   7.099   4.474  0.1510 -0.6618  0.4617
  172MOL   C10041482   2.505   7.093   4.468 -0.3924  0.4977  0.0268
  172MOL   O10141483   2.446   6.988   4.490 -0.1920 -0.0859 -0.5419
  172MOL   O10241484   2.451   7.216   4.450  0.0579 -0.2875 -0.5255
  172MOL   C10341485   2.316   7.235   4.464  0.3300 -0.3442 -0.2887
  172MOL   H10441486   2.683   7.065   4.257 -2.3565  1.0917  1.1128
  172MOL   H10541487   2.832   7.096   4.348 -0.2803 -1.7793  1.5174
  172MOL   H10641488   2.678   7.181   4.543 -0.1541 -0.9953  0.9413
  172MOL   H10741489   2.263   7.149   4.507 -1.1121 -1.3482 -3.9198
  172MOL   H10841490   2.264   7.269   4.374 -1.5903 -1.2197  0.4611
  172MOL   H10941491   2.296   7.316   4.535  0.4647 -0.1334 -0.4918
  172MOL   C11041492   2.719   6.973   4.539  0.3199 -0.5360 -0.5586
  172MOL   C11141493   2.684   6.952   4.689 -0.1329  0.3939 -0.5433
  172MOL   C11241494   2.696   6.800   4.728  0.2572  0.6287  0.6277
  172MOL   O11341495   2.599   6.733   4.712 -0.0607 -0.4457 -0.3910
  172MOL   O11441496   2.820   6.762   4.742 -0.2650  0.4941  0.1835
  172MOL   C11541497   2.852   6.627   4.777 -0.0464 -0.3660 -0.5077
  172MOL   H11641498   2.693   6.885   4.481 -0.7160 -1.4545  1.2403
  172MOL   H11741499   2.828   6.975   4.540  0.3165 -0.6006 -0.0457
  172MOL   H11841500   2.578   6.973   4.705 -0.2554 -0.4413 -0.2538
  172MOL   H11941501   2.912   6.612   4.867 -3.3724 -0.1249  1.8658
  172MOL   H12041502   2.910   6.588   4.693 -0.9414  0.0629 -1.3322
  172MOL   H12141503   2.760   6.568   4.773  1.9686 -3.7533  0.6611
  172MOL   C12241504   2.771   7.040   4.786  0.3552 -0.2201  0.1630
  172MOL   C12341505   2.706   7.122   4.892  0.1487 -0.1482  0.0716
  172MOL   C12441506   2.648   7.254   4.838 -0.8247 -0.1510  0.8364
  172MOL   O12541507   2.545   7.267   4.769  0.3924  0.3941 -0.4608
  172MOL   O12641508   2.728   7.357   4.870  0.8550  0.2860 -0.5642
  172MOL   C12741509   2.697   7.489   4.827 -0.7291 -0.4246  0.1124
  172MOL   H12841510   2.848   6.976   4.830  1.5848  0.6177 -0.7392
  172MOL   H12941511   2.827   7.112   4.726  1.8119 -0.7352  0.8781
  172MOL   H13041512   2.795   7.153   4.946 -0.8438 -0.4376  1.9158
  172MOL   H13141513   2.691   7.488   4.718 -0.5850  0.3413  0.0997
  172MOL   H13241514   2.772   7.559   4.863 -0.4718  0.0827 -1.3891
  172MOL   H13341515   2.603   7.531   4.860 -2.2665 -2.1514 -1.9498
  172MOL   C13441516   2.605   7.059   4.992  0.5108 -0.6490  1.0089
  172MOL   C13541517   2.664   6.932   5.071  0.1886  0.6108  0.5047
  172MOL   C13641518   2.807   6.942   5.130  0.1631  0.1510  0.2728
  172MOL   O13741519   2.889   6.855   5.104  0.4713  0.0788 -0.1751
  172MOL   O13841520   2.834   7.058   5.184 -1.0827 -0.2747 -0.0223
  172MOL   C13941521   2.960   7.077   5.246 -0.3128  0.8480  0.0536
  172MOL   H14041522   2.569   7.128   5.069  1.1710 -1.0040  1.6472
  172MOL   H14141523   2.514   7.069   4.933 -0.6789 -0.6874  2.7926
  172MOL   H14241524   2.670   6.838   5.016 -0.6172 -0.8202  2.7994
  172MOL   H14341525   2.983   7.011   5.330 -2.2103  1.1602  0.8700
  172MOL   H14441526   2.961   7.183   5.273 -0.2091  1.3120 -1.7398
  172MOL   H14541527   3.036   7.073   5.169  0.9086 -0.8358  1.3206
  172MOL   C14641528   2.571   6.910   5.196  0.2287  0.2539  0.4802
  172MOL   C14741529   2.428   6.862   5.174 -0.0216 -0.3282 -0.1959
  172MOL   C14841530   2.405   6.762   5.065 -0.0967  0.0999  0.1902
  172MOL   O14941531   2.455   6.649   5.065  0.1383 -0.3075  0.2223
  172MOL   O15041532   2.320   6.801   4.971  0.0586 -0.9490  0.3772
  172MOL   C15141533   2.288   6.715   4.859  0.1208  0.4379  0.0879
  172MOL   H15241534   2.621   6.847   5.270 -0.8980  1.2860  2.1624
  172MOL   H15341535   2.557   7.007   5.243 -2.5897  0.1665 -0.0871
  172MOL   H15441536   2.374   6.954   5.151 -0.9765 -1.1401 -1.2893
  172MOL   H15541537   2.361   6.634   4.852 -0.9490 -0.4368 -1.1520
  172MOL   H15641538   2.296   6.776   4.769  1.6780  0.2140  0.0468
  172MOL   H15741539   2.195   6.661   4.873  0.3749  0.1183  0.5822
  172MOL   C15841540   2.355   6.823   5.304  0.0586  0.7151  0.2980
  172MOL   C15941541   2.206   6.781   5.303  0.0899 -0.5968  0.3100
  172MOL   C16041542   2.168   6.693   5.418 -0.4655 -0.1971  0.0474
  172MOL   O16141543   2.133   6.579   5.398 -0.2266 -0.3970 -0.1487
  172MOL   O16241544   2.193   6.747   5.538 -0.1343  0.7250 -0.3447
  172MOL   C16341545   2.149   6.683   5.654  0.2864 -0.6464  0.0863
  172MOL   H16441546   2.419   6.747   5.349  1.2696  0.8346 -1.1553
  172MOL   H16541547   2.377   6.900   5.378  0.6169  1.2414 -0.4025
  172MOL   H16641548   2.182   6.722   5.214 -0.1009  0.9593 -0.7025
  172MOL   H16741549   2.044   6.665   5.675  0.9031 -2.2017  2.0119
  172MOL   H16841550   2.196   6.744   5.732 -0.3861 -1.1199  0.8715
  172MOL   H16941551   2.195   6.584   5.657  2.3291  0.2497 -0.7805
  172MOL   C17041552   2.122   6.908   5.288 -0.0841 -0.2806 -0.5528
  172MOL   C17141553   2.054   6.932   5.152 -0.5859  0.3169 -1.0058
  172MOL   C17241554   1.960   6.826   5.107  0.2866  0.0967  0.2676
  172MOL   O17341555   1.997   6.727   5.045 -0.0968  0.8210  0.1558
  172MOL   O17441556   1.836   6.850   5.145  0.2028 -0.2690  0.0052
  172MOL   C17541557   1.728   6.760   5.113 -0.1788  0.0708 -0.3396
  172MOL   H17641558   2.049   6.914   5.369 -0.3843  0.2769 -0.8617
  172MOL   H17741559   2.185   6.992   5.315  1.3675 -1.8056  0.9252
  172MOL   H17841560   2.138   6.926   5.083 -1.8108 -0.2777 -2.4770
  172MOL   H17941561   1.691   6.797   5.017 -0.6802 -1.5836 -0.8130
  172MOL   H18041562   1.647   6.780   5.183 -0.6558  1.2177 -1.2053
  172MOL   H18141563   1.751   6.653   5.112  1.6425  0.4257  1.4789
  172MOL   C18241564   1.987   7.071   5.143  0.2247  0.2383  0.4288
  172MOL   C18341565   2.082   7.193   5.128  0.3085 -0.0251 -1.0410
  172MOL   C18441566   2.166   7.184   5.003 -0.2322  0.4893  0.6537
  172MOL   O18541567   2.287   7.176   5.026 -0.5546 -0.2944 -0.3459
  172MOL   O18641568   2.106   7.181   4.882  0.0434  0.0213 -0.1018
  172MOL   C18741569   2.178   7.165   4.756  0.0887  0.2325  0.2793
  172MOL   H18841570   1.914   7.066   5.062 -1.0686  0.4115  1.5655
  172MOL   H18941571   1.928   7.086   5.233  0.3354 -2.3857  0.9898
  172MOL   H19041572   2.151   7.176   5.211  0.0928  1.9172 -0.4278
  172MOL   H19141573   2.271   7.222   4.760 -0.5311  1.2885 -0.1726
  172MOL   H19241574   2.107   7.204   4.683 -2.3245 -0.7448  2.0574
  172MOL   H19341575   2.199   7.061   4.734  1.4507 -0.0160  2.6537
  172MOL   C19441576   2.003   7.323   5.142  0.4007  1.6440 -0.0726
  172MOL   C19541577   2.086   7.452   5.149 -0.3969  0.3311  0.6605
  172MOL   C19641578   2.002   7.579   5.158  0.1448  0.0078 -0.8014
  172MOL   O19741579   1.976   7.637   5.267  0.5290 -0.3026  0.0569
  172MOL   O19841580   1.946   7.619   5.038  0.4346 -0.0045 -0.4900
  172MOL   C19941581   1.877   7.743   5.037 -0.4150 -0.2996  0.0292
  172MOL   H20041582   1.925   7.329   5.066 -0.6899 -0.6686  0.8051
  172MOL   H20141583   1.952   7.317   5.239  0.6173 -0.1012 -0.0581
  172MOL   H20241584   2.141   7.456   5.055 -2.7472 -1.4733 -0.8354
  172MOL   H20341585   1.808   7.774   4.958  0.1658  2.2371  0.4722
  172MOL   H20441586   1.946   7.826   5.054  0.2684 -0.6059 -1.1685
  172MOL   H20541587   1.815   7.750   5.126 -1.3203 -0.7766 -0.5580
  172MOL   C20641588   2.190   7.441   5.263 -0.1371  0.0785 -0.1474
  172MOL   C20741589   2.285   7.559   5.287  0.1443 -0.6112 -0.3522
  172MOL   C20841590   2.339   7.553   5.438 -0.2972 -0.9838  0.3248
  172MOL   O20941591   2.298   7.630   5.531  0.3511 -0.0986 -0.1792
  172MOL   O21041592   2.415   7.456   5.451 -0.2668  0.2870 -0.0237
  172MOL   C21141593   2.491   7.441   5.575  0.0353 -0.0646 -0.2594
  172MOL   H21241594   2.152   7.405   5.359 -1.1954  0.8886 -0.2564
  172MOL   H21341595   2.254   7.354   5.249 -2.0496 -2.1121  3.8268
  172MOL   H21441596   2.231   7.653   5.289  1.3083  0.0675  0.2023
  172MOL   H21541597   2.569   7.516   5.589  1.2327 -1.2826 -0.3398
  172MOL   H21641598   2.540   7.346   5.597  0.2426 -0.1979 -1.2668
  172MOL   H21741599   2.425   7.447   5.661  0.5738 -0.7959  0.2094
  172MOL   C21841600   2.407   7.564   5.182  0.5526 -0.5663 -0.1616
  172MOL   C21941601   2.491   7.691   5.191 -0.2956 -0.7456  0.3349
  172MOL   C22041602   2.635   7.665   5.230 -0.2161  0.5723  0.5411
  172MOL   O22141603   2.675   7.677   5.346  0.1842 -0.0598  0.0452
  172MOL   O22241604   2.712   7.624   5.127 -0.1082  0.0500  0.3419
  172MOL   C22341605   2.851   7.613   5.148 -0.1526 -1.1386  1.0911
  172MOL   H22441606   2.455   7.467   5.177 -0.3889 -1.0520  0.0866
  172MOL   H22541607   2.367   7.566   5.080 -0.0844  1.2134  0.1074
  172MOL   H22641608   2.453   7.737   5.282 -2.6585 -2.2555  0.1619
  172MOL   H22741609   2.914   7.570   5.071  1.1010  0.2710  1.3098
  172MOL   H22841610   2.888   7.567   5.240  2.4433  1.7497  1.5644
  172MOL   H22941611   2.878   7.718   5.147  0.0147 -1.1836  0.5804
  172MOL   C23041612   2.468   7.792   5.076  0.1948 -0.4386  0.7615
  172MOL   C23141613   2.541   7.931   5.075  0.2660 -0.2450 -0.0133
  172MOL   C23241614   2.600   0.041   4.941  0.0791  0.2110  0.4328
  172MOL   O23341615   2.725   0.029   4.924 -0.0358  0.9095 -0.2789
  172MOL   O23441616   2.507   0.084   4.858 -0.1230 -0.0823 -0.0511
  172MOL   C23541617   2.540   0.108   4.720 -0.7882 -0.1636 -0.3625
  172MOL   H23641618   2.495   7.738   4.986  3.9121  0.9950  0.9274
  172MOL   H23741619   2.361   7.810   5.067  0.0825 -1.5290 -0.1258
  172MOL   H23841620   2.603   0.015   5.163  1.6339  0.2105 -1.0489
  172MOL   H23941621   2.454   0.087   4.656 -1.0790 -0.3274  0.0832
  172MOL   H24041622   2.628   0.048   4.694 -0.2134  0.8709 -0.8126
  172MOL   H24141623   2.567   0.210   4.692  1.9798 -0.4689  1.0417
  172MOL   H24241624   2.475   0.084   5.082  0.0873 -0.3188 -0.7512
  173MOL     C141625   4.278   1.795   7.808 -0.2807 -0.3956 -0.3532
  173MOL     C241626   4.265   1.945   7.753  0.2502  0.0043 -0.0093
  173MOL     C341627   4.349   1.952   7.627 -0.6044  0.2298  0.5556
  173MOL     O441628   4.459   2.010   7.632 -0.2864 -0.2353  0.3260
  173MOL     O541629   4.301   1.887   7.521 -0.0964  0.0388 -0.1415
  173MOL     C641630   4.361   1.886   7.394  0.5653  0.0388 -0.8292
  173MOL     H741631   4.236   1.726   7.734  1.9810 -0.7007 -1.3706
  173MOL     H841632   4.225   1.799   7.904  2.0054  0.6337  0.9071
  173MOL     H941633   4.305   2.017   7.824 -1.2820  0.5326  0.3466
  173MOL    H1041634   4.338   1.988   7.365  2.1218  1.2300  1.9643
  173MOL    H1141635   4.313   1.815   7.327 -0.7878 -1.1312  1.2905
  173MOL    H1241636   4.469   1.875   7.405  0.5183 -0.9782 -1.2753
  173MOL    H1341637   4.380   1.765   7.832 -0.6399 -0.3644  1.3315
  173MOL    C1441638   4.124   1.989   7.733  0.7281 -0.6355 -0.3063
  173MOL    C1541639   4.099   2.135   7.680 -0.3703 -0.0788 -0.8397
  173MOL    C1641640   4.024   2.133   7.551  0.5505 -0.4656  0.1296
  173MOL    O1741641   3.910   2.077   7.546  0.2939 -0.2922 -0.2848
  173MOL    O1841642   4.093   2.184   7.447  0.4372 -0.3421  0.0050
  173MOL    C1941643   4.042   2.180   7.314  1.1399 -0.4864  0.0243
  173MOL    H2041644   4.075   1.917   7.668 -2.4492  1.2267 -0.1065
  173MOL    H2141645   4.080   1.971   7.831  0.5504 -1.2628 -0.4990
  173MOL    H2241646   4.196   2.177   7.656 -0.9459  1.1033 -1.1270
  173MOL    H2341647   4.002   2.275   7.276 -0.6837 -1.4105 -0.4160
  173MOL    H2441648   3.959   2.111   7.308  1.3770 -0.7070 -0.6503
  173MOL    H2541649   4.117   2.142   7.245  1.5978  0.5949 -0.0946
  173MOL    C2641650   4.040   2.240   7.778  0.3525 -0.4533 -0.4537
  173MOL    C2741651   4.081   2.380   7.741 -0.2496  0.4671  0.0031
  173MOL    C2841652   3.970   2.481   7.783 -0.4605  0.3106 -1.1678
  173MOL    O2941653   3.922   2.550   7.702 -0.2106 -1.2435 -0.9107
  173MOL    O3041654   3.945   2.487   7.915 -0.0748 -0.2575 -0.2141
  173MOL    C3141655   3.828   2.543   0.033 -0.1872  0.0046  0.2105
  173MOL    H3241656   3.932   2.229   7.779  0.3369 -0.4042  1.6789
  173MOL    H3341657   4.058   2.220   7.884 -1.5165  0.1437 -0.0171
  173MOL    H3441658   4.082   2.380   7.632 -0.1050  0.8524  0.0037
  173MOL    H3541659   3.813   2.645   7.929  0.7286  0.6578  1.5924
  173MOL    H3641660   3.847   2.556   0.139 -0.1534  1.1463  0.0759
  173MOL    H3741661   3.737   2.485   0.021 -0.5757  0.8100 -0.9038
  173MOL    C3841662   4.225   2.419   7.799  0.0248  0.4062  0.7941
  173MOL    C3941663   4.310   2.501   7.693 -0.2191  0.3370 -0.3261
  173MOL    C4041664   4.422   2.588   7.757  0.4737 -0.5468  0.0049
  173MOL    O4141665   4.433   2.704   7.725 -0.4626 -0.5447 -0.1004
  173MOL    O4241666   4.500   2.514   7.840  0.6359 -0.3829  0.0498
  173MOL    C4341667   4.609   2.573   7.899 -0.0807 -0.5226 -0.0690
  173MOL    H4441668   4.214   2.482   7.887 -0.0538  1.3999  0.0846
  173MOL    H4541669   4.283   2.331   7.827  1.2653  1.5486  1.8862
  173MOL    H4641670   4.245   2.573   7.644  0.4342  0.2805 -1.2936
  173MOL    H4741671   4.660   2.495   0.024 -1.5844 -0.6197  1.1750
  173MOL    H4841672   4.573   2.653   0.030  0.9927 -0.2071  0.1489
  173MOL    H4941673   4.670   2.630   7.830 -0.9845  1.6305  0.8745
  173MOL    C5041674   4.366   2.415   7.572 -0.3303  0.2819  0.5648
  173MOL    C5141675   4.434   2.491   7.461 -0.1466 -0.7385  0.7027
  173MOL    C5241676   4.567   2.431   7.434 -0.2762 -0.6401  0.1453
  173MOL    O5341677   4.590   2.346   7.351  0.2019 -0.2195  0.2919
  173MOL    O5441678   4.662   2.474   7.517 -0.2341 -0.0582  0.3955
  173MOL    C5541679   4.801   2.443   7.500  0.0048  0.3509  0.3886
  173MOL    H5641680   4.428   2.340   7.621  1.8611  1.6134 -0.0890
  173MOL    H5741681   4.286   2.353   7.532  0.9047 -0.7031 -0.3727
  173MOL    H5841682   4.472   2.588   7.493 -2.6009  0.7465 -0.6784
  173MOL    H5941683   4.819   2.495   7.406 -1.4537  1.5690  0.7717
  173MOL    H6041684   4.826   2.337   7.486  2.6716  0.9363  0.5015
  173MOL    H6141685   4.874   2.474   7.575  0.6745 -1.5253  0.5543
  173MOL    C6241686   4.350   2.506   7.328 -0.5719  0.1013  0.2605
  173MOL    C6341687   4.212   2.576   7.333 -0.0106  0.1274  0.5717
  173MOL    C6441688   4.236   2.722   7.389 -0.0740 -0.3340 -0.0960
  173MOL    O6541689   4.344   2.783   7.372 -0.1511  0.4157 -0.1032
  173MOL    O6641690   4.140   2.769   7.463 -0.1610 -0.3034  0.6477
  173MOL    C6741691   4.153   2.894   7.529 -0.8360 -0.1197  0.3046
  173MOL    H6841692   4.399   2.566   7.251 -0.8853 -1.3338 -1.0600
  173MOL    H6941693   4.345   2.408   7.282  0.4330 -0.3294  1.0460
  173MOL    H7041694   4.156   2.518   7.406  1.2022  1.1464  2.3414
  173MOL    H7141695   4.064   2.899   7.592 -0.6977 -0.4518  0.5320
  173MOL    H7241696   4.158   2.979   7.461 -0.6691 -2.2860 -2.5086
  173MOL    H7341697   4.237   2.895   7.598  0.3824  1.4623 -1.1643
  173MOL    C7441698   4.149   2.583   7.195 -0.0672 -0.0109  0.5798
  173MOL    C7541699   4.004   2.623   7.180 -0.5709 -0.2957 -0.3276
  173MOL    C7641700   3.954   2.649   7.038  0.1711 -0.4235  0.2149
  173MOL    O7741701   3.978   2.569   6.951  0.0709  0.4601  0.1090
  173MOL    O7841702   3.879   2.755   7.031 -0.5894  0.1103 -0.0486
  173MOL    C7941703   3.834   2.803   6.905  0.2935  0.6284  0.1107
  173MOL    H8041704   4.219   2.640   7.133 -0.6003  1.2193  1.0763
  173MOL    H8141705   4.150   2.478   7.169 -0.8776  0.0728  0.1986
  173MOL    H8241706   4.002   2.723   7.224 -0.5431  0.8933 -2.9694
  173MOL    H8341707   3.725   2.804   6.904  0.2408 -1.3040 -2.0694
  173MOL    H8441708   3.878   2.749   6.821  0.4464 -0.3645  0.8191
  173MOL    H8541709   3.869   2.905   6.915  0.9824  0.5020 -0.8885
  173MOL    C8641710   3.908   2.524   7.262 -0.6624 -0.0627  0.0848
  173MOL    C8741711   3.769   2.580   7.288 -0.1559  0.2298 -0.1731
  173MOL    C8841712   3.681   2.478   7.361  0.2933 -0.6106 -0.4985
  173MOL    O8941713   3.556   2.470   7.332  0.2119 -0.0208 -0.1808
  173MOL    O9041714   3.750   2.394   7.452  0.4582 -0.1530  0.3725
  173MOL    C9141715   3.687   2.326   7.550  0.5532 -0.1991  0.1000
  173MOL    H9241716   3.896   2.435   7.201  0.4444  0.3900 -0.8241
  173MOL    H9341717   3.952   2.492   7.357  1.8869 -0.4351 -1.1573
  173MOL    H9441718   3.725   2.595   7.189 -1.7787 -1.4810  0.2647
  173MOL    H9541719   3.739   2.232   7.566 -1.3787 -1.3781 -0.4291
  173MOL    H9641720   3.595   2.286   7.508  0.7247 -1.4461  0.8770
  173MOL    H9741721   3.669   2.381   7.642 -0.6673  0.4506 -0.5189
  173MOL    C9841722   3.770   2.713   7.365  0.2735  0.2026 -0.2510
  173MOL    C9941723   3.674   2.821   7.322 -0.3417 -0.5802  0.3597
  173MOL   C10041724   3.531   2.779   7.284  0.4776 -0.4697  0.0932
  173MOL   O10141725   3.502   2.761   7.167 -0.0567  0.3199 -0.4473
  173MOL   O10241726   3.460   2.742   7.390  0.0286 -0.0625 -0.1619
  173MOL   C10341727   3.333   2.680   7.367  0.2620 -0.0084 -0.1877
  173MOL   H10441728   3.754   2.697   7.472  0.5281  0.2671 -0.2034
  173MOL   H10541729   3.866   2.764   7.358 -1.4008  3.4122 -0.8841
  173MOL   H10641730   3.719   2.863   7.233 -3.2886 -0.6718 -1.2485
  173MOL   H10741731   3.274   2.686   7.459  2.4804 -0.4063  1.3037
  173MOL   H10841732   3.343   2.573   7.348  3.3069  0.2007  0.0097
  173MOL   H10941733   3.280   2.732   7.288  0.7449 -0.2210 -0.6512
  173MOL   C11041734   3.668   2.945   7.417 -0.2425  0.0054  0.3808
  173MOL   C11141735   3.618   2.939   7.565  0.8091 -0.0377  0.0939
  173MOL   C11241736   3.731   2.963   7.669 -0.3894  0.2725  0.2954
  173MOL   O11341737   3.771   2.881   7.750 -0.3376  0.0104  0.1654
  173MOL   O11441738   3.780   3.090   7.655  0.3997  0.0370 -0.3403
  173MOL   C11541739   3.883   3.129   7.751  0.1940 -0.3762 -0.1768
  173MOL   H11641740   3.771   2.982   7.420 -0.1384 -0.4600  2.9562
  173MOL   H11741741   3.617   3.023   7.359 -1.0135 -0.6234  0.2152
  173MOL   H11841742   3.572   2.842   7.584 -0.6085 -0.0140 -2.9618
  173MOL   H11941743   3.847   3.117   7.853 -2.0560 -2.8420 -1.2032
  173MOL   H12041744   3.902   3.236   7.742 -0.7378 -0.2322 -0.5974
  173MOL   H12141745   3.972   3.068   7.746  0.2943 -0.1173 -2.0336
  173MOL   C12241746   3.497   3.037   7.595 -0.0714 -0.1644  0.1175
  173MOL   C12341747   3.437   3.027   7.741  0.3863 -0.0053  0.1165
  173MOL   C12441748   3.373   3.161   7.774 -0.4455 -0.5137 -0.6394
  173MOL   O12541749   3.431   3.231   7.856 -0.1257  0.3247 -0.5574
  173MOL   O12641750   3.273   3.192   7.686 -0.7929 -0.6113  0.0520
  173MOL   C12741751   3.230   3.333   7.692  0.7238  0.0760  0.2543
  173MOL   H12841752   3.536   3.138   7.587 -0.4867 -0.0302 -0.2293
  173MOL   H12941753   3.422   3.031   7.516 -0.8978 -1.9060  1.0028
  173MOL   H13041754   3.519   3.024   7.813  0.4194 -2.9554  0.0338
  173MOL   H13141755   3.317   3.397   7.710  0.1237  0.7822  0.6566
  173MOL   H13241756   3.166   3.324   7.780  2.4361 -0.5676  1.4749
  173MOL   H13341757   3.172   3.356   7.602 -1.5997 -1.6141  1.2616
  173MOL   C13441758   3.355   2.894   7.748  0.7618  0.4642  0.2528
  173MOL   C13541759   3.290   2.869   7.882  0.1397  0.1882 -0.5991
  173MOL   C13641760   3.175   2.765   7.894  0.7455  0.3390 -0.1566
  173MOL   O13741761   3.063   2.795   0.003  0.2467 -0.3787 -0.6183
  173MOL   O13841762   3.224   2.640   7.866  0.1248  0.2627 -0.0085
  173MOL   C13941763   3.147   2.520   7.878  0.0707 -0.1479  0.1005
  173MOL   H14041764   3.278   2.897   7.671 -0.5643  1.5886  1.6042
  173MOL   H14141765   3.414   2.807   7.722 -0.0130  0.2621 -0.8838
  173MOL   H14241766   3.241   2.963   7.906 -0.2304 -1.1342  4.2802
  173MOL   H14341767   3.171   2.439   7.810 -1.8629 -1.7818  1.2965
  173MOL   H14441768   3.040   2.530   7.865 -0.0405 -0.7183  0.5466
  173MOL   H14541769   3.171   2.485   0.046  1.4902 -0.2137 -0.2389
  173MOL   C14641770   3.401   2.828   0.049 -0.4555 -0.2968 -0.5843
  173MOL   C14741771   3.360   2.795   0.193  0.2254  0.2004 -0.1018
  173MOL   C14841772   3.481   2.736   0.276 -0.1240 -0.6282  0.1753
  173MOL   O14941773   3.595   2.759   0.232  0.1409 -0.0460 -0.1310
  173MOL   O15041774   3.455   2.671   0.389 -0.0350  0.4400  0.2676
  173MOL   C15141775   3.552   2.605   0.468  0.5541  0.1129  0.0436
  173MOL   H15241776   3.458   2.746   0.003  0.8346  0.7949 -0.9708
  173MOL   H15341777   3.471   2.911   0.056 -2.3969  1.3547 -0.3645
  173MOL   H15441778   3.287   2.714   0.189 -2.2255  2.1345  3.4031
  173MOL   H15541779   3.649   2.652   0.482  0.2499  0.3739  1.3354
  173MOL   H15641780   3.565   2.506   0.423 -1.4253 -0.0322 -0.2650
  173MOL   H15741781   3.502   2.592   0.564 -0.2459  0.9632 -0.2533
  173MOL   C15841782   3.293   2.911   0.265  0.0553 -0.7382  0.6757
  173MOL   C15941783   3.203   2.874   0.392 -0.3904 -0.2276  0.3447
  173MOL   C16041784   3.284   2.921   0.520  0.8284 -0.2256  0.2022
  173MOL   O16141785   3.355   3.019   0.518  0.0749  0.0556  0.1847
  173MOL   O16241786   3.241   2.863   0.634  0.0518 -0.6487 -0.0028
  173MOL   C16341787   3.307   2.888   0.752 -0.5555 -0.5743  0.1356
  173MOL   H16441788   3.371   2.986   0.275 -0.2960 -0.6232  2.7364
  173MOL   H16541789   3.216   2.957   0.203  1.5048 -1.1969 -1.5149
  173MOL   H16641790   3.181   2.768   0.405 -0.2623 -0.6319 -2.6016
  173MOL   H16741791   3.399   2.833   0.772 -0.7385 -1.2447 -0.8037
  173MOL   H16841792   3.235   2.864   0.830 -0.6525  0.1066  0.2598
  173MOL   H16941793   3.320   2.995   0.767  0.1390 -0.6851  0.3287
  173MOL   C17041794   3.060   2.939   0.395  0.8426 -0.6254  0.1665
  173MOL   C17141795   2.953   2.851   0.344 -0.4166 -0.0490 -0.4978
  173MOL   C17241796   2.909   2.738   0.446  0.5368 -0.7066 -0.0572
  173MOL   O17341797   2.969   2.631   0.445  0.2546 -0.2869 -0.0803
  173MOL   O17441798   2.825   2.781   0.545 -0.1350 -0.2665 -0.4110
  173MOL   C17541799   2.770   2.685   0.630 -0.6891 -0.3612 -0.2954
  173MOL   H17641800   3.040   2.976   0.496 -0.3995  0.5458 -0.4988
  173MOL   H17741801   3.067   3.025   0.328  1.3942 -2.4716 -2.2115
  173MOL   H17841802   2.988   2.794   0.259  0.4798 -1.4055  0.7728
  173MOL   H17941803   2.716   2.616   0.564  1.2120 -2.5431  0.3483
  173MOL   H18041804   2.692   2.723   0.696 -2.9213 -2.3613 -1.6542
  173MOL   H18141805   2.841   2.624   0.686 -0.2193  0.4215 -0.0405
  173MOL   C18241806   2.836   2.937   0.292 -0.5941  0.6189  0.4399
  173MOL   C18341807   2.729   2.862   0.202 -0.0071 -0.4367 -0.3466
  173MOL   C18441808   2.609   2.799   0.274 -0.0893 -0.5247  0.0619
  173MOL   O18541809   2.584   2.680   0.280  0.6551  0.0628 -0.1498
  173MOL   O18641810   2.534   2.894   0.334  0.6003  0.1307 -0.2156
  173MOL   C18741811   2.419   2.858   0.421  0.7338  1.0497 -0.0536
  173MOL   H18841812   2.794   2.987   0.380  1.8630  2.2031  0.7678
  173MOL   H18941813   2.877   3.020   0.234  0.3988  1.5138  2.3695
  173MOL   H19041814   2.762   2.768   0.159 -1.8189 -0.6632 -1.3099
  173MOL   H19141815   2.339   2.840   0.350  1.7964 -0.7969 -0.8009
  173MOL   H19241816   2.409   2.947   0.484  0.8154  0.7513  0.3870
  173MOL   H19341817   2.433   2.766   0.478  1.1821  0.8628 -0.4621
  173MOL   C19441818   2.686   2.946   0.080 -0.5110  1.3196 -0.1534
  173MOL   C19541819   2.749   2.910   7.874  0.2366 -0.2298  0.9427
  173MOL   C19641820   2.704   2.778   7.820 -0.4219 -0.0018  0.1704
  173MOL   O19741821   2.785   2.684   7.792 -0.3019 -0.6741 -0.3143
  173MOL   O19841822   2.575   2.773   7.789 -0.1445 -0.1397 -0.3854
  173MOL   C19941823   2.533   2.651   7.725 -0.5816  0.8964  0.3648
  173MOL   H20041824   2.579   2.933   0.066  0.2858 -0.9247 -5.3054
  173MOL   H20141825   2.695   3.053   0.095  0.3090  1.2660 -0.2482
  173MOL   H20241826   2.854   2.902   7.903  0.6122 -0.0139 -0.3109
  173MOL   H20341827   2.541   2.644   7.617 -0.6079  2.9484  0.2039
  173MOL   H20441828   2.426   2.636   7.740 -0.2652 -1.0646  0.8478
  173MOL   H20541829   2.582   2.564   7.770 -1.0203  0.1393 -0.6161
  173MOL   C20641830   2.742   3.025   7.772  0.1787  0.0678  0.3459
  173MOL   C20741831   2.880   3.082   7.734  0.5240  0.2275  0.3143
  173MOL   C20841832   2.946   3.152   7.858  0.1725  1.0371  0.2491
  173MOL   O20941833   3.052   3.115   7.904 -0.6322  0.0818 -0.0404
  173MOL   O21041834   2.870   3.242   7.907 -0.7289 -0.3268 -0.1932
  173MOL   C21141835   2.905   3.302   0.096  0.0707 -0.2626  0.2885
  173MOL   H21241836   2.684   2.992   7.685 -0.0683  1.0485  0.1287
  173MOL   H21341837   2.676   3.103   7.809  0.0645  0.3580 -0.4575
  173MOL   H21441838   2.871   3.167   7.667  1.8564  1.6965  1.9489
  173MOL   H21541839   2.815   3.295   0.157 -0.4716  2.9692  0.0012
  173MOL   H21641840   2.910   3.411   0.084 -1.6333 -0.3203 -1.3539
  173MOL   H21741841   2.994   3.260   0.141  0.4037 -0.2795 -0.3769
  173MOL   C21841842   2.966   2.976   7.665  0.3126 -0.1807 -0.0126
  173MOL   C21941843   2.923   2.936   7.526 -0.6171  0.8256 -0.2335
  173MOL   C22041844   2.941   3.046   7.412 -0.1991  0.5262  0.2183
  173MOL   O22141845   3.032   3.126   7.410 -0.1965  0.0147 -0.2056
  173MOL   O22241846   2.837   3.032   7.322  0.2928  0.4687  0.5826
  173MOL   C22341847   2.841   3.115   7.200  0.1618 -0.4056 -0.1336
  173MOL   H22441848   3.067   3.016   7.667 -0.0100  0.7780 -1.6473
  173MOL   H22541849   2.983   2.884   7.721  0.3297 -0.3492 -0.2934
  173MOL   H22641850   2.819   2.905   7.527  0.0748 -1.6056 -0.2640
  173MOL   H22741851   2.944   3.134   7.171  0.1215 -2.5725 -1.9081
  173MOL   H22841852   2.802   3.215   7.220  0.7371  0.1580 -1.7057
  173MOL   H22941853   2.791   3.065   7.117 -1.7819  1.5355 -0.1939
  173MOL   C23041854   2.999   2.803   7.483  0.0346  0.0986 -0.3632
  173MOL   C23141855   2.966   2.728   7.348  0.0021  0.0174  0.5346
  173MOL   C23241856   2.823   2.678   7.328 -0.0676 -0.3053  0.4966
  173MOL   O23341857   2.739   2.700   7.415  0.7054  0.2911  0.0273
  173MOL   O23441858   2.805   2.611   7.210  0.1605  0.5525  0.0060
  173MOL   C23541859   2.675   2.581   7.168 -0.1744 -0.3323 -0.1834
  173MOL   H23641860   3.105   2.831   7.485  0.1553 -0.3914  1.1817
  173MOL   H23741861   2.985   2.734   7.566 -1.3512  0.7261 -0.0795
  173MOL   H23841862   3.036   2.646   7.333 -0.7767 -0.7218  0.9668
  173MOL   H23941863   2.611   2.525   7.236  0.1150  0.2833  0.5994
  173MOL   H24041864   2.663   2.533   7.071 -1.4095  0.8044 -0.6279
  173MOL   H24141865   2.618   2.674   7.157  0.7037  0.5189  2.1922
  173MOL   H24241866   2.986   2.798   7.267 -0.5554 -1.9127 -1.3187
  174MOL     C141867   7.449   2.450   5.469 -0.4259  0.3142  0.6913
  174MOL     C241868   7.443   2.571   5.558 -0.5574  0.6798  0.4540
  174MOL     C341869   7.360   2.680   5.483  0.0943 -0.1362  0.5061
  174MOL     O441870   7.417   2.777   5.432 -0.9178  0.3244 -0.1235
  174MOL     O541871   7.223   2.650   5.473 -0.2231  0.8981 -0.3681
  174MOL     C641872   7.142   2.741   5.406  0.1475 -0.1286 -0.1158
  174MOL     H741873   7.356   2.394   5.455 -0.4635  0.4013  0.5974
  174MOL     H841874   7.514   2.366   5.496  2.3189  1.6072 -1.7337
  174MOL     H941875   7.547   2.604   5.562 -0.0138 -0.9682  0.3439
  174MOL    H1041876   7.133   2.724   5.299 -0.1720 -0.5923 -0.0145
  174MOL    H1141877   7.157   2.847   5.430 -0.9388  0.2986 -1.3145
  174MOL    H1241878   7.041   2.726   5.445  1.0833 -0.1595  2.4532
  174MOL    H1341879   7.474   2.479   5.368  1.4565  0.7039  1.2542
  174MOL    C1441880   7.388   2.535   5.695  0.1663 -0.6071  1.2590
  174MOL    C1541881   7.425   2.639   5.803 -0.4561 -0.3487  0.0014
  174MOL    C1641882   7.353   2.611   5.931  0.6867  0.1264  0.5565
  174MOL    O1741883   7.232   2.641   5.947 -0.5923  0.1796 -0.0049
  174MOL    O1841884   7.414   2.528   6.024 -0.1121  0.3038 -0.2260
  174MOL    C1941885   7.360   2.497   6.149  0.0470 -0.4430 -0.0151
  174MOL    H2041886   7.279   2.524   5.688 -0.1584  1.3472  2.7130
  174MOL    H2141887   7.425   2.439   5.730  1.2418  0.9187  4.5453
  174MOL    H2241888   7.376   2.731   5.771 -1.1160 -0.1765  1.4429
  174MOL    H2341889   7.276   2.431   6.126 -0.1417 -0.9628  2.0451
  174MOL    H2441890   7.336   2.582   6.213 -0.7534 -1.4832  1.0862
  174MOL    H2541891   7.443   2.442   6.195  1.6732  2.1134  0.1880
  174MOL    C2641892   7.575   2.680   5.817  0.3247 -0.4857  0.5206
  174MOL    C2741893   7.615   2.799   5.742 -0.2735 -0.3091  0.2659
  174MOL    C2841894   7.575   2.917   5.822  0.8473 -0.0629 -0.9534
  174MOL    O2941895   7.476   2.989   5.790  0.1412 -0.1650 -0.0610
  174MOL    O3041896   7.655   2.932   5.924 -0.2965  0.6011  0.0187
  174MOL    C3141897   7.670   3.056   5.984 -0.5767 -0.2738 -0.3892
  174MOL    H3241898   7.616   2.689   5.917  0.0923  1.4982  0.4501
  174MOL    H3341899   7.629   2.589   5.788 -0.2675 -0.3529 -1.0545
  174MOL    H3441900   7.564   2.791   5.647 -0.3647  1.4517  0.1518
  174MOL    H3541901   7.587   3.126   5.968 -0.9252 -0.8241 -0.9864
  174MOL    H3641902   7.754   3.109   5.941 -0.5032 -1.4919 -1.7666
  174MOL    H3741903   7.690   3.045   6.091 -0.7430  0.2797 -0.2987
  174MOL    C3841904   7.761   2.801   5.707 -0.9392 -0.1056 -0.2505
  174MOL    C3941905   7.808   2.802   5.558  0.6776  0.1636  0.1710
  174MOL    C4041906   7.785   2.673   5.478  0.5780  0.0273  0.0993
  174MOL    O4141907   7.732   2.673   5.369  0.1836 -0.0976 -0.3064
  174MOL    O4241908   7.824   2.567   5.545  0.0594  0.2337 -0.3927
  174MOL    C4341909   7.826   2.445   5.478 -0.6281 -0.4874  0.1001
  174MOL    H4441910   7.815   2.887   5.745 -3.7102  2.0117 -0.9383
  174MOL    H4541911   7.806   2.713   5.754  1.8624  0.3238 -2.0300
  174MOL    H4641912   7.914   2.820   5.576 -0.1460  2.3880  3.2023
  174MOL    H4741913   7.797   2.449   5.373 -0.7537  0.1654  0.1605
  174MOL    H4841914   7.772   2.364   5.527 -0.8697  0.2829  1.0998
  174MOL    H4941915   7.930   2.409   5.477 -0.4745 -0.0410 -0.2365
  174MOL    C5041916   7.766   2.922   5.478  0.0886 -0.0643  0.4268
  174MOL    C5141917   7.792   3.067   5.543 -0.3120  0.1690  0.0437
  174MOL    C5241918   7.932   3.088   5.598  0.5093 -0.4270  0.7378
  174MOL    O5341919   0.010   3.152   5.701 -0.5207  0.2165 -0.1813
  174MOL    O5441920   0.100   3.050   5.520 -0.2904  0.5021  0.0833
  174MOL    C5541921   0.232   3.062   5.567 -0.7104  0.0948 -0.1347
  174MOL    H5641922   7.818   2.926   5.382  0.7869 -1.8934  0.7047
  174MOL    H5741923   7.661   2.909   5.451 -0.3846  0.1067  2.1532
  174MOL    H5841924   7.728   3.065   5.631  0.2878  0.8449  0.4959
  174MOL    H5941925   0.241   3.027   5.670 -1.4626  0.4314  0.0440
  174MOL    H6041926   0.256   3.167   5.579  0.3784 -0.3241  1.4715
  174MOL    H6141927   0.291   3.002   5.498 -1.2435 -0.2625 -0.2887
  174MOL    C6241928   7.767   3.181   5.448  0.0832  0.0842  0.3311
  174MOL    C6341929   7.626   3.182   5.377 -0.3913 -0.0875  0.2209
  174MOL    C6441930   7.521   3.220   5.491  0.8063 -0.0060  0.4220
  174MOL    O6541931   7.522   3.327   5.552 -0.1227 -0.0763 -0.4750
  174MOL    O6641932   7.427   3.133   5.505  0.0230 -0.5674  0.2388
  174MOL    C6741933   7.322   3.153   5.603  0.3868 -1.1670 -0.6226
  174MOL    H6841934   7.772   3.277   5.498 -2.2451 -0.3096  1.3803
  174MOL    H6941935   7.852   3.169   5.380 -0.2238 -0.6534  0.0697
  174MOL    H7041936   7.608   3.077   5.351  0.6931 -0.1712 -0.1994
  174MOL    H7141937   7.252   3.070   5.613 -0.9008  0.0191  0.4448
  174MOL    H7241938   7.262   3.240   5.578 -0.6085 -2.1268 -1.6411
  174MOL    H7341939   7.359   3.172   5.704  3.2003 -0.2771 -1.7488
  174MOL    C7441940   7.626   3.278   5.266 -0.3087  0.4997 -0.0503
  174MOL    C7541941   7.505   3.263   5.179  0.4993 -0.2689  0.1241
  174MOL    C7641942   7.497   3.396   5.091  0.0528  0.8585  0.1124
  174MOL    O7741943   7.590   3.435   5.022 -0.1209  0.1453 -0.1518
  174MOL    O7841944   7.375   3.453   5.117 -0.3978  0.2310 -0.4996
  174MOL    C7941945   7.345   3.579   5.065  0.1941 -0.1721  0.2876
  174MOL    H8041946   7.632   3.379   5.306  0.5704  1.3442 -2.2678
  174MOL    H8141947   7.715   3.256   5.208 -0.3137 -1.5169  0.6686
  174MOL    H8241948   7.425   3.273   5.251  1.3282 -0.2184  1.0493
  174MOL    H8341949   7.242   3.591   5.031 -0.5934 -0.8679  2.3923
  174MOL    H8441950   7.408   3.610   4.981 -1.0800  0.4529 -0.4585
  174MOL    H8541951   7.356   3.644   5.152 -0.1077  0.0119  0.1887
  174MOL    C8641952   7.503   3.135   5.096 -0.2095  0.5187 -0.3086
  174MOL    C8741953   7.373   3.089   5.020 -0.0180 -0.2383  0.5967
  174MOL    C8841954   7.249   3.076   5.101  0.3278  0.2955  0.4844
  174MOL    O8941955   7.238   3.102   5.225 -0.0357  0.1228 -0.5645
  174MOL    O9041956   7.148   3.032   5.034  0.1059 -0.1729  0.3140
  174MOL    C9141957   7.017   3.004   5.083 -0.6427 -0.3161 -0.0001
  174MOL    H9241958   7.584   3.145   5.024  1.3819  1.0577  1.5065
  174MOL    H9341959   7.523   3.043   5.152 -0.9123 -0.3731 -1.4970
  174MOL    H9441960   7.396   2.985   4.997  0.4848 -0.1692  0.7760
  174MOL    H9541961   6.946   2.974   5.006 -0.7266 -2.7860  0.9719
  174MOL    H9641962   6.971   3.090   5.131  1.1849 -0.3950  2.0099
  174MOL    H9741963   7.011   2.917   5.148  0.7164 -2.3920 -2.5603
  174MOL    C9841964   7.350   3.153   4.877 -0.4134 -0.8801  0.6314
  174MOL    C9941965   7.430   3.087   4.761 -0.1271 -0.1529  0.5527
  174MOL   C10041966   7.361   2.960   4.703 -0.3084 -0.1481 -0.4428
  174MOL   O10141967   7.337   2.941   4.582  0.4228 -0.5544 -0.3912
  174MOL   O10241968   7.332   2.872   4.793  0.4459 -0.2160  0.4861
  174MOL   C10341969   7.260   2.754   4.764  0.3117 -0.6042  0.0781
  174MOL   H10441970   7.243   3.164   4.859 -0.5760 -2.4132  0.6330
  174MOL   H10541971   7.398   3.249   4.899  0.1869 -1.2061  0.7342
  174MOL   H10641972   7.527   3.060   4.802 -0.8159 -1.5759  1.2968
  174MOL   H10741973   7.295   2.664   4.814 -1.3109 -1.6613 -0.6619
  174MOL   H10841974   7.241   2.739   4.658  1.0399  1.5627 -0.3794
  174MOL   H10941975   7.163   2.759   4.813  0.0129  1.2509 -0.6470
  174MOL   C11041976   7.450   3.196   4.651  0.3590 -0.0740 -0.8815
  174MOL   C11141977   7.334   3.253   4.560 -0.6956 -0.0675  0.2921
  174MOL   C11241978   7.248   3.348   4.642 -0.6141  0.1276  0.3348
  174MOL   O11341979   7.300   3.434   4.708 -0.8254 -0.0910  0.4328
  174MOL   O11441980   7.114   3.324   4.643  0.2706 -0.1120  0.6446
  174MOL   C11541981   7.030   3.396   4.739  0.1489 -0.3494 -0.1196
  174MOL   H11641982   7.487   3.283   4.705 -2.4372  0.0538  0.9309
  174MOL   H11741983   7.516   3.149   4.578 -3.4958 -2.4967 -2.9449
  174MOL   H11841984   7.279   3.164   4.532  1.6749 -1.0650 -1.3833
  174MOL   H11941985   7.033   3.351   4.838 -0.2368 -0.2715 -0.0711
  174MOL   H12041986   6.924   3.391   4.713 -0.3800 -0.9289  2.0353
  174MOL   H12141987   7.065   3.499   4.744 -1.3924  0.2552 -1.2497
  174MOL   C12241988   7.381   3.330   4.426  0.5286  0.3936 -0.3572
  174MOL   C12341989   7.275   3.360   4.314  0.0766 -0.4460  0.3594
  174MOL   C12441990   7.218   3.498   4.320 -0.0651 -0.0146 -0.0557
  174MOL   O12541991   7.245   3.570   4.417 -0.1341 -0.0969 -0.2072
  174MOL   O12641992   7.131   3.525   4.214  0.4883  0.2232  0.0528
  174MOL   C12741993   7.073   3.656   4.192 -0.2979  0.2199 -0.8976
  174MOL   H12841994   7.433   3.417   4.467  0.5771 -0.4951  1.5386
  174MOL   H12941995   7.473   3.284   4.389  0.4888  0.3254 -0.3714
  174MOL   H13041996   7.188   3.295   4.326  0.9579 -1.6770  0.1265
  174MOL   H13141997   7.029   3.685   4.287  0.4025 -0.0876 -0.4757
  174MOL   H13241998   7.004   3.655   4.108  0.4160 -2.1569 -1.5017
  174MOL   H13341999   7.148   3.731   4.166 -2.2313  2.1414 -1.0266
  174MOL   C13442000   7.342   3.330   4.179  0.4765  0.1196  0.2059
  174MOL   C13542001   7.382   3.180   4.159 -0.2264  0.2646  0.5944
  174MOL   C13642002   7.247   3.102   4.167 -0.9457  0.1845 -0.0941
  174MOL   O13742003   7.158   3.124   4.090  0.3434 -0.0550  0.0028
  174MOL   O13842004   7.256   3.009   4.266  0.1202 -0.3979  0.3547
  174MOL   C13942005   7.149   2.915   4.276 -0.0425  0.3500 -0.4779
  174MOL   H14042006   7.279   3.367   4.099  1.1201 -0.6221 -0.6494
  174MOL   H14142007   7.440   3.377   4.174 -0.4801  1.9693 -1.6132
  174MOL   H14242008   7.447   3.156   4.244  1.8423 -0.6724 -1.2049
  174MOL   H14342009   7.053   2.959   4.306  0.5975  1.1021  0.4899
  174MOL   H14442010   7.185   2.841   4.347 -0.9064  0.6345  0.2601
  174MOL   H14542011   7.137   2.866   4.179 -0.0844 -1.6748  0.5367
  174MOL   C14642012   7.463   3.164   4.029 -0.3196  0.4927  0.2242
  174MOL   C14742013   7.510   3.017   3.997 -0.1494 -0.4803 -0.0090
  174MOL   C14842014   7.457   2.987   3.850 -0.8680  0.5228  0.2473
  174MOL   O14942015   7.383   2.887   3.835 -0.7496 -0.3473 -0.2272
  174MOL   O15042016   7.486   3.072   3.763 -0.1378  0.1245  0.2229
  174MOL   C15142017   7.446   3.052   3.630  1.0011 -0.1873  0.2323
  174MOL   H15242018   7.408   3.217   3.951 -2.0343 -0.4839  0.7352
  174MOL   H15342019   7.547   3.231   4.048 -0.7108  1.3550 -1.0075
  174MOL   H15442020   7.473   2.942   4.067  1.7812 -1.7584 -0.3256
  174MOL   H15542021   7.341   3.024   3.632  1.2541 -1.1178  1.7560
  174MOL   H15642022   7.503   2.974   3.580 -1.1436  0.1370 -2.7940
  174MOL   H15742023   7.460   3.151   3.586  1.8345  0.5827  2.1197
  174MOL   C15842024   7.661   3.007   3.997  0.0549  0.2984 -0.1145
  174MOL   C15942025   7.734   3.025   4.135 -0.2597 -0.4100 -0.4220
  174MOL   C16042026   7.679   2.926   4.241  0.1187  0.1433  0.5101
  174MOL   O16142027   7.633   2.815   4.209  0.0469  0.5620  0.1643
  174MOL   O16242028   7.692   2.980   4.368 -0.3977  0.1382  0.3679
  174MOL   C16342029   7.632   2.903   4.468  0.4290 -0.0648 -0.0815
  174MOL   H16442030   7.693   2.911   3.957 -0.2009 -0.6827  1.9726
  174MOL   H16542031   7.699   3.085   3.931  3.1109 -1.5414 -0.6147
  174MOL   H16642032   7.694   3.121   4.167 -0.1856  0.0267 -1.5897
  174MOL   H16742033   7.602   2.976   4.544  1.3436 -0.7430  0.9376
  174MOL   H16842034   7.707   2.834   4.506  0.2186  0.4951  1.3776
  174MOL   H16942035   7.545   2.847   4.435 -1.5582  1.1393  2.8856
  174MOL   C17042036   7.886   3.036   4.139 -0.0775  0.2668  0.0776
  174MOL   C17142037   0.032   2.902   4.124 -0.1887 -0.0721 -0.2614
  174MOL   C17242038   0.075   2.867   3.985 -0.4125  0.0270  0.5016
  174MOL   O17342039   0.072   2.944   3.890 -0.1648 -0.2319 -0.7750
  174MOL   O17442040   0.098   2.733   3.981 -0.5303  0.2180  0.6905
  174MOL   C17542041   0.121   2.666   3.855  0.0640  0.6361 -0.3627
  174MOL   H17642042   7.923   3.116   4.074  0.0815  1.4124  1.5382
  174MOL   H17742043   7.902   3.091   4.232 -2.7957  0.4740  0.4580
  174MOL   H17842044   7.910   2.818   4.165  2.0918 -2.2322 -1.5336
  174MOL   H17942045   0.226   2.685   3.832  0.4550  0.8023  1.4509
  174MOL   H18042046   0.058   2.682   3.768  1.2320 -0.5711 -1.4536
  174MOL   H18142047   0.110   2.560   3.881  1.5712  0.1535 -1.6172
  174MOL   C18242048   0.166   2.924   4.194  1.4544 -0.0330 -0.0697
  174MOL   C18342049   0.169   2.904   4.345  0.6064 -0.0406  0.6953
  174MOL   C18442050   0.174   2.752   4.378  0.1890  0.3284  0.4683
  174MOL   O18542051   0.073   2.681   4.393 -0.3651 -0.6389 -0.3720
  174MOL   O18642052   0.309   2.706   4.376  0.6930  0.0338  0.3041
  174MOL   C18742053   0.323   2.568   4.387 -0.1017 -0.1972 -0.0629
  174MOL   H18842054   0.243   2.855   4.160  0.7798 -0.8360  0.0180
  174MOL   H18942055   0.198   3.026   4.173  1.6211  0.0523  0.5938
  174MOL   H19042056   0.074   2.946   4.379  1.3362  2.2572  0.0196
  174MOL   H19142057   0.323   2.526   4.488 -0.3225 -2.6444 -1.0571
  174MOL   H19242058   0.420   2.542   4.344 -0.0041  2.1812 -1.3728
  174MOL   H19342059   0.257   2.512   4.321 -0.6903  1.3009 -0.7780
  174MOL   C19442060   0.285   2.982   4.409  0.2629 -0.0986  0.6285
  174MOL   C19542061   0.269   3.011   4.558  0.1828  0.4676 -0.0814
  174MOL   C19642062   0.402   3.042   4.618  0.1988 -0.7943  0.0724
  174MOL   O19742063   0.436   3.154   4.648  0.1835  0.4836  0.7829
  174MOL   O19842064   0.479   2.935   4.633  0.7379  0.8166  0.1550
  174MOL   C19942065   0.613   2.944   4.689  0.2756  0.1335 -0.1370
  174MOL   H20042066   0.376   2.929   4.380 -0.5332 -0.1513 -1.9001
  174MOL   H20142067   0.307   3.074   4.355  1.1437 -1.0764 -0.7360
  174MOL   H20242068   0.242   2.913   4.597  3.0171 -0.1081  0.5848
  174MOL   H20342069   0.608   2.970   4.795  1.7257  0.6935 -0.1882
  174MOL   H20442070   0.661   3.023   4.632  2.6014 -1.3708 -0.3473
  174MOL   H20542071   0.669   2.850   4.688 -0.5149 -0.3306 -2.6130
  174MOL   C20642072   0.154   3.098   4.608 -0.1892 -0.5511 -0.6684
  174MOL   C20742073   0.095   3.081   4.750  0.3422 -0.3095  0.0106
  174MOL   C20842074   0.012   3.204   4.782 -0.0449  0.8447 -0.0785
  174MOL   O20942075   0.041   3.280   4.881  0.3241 -0.4308  0.4899
  174MOL   O21042076   7.839   3.220   4.698 -0.5818 -0.4690 -0.3428
  174MOL   C21142077   7.747   3.319   4.732  0.5238 -0.1196 -1.0992
  174MOL   H21242078   0.183   3.201   4.584 -2.2803  0.0837 -0.6047
  174MOL   H21342079   0.066   3.091   4.543 -1.5257  0.9834  0.9188
  174MOL   H21442080   0.183   3.094   4.813 -0.3591 -0.9149  1.1336
  174MOL   H21542081   7.705   3.343   4.634  1.0827 -0.7091 -1.4853
  174MOL   H21642082   7.791   3.410   4.773 -3.4141  0.3458  2.5024
  174MOL   H21742083   7.673   3.297   4.809  1.8003  3.7508  1.4012
  174MOL   C21842084   0.011   2.948   4.770  0.9280  0.6345  0.1701
  174MOL   C21942085   7.877   2.924   4.903 -0.6372 -0.4365  0.5535
  174MOL   C22042086   7.779   2.813   4.895 -0.6793 -0.4238 -0.4206
  174MOL   O22142087   7.669   2.833   4.847  0.5601 -0.2726 -0.2574
  174MOL   O22242088   7.834   2.694   4.922 -0.0156  0.3705  0.6607
  174MOL   C22342089   7.750   2.579   4.910  0.8823  0.2588  0.0134
  174MOL   H22442090   7.869   2.954   4.691  0.3152 -1.4560  0.5625
  174MOL   H22542091   0.068   2.858   4.744  0.5305 -0.0974  1.7791
  174MOL   H22642092   7.813   3.004   4.941  0.0868  1.0413 -1.2465
  174MOL   H22742093   7.648   2.594   4.874  1.5150  0.7639 -1.6134
  174MOL   H22842094   7.753   2.524   5.004  0.1289  0.1754 -0.0093
  174MOL   H22942095   7.804   2.519   4.837  1.6523  0.6703  0.2355
  174MOL   C23042096   0.055   2.913   5.013  0.0892 -0.2646 -0.5008
  174MOL   C23142097   0.008   2.879   5.154 -0.5672  0.0712 -0.5434
  174MOL   C23242098   0.079   2.756   5.219  1.3003  0.0661 -0.2185
  174MOL   O23342099   0.154   2.767   5.318  0.4933  0.3373  0.4747
  174MOL   O23442100   0.068   2.633   5.148 -0.4550 -0.4563 -0.4396
  174MOL   C23542101   0.147   2.526   5.184  0.4938 -0.3863  0.4145
  174MOL   H23642102   0.136   2.848   4.979  0.6657 -1.0498  2.3005
  174MOL   H23742103   0.102   3.011   5.020 -0.9515  0.2181 -0.1444
  174MOL   H23842104   7.835   2.853   5.160 -1.0307  1.2948 -2.9835
  174MOL   H23942105   0.124   2.487   5.283 -0.7682  0.9765  0.6703
  174MOL   H24042106   0.248   2.567   5.184  0.0768  0.7770 -2.9569
  174MOL   H24142107   0.147   2.446   5.109  0.9237 -0.4982  0.5279
  174MOL   H24242108   0.005   2.975   5.207 -1.2842  0.2188 -0.8381
  175MOL     C142109   1.135   0.502   3.382 -0.8975  0.9926 -0.6792
  175MOL     C242110   1.158   0.542   3.231  0.4006  0.3386 -0.3223
  175MOL     C342111   1.058   0.653   3.195  0.1633  0.7565  0.2217
  175MOL     O442112   1.084   0.756   3.127  0.6453  0.1149 -0.3331
  175MOL     O542113   0.932   0.625   3.240  0.3450  0.2525  0.2873
  175MOL     C642114   0.833   0.719   3.204  0.8490 -0.2055 -0.9023
  175MOL     H742115   1.034   0.477   3.415 -0.4843  0.2845  0.0830
  175MOL     H842116   1.177   0.582   3.443  2.0191  1.0758 -2.7226
  175MOL     H942117   1.132   0.453   3.174 -0.6538 -0.3529  1.2010
  175MOL    H1042118   0.741   0.704   3.260  0.3275 -0.6210 -1.8722
  175MOL    H1142119   0.805   0.691   3.103 -1.9722  1.1065 -0.5416
  175MOL    H1242120   0.878   0.819   3.206  0.0843  0.1584  2.3183
  175MOL    H1342121   1.196   0.419   3.416 -0.5168  0.2776 -2.9961
  175MOL    C1442122   1.311   0.568   3.189  0.3535  0.3358 -0.5251
  175MOL    C1542123   1.345   0.569   3.035 -0.1560 -0.2284 -0.1623
  175MOL    C1642124   1.475   0.647   3.008  0.6453 -1.1023  0.4579
  175MOL    O1742125   1.559   0.672   3.100  0.8906 -0.4350 -0.1890
  175MOL    O1842126   1.475   0.692   2.876 -0.2703  0.1632  0.6971
  175MOL    C1942127   1.582   0.778   2.847  0.3526 -0.4626 -0.8913
  175MOL    H2042128   1.338   0.662   3.238 -2.0213  0.8441 -0.1036
  175MOL    H2142129   1.378   0.498   3.238  3.3044  2.4569 -1.3941
  175MOL    H2242130   1.267   0.626   2.985 -0.6509 -0.9783 -0.2601
  175MOL    H2342131   1.583   0.867   2.909 -2.0523 -0.5574 -0.6716
  175MOL    H2442132   1.574   0.812   2.744  0.8645 -1.0015 -1.1130
  175MOL    H2542133   1.680   0.734   2.868 -0.4702 -2.0559 -0.2938
  175MOL    C2642134   1.363   0.430   2.967  0.4792 -0.2092  0.3531
  175MOL    C2742135   1.243   0.340   2.945 -0.3096  0.0321  0.5366
  175MOL    C2842136   1.131   0.395   2.856  0.0482 -0.2885 -0.2205
  175MOL    O2942137   1.029   0.450   2.888 -0.4169 -0.2914 -0.5939
  175MOL    O3042138   1.167   0.381   2.723 -0.2899 -0.1898 -0.1236
  175MOL    C3142139   1.084   0.423   2.621  0.3265 -0.2882 -0.3548
  175MOL    H3242140   1.425   0.437   2.878  0.3545  1.8807  0.4081
  175MOL    H3342141   1.437   0.374   3.025  2.7414  1.8693 -0.4729
  175MOL    H3442142   1.198   0.321   3.043 -0.5152 -0.2705  0.3863
  175MOL    H3542143   0.981   0.390   2.632  0.1991  0.0390 -0.5605
  175MOL    H3642144   1.131   0.380   2.533 -0.2248 -0.2462 -0.6654
  175MOL    H3742145   1.083   0.532   2.616 -1.9523 -0.2762  0.1531
  175MOL    C3842146   1.288   0.195   2.907 -0.1922 -0.2820 -0.0514
  175MOL    C3942147   1.347   0.102   3.022 -0.1177  0.0333  0.0161
  175MOL    C4042148   1.234   0.062   3.118  0.2748 -0.6581  0.1623
  175MOL    O4142149   1.176   7.883   3.106  0.4884  0.5630 -0.3031
  175MOL    O4242150   1.213   0.152   3.207 -0.2412  0.6118  0.1007
  175MOL    C4342151   1.114   0.121   3.300 -0.5550  0.3376  0.2618
  175MOL    H4442152   1.210   0.139   2.856  1.6866 -2.5600 -0.4911
  175MOL    H4542153   1.371   0.217   2.839 -1.8540  0.6872 -1.8218
  175MOL    H4642154   1.416   0.162   3.082 -0.0768 -2.3206  2.3841
  175MOL    H4742155   1.024   0.086   3.251 -1.1008  3.0779 -0.7753
  175MOL    H4842156   1.082   0.207   3.359  1.7236  0.2482  1.6966
  175MOL    H4942157   1.148   0.051   3.376 -0.7668  0.2368  0.2626
  175MOL    C5042158   1.425   7.916   2.964  0.0751 -0.2964  0.5169
  175MOL    C5142159   1.567   0.008   2.907  0.3464  0.0028 -0.5178
  175MOL    C5242160   1.656   0.082   3.009 -1.1083 -0.5745  0.0965
  175MOL    O5342161   1.637   0.076   3.131 -0.4312  0.2292 -0.5082
  175MOL    O5442162   1.751   0.155   2.950  0.5415  0.8569 -0.1539
  175MOL    C5542163   1.820   0.264   3.010  0.0929 -0.2148 -0.0575
  175MOL    H5642164   1.435   7.830   3.032 -1.2143 -0.8120  0.0631
  175MOL    H5742165   1.367   7.886   2.877  0.2790  2.0750 -0.4702
  175MOL    H5842166   1.542   0.081   2.830 -1.9242  0.9165  1.0473
  175MOL    H5942167   1.854   0.248   3.112 -0.4807  0.0034  0.1688
  175MOL    H6042168   1.774   0.361   2.993 -1.2417 -0.8013  0.1496
  175MOL    H6142169   1.912   0.273   2.952 -0.6657  1.7253 -1.0321
  175MOL    C6242170   1.636   7.816   2.845  0.1245  0.1357 -0.2955
  175MOL    C6342171   1.766   7.839   2.765  0.1436 -0.0990 -0.1248
  175MOL    C6442172   1.842   7.697   2.747  0.0013  0.6254 -1.0322
  175MOL    O6542173   1.843   7.636   2.644  0.2817 -0.5998 -0.3388
  175MOL    O6642174   1.897   7.656   2.868 -0.0781  0.1029  0.1686
  175MOL    C6742175   1.954   7.528   2.877  0.4245  0.0096  0.1580
  175MOL    H6842176   1.660   7.742   2.921 -0.4888 -0.0800 -0.3040
  175MOL    H6942177   1.568   7.767   2.775  0.4548  0.0595 -0.5640
  175MOL    H7042178   1.828   7.886   2.841 -0.8354  0.6811  0.1917
  175MOL    H7142179   1.893   7.475   2.950  0.1703  0.0167 -0.0469
  175MOL    H7242180   2.061   7.536   2.899  0.8109 -0.2358 -1.5864
  175MOL    H7342181   1.947   7.469   2.786 -2.2317 -1.7379  1.4135
  175MOL    C7442182   1.743   7.914   2.635 -0.1729 -0.4364 -0.0083
  175MOL    C7542183   1.866   0.047   2.574  0.1839 -0.4673 -0.2231
  175MOL    C7642184   1.883   0.011   2.425 -0.3181 -0.6261  0.1830
  175MOL    O7742185   1.969   7.869   2.388  0.0249 -0.2501 -0.1984
  175MOL    O7842186   1.796   0.072   2.342 -0.9461  0.1058 -0.7220
  175MOL    C7942187   1.801   0.048   2.203 -0.4526  0.0876 -0.1332
  175MOL    H8042188   1.704   7.838   2.568 -0.0782  0.5756 -1.2240
  175MOL    H8142189   1.660   0.049   2.652  0.8889  0.6197  1.0499
  175MOL    H8242190   1.955   0.008   2.624  0.9592 -2.0050 -2.7029
  175MOL    H8342191   1.905   0.061   2.173 -0.7495  2.4248 -0.2169
  175MOL    H8442192   1.736   0.115   2.147  1.4492  0.0239 -2.4685
  175MOL    H8542193   1.776   7.876   2.189  1.0297 -0.1006 -1.4520
  175MOL    C8642194   1.871   0.201   2.602 -1.0462 -0.4672  0.0440
  175MOL    C8742195   1.994   0.275   2.548 -0.5750 -0.3132  0.4767
  175MOL    C8842196   1.968   0.422   2.573  0.0439  0.3324 -0.7944
  175MOL    O8942197   1.945   0.500   2.480 -0.3255 -0.0900  0.6522
  175MOL    O9042198   1.969   0.451   2.705 -0.5711 -0.7343  0.2699
  175MOL    C9142199   1.966   0.588   2.744 -0.4643  0.2551 -0.0240
  175MOL    H9242200   1.782   0.243   2.555 -1.8601 -1.5768  0.5560
  175MOL    H9342201   1.864   0.212   2.710 -0.5085 -0.9658  0.1351
  175MOL    H9442202   2.004   0.246   2.443  4.0107  1.7051  0.2231
  175MOL    H9542203   2.002   0.599   2.846  2.3584 -0.5348 -0.9013
  175MOL    H9642204   1.868   0.635   2.738 -0.7493 -0.5448 -1.7789
  175MOL    H9742205   2.035   0.648   2.685 -0.0714 -2.9458 -2.9882
  175MOL    C9842206   2.125   0.236   2.612 -0.2373  0.6306 -0.3459
  175MOL    C9942207   2.255   0.298   2.553 -0.4298  0.1274 -0.0284
  175MOL   C10042208   2.359   0.303   2.666  0.4998  0.5543 -0.2694
  175MOL   O10142209   2.420   0.200   2.707  1.0029  0.2450 -0.0060
  175MOL   O10242210   2.369   0.431   2.715  0.2736 -0.5779  0.0755
  175MOL   C10342211   2.472   0.463   2.799  0.3821  0.1545 -0.0422
  175MOL   H10442212   2.122   0.263   2.718  2.7597  1.8719 -0.5079
  175MOL   H10542213   2.137   0.129   2.598 -0.4444  0.4299  0.9624
  175MOL   H10642214   2.249   0.402   2.521  2.6484 -0.1767 -1.8799
  175MOL   H10742215   2.570   0.468   2.751  1.2882 -0.1935  1.7466
  175MOL   H10842216   2.465   0.400   2.888  1.0816 -0.0103 -0.0958
  175MOL   H10942217   2.461   0.563   2.839 -1.5550  0.0630 -0.3005
  175MOL   C11042218   2.309   0.230   2.424  0.3058  0.4711  0.1534
  175MOL   C11142219   2.359   0.330   2.324 -0.2998  0.0280 -0.1667
  175MOL   C11242220   2.236   0.411   2.277 -0.3678 -1.2434  0.3109
  175MOL   O11342221   2.216   0.532   2.300 -0.7813  0.2543 -0.2584
  175MOL   O11442222   2.156   0.342   2.201 -0.0741 -0.3283 -0.2848
  175MOL   C11542223   2.041   0.392   2.143 -0.6084  0.8104  0.4872
  175MOL   H11642224   2.379   0.149   2.446 -0.5243  0.0558  1.3166
  175MOL   H11742225   2.229   0.173   2.378 -0.0530  1.2138 -0.1516
  175MOL   H11842226   2.391   0.276   2.234  0.1327 -0.3285  0.1999
  175MOL   H11942227   1.973   0.429   2.220  0.6050  4.2259  0.0076
  175MOL   H12042228   1.992   0.324   2.073  0.6493  1.4999 -1.0690
  175MOL   H12142229   2.050   0.481   2.082 -1.4994  0.3703 -0.2974
  175MOL   C12242230   2.481   0.421   2.367 -0.3958 -0.4500  0.2668
  175MOL   C12342231   2.615   0.347   2.407 -0.0026  0.3412  0.1822
  175MOL   C12442232   2.650   0.253   2.296 -0.3526 -0.4154 -1.1105
  175MOL   O12542233   2.724   0.283   2.205 -0.0654  0.8746 -0.0950
  175MOL   O12642234   2.599   0.133   2.314  1.0270  0.4969  0.4773
  175MOL   C12742235   2.668   0.017   2.268  0.3447  0.7212  0.1149
  175MOL   H12842236   2.503   0.473   2.274 -1.7400 -0.0789  0.1558
  175MOL   H12942237   2.458   0.491   2.447  0.8198  2.1073 -1.5653
  175MOL   H13042238   2.593   0.282   2.492 -2.5338  0.6635 -0.1707
  175MOL   H13142239   2.626   7.854   2.298  0.6172  1.1989  2.1095
  175MOL   H13242240   2.763   7.932   2.319  0.6418  3.1345  0.4587
  175MOL   H13342241   2.692   0.014   2.162  1.3116 -0.1355  0.3452
  175MOL   C13442242   2.722   0.441   2.450 -0.0848 -0.5555 -0.4582
  175MOL   C13542243   2.744   0.565   2.358  0.3251 -0.0872 -0.0642
  175MOL   C13642244   2.651   0.689   2.384 -0.1433 -0.0604  0.2909
  175MOL   O13742245   2.615   0.726   2.496  0.7864 -0.1568 -0.2349
  175MOL   O13842246   2.608   0.745   2.271  0.0387  0.5307 -0.1627
  175MOL   C13942247   2.513   0.846   2.271  0.5518 -0.7711 -0.0476
  175MOL   H14042248   2.691   0.475   2.549 -2.3720 -2.1218 -0.5989
  175MOL   H14142249   2.819   0.392   2.444  1.0211  1.4573  0.4070
  175MOL   H14242250   2.732   0.528   2.256  0.5210  2.0953 -0.9165
  175MOL   H14342251   2.411   0.811   2.277 -0.5298  1.6437 -2.8440
  175MOL   H14442252   2.509   0.922   2.192  3.8467 -0.4714 -0.0135
  175MOL   H14542253   2.519   0.899   2.366  0.7061 -0.9995  0.0689
  175MOL   C14642254   2.889   0.606   2.349  0.5322  0.1382  0.4378
  175MOL   C14742255   2.948   0.649   2.489 -0.6841 -0.0829  0.1306
  175MOL   C14842256   3.028   0.536   2.548 -0.4859  0.3262 -0.1797
  175MOL   O14942257   2.989   0.484   2.650  0.0537  0.5280 -0.7101
  175MOL   O15042258   3.144   0.506   2.487 -0.5851 -0.0743 -0.3194
  175MOL   C15142259   3.221   0.396   2.541  0.0721  0.0625 -0.1842
  175MOL   H15242260   2.944   0.533   2.289 -0.3254 -2.2309  2.4430
  175MOL   H15342261   2.891   0.695   2.286  0.3840 -0.8253 -0.9392
  175MOL   H15442262   2.867   0.681   2.555 -0.7384 -0.4266  0.2340
  175MOL   H15542263   3.291   0.356   2.468 -0.4889 -2.4977  0.6372
  175MOL   H15642264   3.153   0.315   2.566 -3.0998  2.8967  0.6759
  175MOL   H15742265   3.257   0.416   2.642 -2.1813  1.3002  0.3899
  175MOL   C15842266   3.034   0.770   2.476 -0.0204 -0.1384  0.0001
  175MOL   C15942267   3.091   0.833   2.607  0.1766 -0.4300  0.4147
  175MOL   C16042268   3.180   0.945   2.554 -0.0628 -0.5269 -0.7381
  175MOL   O16142269   3.139   1.062   2.568 -0.3973  0.2178 -0.4219
  175MOL   O16242270   3.291   0.905   2.502  0.6015 -0.0282  0.0755
  175MOL   C16342271   3.376   0.989   2.424  0.4563  0.2043  0.1605
  175MOL   H16442272   3.117   0.752   2.408  0.2481  1.0574 -0.0044
  175MOL   H16542273   2.980   0.845   2.417  0.4954  0.7336  0.6246
  175MOL   H16642274   3.146   0.747   2.645  2.5600  0.8039 -0.1344
  175MOL   H16742275   3.478   0.982   2.462  0.8703  2.5353 -0.4253
  175MOL   H16842276   3.335   1.090   2.427 -0.6806 -0.2244 -0.7327
  175MOL   H16942277   3.375   0.963   2.318  1.5509 -0.6091  0.3500
  175MOL   C17042278   2.980   0.873   2.711  0.4594 -0.2183  0.3599
  175MOL   C17142279   3.037   0.943   2.834  0.2222 -0.2295  0.4549
  175MOL   C17242280   3.012   1.096   2.839 -0.2705  0.2337 -0.0187
  175MOL   O17342281   3.094   1.178   2.869  0.7502 -0.1296  0.3096
  175MOL   O17442282   2.884   1.132   2.811 -0.2973 -0.2525  0.4154
  175MOL   C17542283   2.840   1.268   2.813  0.5556 -0.1498  0.4637
  175MOL   H17642284   2.907   0.930   2.654  0.6409 -0.3037  0.0419
  175MOL   H17742285   2.924   0.783   2.736  2.0443 -1.4908 -0.5614
  175MOL   H17842286   3.146   0.940   2.831  0.2139 -0.3264  0.2538
  175MOL   H17942287   2.905   1.330   2.752 -1.0258  0.4725 -0.6205
  175MOL   H18042288   2.842   1.313   2.913 -2.6032 -0.3442  0.6751
  175MOL   H18142289   2.736   1.277   2.780  1.0687 -0.8785 -1.3909
  175MOL   C18242290   2.991   0.884   2.971 -0.2436  0.8856  0.4128
  175MOL   C18342291   3.030   0.731   2.990  0.6542 -0.2079  0.0137
  175MOL   C18442292   3.179   0.709   2.951  0.3865 -0.2222  0.3215
  175MOL   O18542293   3.215   0.637   2.861 -0.8439 -0.0301 -0.0880
  175MOL   O18642294   3.270   0.761   3.031  0.0096 -0.0825  0.4016
  175MOL   C18742295   3.406   0.743   3.021  0.5276 -0.0940  0.1471
  175MOL   H18842296   3.043   0.937   3.050 -1.6316 -0.0293  1.9657
  175MOL   H18942297   2.886   0.897   2.994  0.0731  1.5220  1.5183
  175MOL   H19042298   2.986   0.668   2.913  1.0989  0.0050 -0.4174
  175MOL   H19142299   3.461   0.754   3.114  1.6835  1.2980 -0.6691
  175MOL   H19242300   3.446   0.824   2.960 -2.5439  1.7573  0.4391
  175MOL   H19342301   3.438   0.655   2.966 -3.4573 -1.2710 -0.4032
  175MOL   C19442302   2.987   0.670   3.122 -0.1360  0.8045 -1.4640
  175MOL   C19542303   3.032   0.522   3.153  0.8287  0.9032 -0.5841
  175MOL   C19642304   3.028   0.484   3.307 -0.1011 -0.2018  0.3939
  175MOL   O19742305   3.134   0.502   3.363 -0.0390 -0.3074 -0.2103
  175MOL   O19842306   2.912   0.453   3.362 -0.4919  0.0173 -0.1399
  175MOL   C19942307   2.907   0.420   3.494 -0.0321  0.1399 -0.3412
  175MOL   H20042308   3.040   0.725   3.200  0.7827 -1.9651 -0.0768
  175MOL   H20142309   2.884   0.688   3.153 -1.2085 -4.4936 -1.4731
  175MOL   H20242310   3.133   0.501   3.118  0.1646 -2.8004 -0.4971
  175MOL   H20342311   2.985   0.346   3.516  1.1457  1.5904  0.4064
  175MOL   H20442312   2.814   0.365   3.507 -0.1179  0.1998 -0.7014
  175MOL   H20542313   2.907   0.513   3.550 -0.8118  0.8725 -1.5411
  175MOL   C20642314   2.925   0.430   3.065 -0.0092 -0.2731  0.0629
  175MOL   C20742315   2.966   0.292   3.043  0.0354  0.1402  0.4425
  175MOL   C20842316   2.860   0.197   2.989 -0.5420  0.4533  0.3790
  175MOL   O20942317   2.822   0.096   3.055 -0.4978  0.1792  0.2488
  175MOL   O21042318   2.818   0.225   2.870 -0.1412  0.0073 -0.2103
  175MOL   C21142319   2.708   0.158   2.810 -1.2440 -0.7467 -0.1965
  175MOL   H21242320   2.837   0.425   3.129  0.2233  2.1940  0.6372
  175MOL   H21342321   2.904   0.481   2.971  2.0815 -1.0200 -0.8479
  175MOL   H21442322   3.002   0.251   3.137  0.3282  1.3400  0.8574
  175MOL   H21542323   2.734   0.054   2.791  0.4949 -0.7583  1.9761
  175MOL   H21642324   2.679   0.210   2.719 -3.3748 -0.1495  0.7753
  175MOL   H21742325   2.624   0.140   2.877 -0.6995 -1.0977  0.3986
  175MOL   C21842326   3.086   0.287   2.955 -0.1333  0.0542  0.2938
  175MOL   C21942327   3.175   0.159   2.962 -0.0459  0.1909 -0.5784
  175MOL   C22042328   3.207   0.104   2.823 -0.5608  0.9748 -0.0866
  175MOL   O22142329   3.315   0.124   2.766 -0.3294 -0.0468 -0.4500
  175MOL   O22242330   3.109   0.037   2.760 -0.4629 -0.3732  0.5026
  175MOL   C22342331   3.133   7.904   2.639 -0.3253 -0.1920 -1.1637
  175MOL   H22442332   3.047   0.294   2.853  2.9958  1.8598 -0.8416
  175MOL   H22542333   3.153   0.373   2.954 -0.8099  0.6038 -2.0280
  175MOL   H22642334   3.138   0.075   3.021  0.3970 -0.9141 -1.8496
  175MOL   H22742335   3.183   0.037   2.569 -1.0554  1.1275 -0.4699
  175MOL   H22842336   3.032   7.882   2.604 -0.7335 -0.2835  0.0191
  175MOL   H22942337   3.188   7.810   2.643  1.0561  0.5713 -2.2053
  175MOL   C23042338   3.302   0.195   3.032  0.5699  0.5837  0.5300
  175MOL   C23142339   3.295   0.232   3.184  0.3008 -0.0788  0.3240
  175MOL   C23242340   3.223   0.126   3.277  0.0514 -0.3969 -0.1146
  175MOL   O23342341   3.119   0.155   3.335  0.0133  0.3238 -0.3588
  175MOL   O23442342   3.287   0.014   3.277 -0.2600  0.3575 -0.3612
  175MOL   C23542343   3.239   7.834   3.358 -0.0996 -0.3371 -1.4483
  175MOL   H23642344   3.364   0.106   3.020  0.9870  0.9817 -0.2737
  175MOL   H23742345   3.351   0.279   2.984  0.6141 -0.4440 -1.2793
  175MOL   H23842346   3.265   0.336   3.195  0.6306 -0.0302  0.7984
  175MOL   H23942347   3.226   7.868   3.461 -0.0575  0.1516 -1.6001
  175MOL   H24042348   3.294   7.740   3.358 -1.9154 -1.4326 -0.4781
  175MOL   H24142349   3.144   7.820   3.306 -1.0860 -2.1561  0.7629
  175MOL   H24242350   3.401   0.242   3.208  0.2751 -0.0209  0.4120
  176MOL     C142351   4.315   3.304   1.154  0.1372  0.5852  0.6363
  176MOL     C242352   4.361   3.298   1.003  0.2488  0.4441 -0.1470
  176MOL     C342353   4.496   3.351   0.980  0.1706 -0.1574  0.4046
  176MOL     O442354   4.588   3.319   1.053  0.2150  0.7770 -0.6553
  176MOL     O542355   4.501   3.440   0.872 -0.1609  0.1307 -0.2764
  176MOL     C642356   4.627   3.499   0.843 -0.0849  0.6598  0.1271
  176MOL     H742357   4.314   3.206   1.202 -1.4775  1.1382  1.7568
  176MOL     H842358   4.214   3.345   1.157  0.7911  2.1923  1.3507
  176MOL     H942359   4.297   3.373   0.957 -1.5711 -0.4883  0.8273
  176MOL    H1042360   4.660   3.560   0.926 -0.1025  1.0598 -0.1592
  176MOL    H1142361   4.625   3.562   0.754 -1.9417  1.7872  0.9330
  176MOL    H1242362   4.701   3.420   0.826 -1.7752 -0.9969  0.2057
  176MOL    H1342363   4.382   3.364   1.215 -1.5866  1.5750  1.6083
  176MOL    C1442364   4.327   3.159   0.944  0.4329 -0.1852 -0.3460
  176MOL    C1542365   4.339   3.143   0.794 -0.1398  0.0506 -0.2124
  176MOL    C1642366   4.400   3.011   0.750 -0.0795 -0.3293  0.1623
  176MOL    O1742367   4.523   3.013   0.732 -0.8313 -0.2419  0.1567
  176MOL    O1842368   4.322   2.902   0.740  0.7891 -0.0112  0.0110
  176MOL    C1942369   4.388   2.779   0.699 -0.6258  0.4922 -0.2999
  176MOL    H2042370   4.395   3.083   0.982 -0.5142 -0.0297  1.7156
  176MOL    H2142371   4.236   3.109   0.975  1.0724 -0.3634  1.2969
  176MOL    H2242372   4.408   3.219   0.758 -0.3405  0.3883  0.1205
  176MOL    H2342373   4.350   2.686   0.743 -2.6736  1.7126  0.5915
  176MOL    H2442374   4.494   2.789   0.719 -0.1620 -1.7318 -1.4708
  176MOL    H2542375   4.368   2.781   0.592 -2.0446  1.6759 -0.0223
  176MOL    C2642376   4.208   3.171   0.716 -0.4383  0.6291 -0.0660
  176MOL    C2742377   4.218   3.197   0.568  0.3852  0.4611  0.2539
  176MOL    C2842378   4.082   3.157   0.499  0.1233  0.0701 -0.7063
  176MOL    O2942379   3.980   3.223   0.517  0.0056 -0.4584  0.1898
  176MOL    O3042380   4.085   3.039   0.422  0.3780 -0.4958 -0.3761
  176MOL    C3142381   3.974   2.991   0.342 -0.6984 -0.6756 -0.2378
  176MOL    H3242382   4.137   3.091   0.738 -0.5074  0.5844 -0.4590
  176MOL    H3342383   4.161   3.258   0.763 -0.3046  0.0456  1.1666
  176MOL    H3442384   4.284   3.123   0.523  0.7796  0.0328  1.5195
  176MOL    H3542385   3.965   2.884   0.361  0.7615 -0.7976 -0.2031
  176MOL    H3642386   4.008   3.006   0.240  0.8135  2.1341  0.6391
  176MOL    H3742387   3.880   3.044   0.358  0.1503  0.4327  1.1893
  176MOL    C3842388   4.274   3.333   0.533  0.2642 -0.8263 -0.4260
  176MOL    C3942389   4.274   3.367   0.385 -0.2875 -0.0745  0.7848
  176MOL    C4042390   4.321   3.515   0.370 -0.7376  0.9648  0.7069
  176MOL    O4142391   4.253   3.606   0.317 -0.1290  0.5410 -0.0012
  176MOL    O4242392   4.442   3.531   0.410  0.3152 -0.1255 -0.5159
  176MOL    C4342393   4.499   3.656   0.434  0.1378  0.5274  0.7929
  176MOL    H4442394   4.218   3.409   0.587  0.2311 -0.8317 -0.4527
  176MOL    H4542395   4.380   3.336   0.558  0.2592  2.3016 -0.6226
  176MOL    H4642396   4.177   3.365   0.335 -0.5143  0.3162  1.2037
  176MOL    H4742397   4.570   3.673   0.353  0.3846 -0.4103  0.8036
  176MOL    H4842398   4.524   3.669   0.539 -0.4086  1.0592  0.8579
  176MOL    H4942399   4.416   3.727   0.429 -0.4991 -0.2057  0.7165
  176MOL    C5042400   4.361   3.277   0.296  0.5517 -0.5834 -0.3387
  176MOL    C5142401   4.318   3.262   0.146  0.2544 -0.0299 -0.1263
  176MOL    C5242402   4.363   3.378   0.053 -0.2800  0.8955  0.3318
  176MOL    O5342403   4.316   3.390   7.874  0.4836 -0.1298  0.4570
  176MOL    O5442404   4.462   3.446   0.099 -0.5448  0.2136 -0.5994
  176MOL    C5542405   4.486   3.577   0.052 -0.5012 -0.9532  0.0497
  176MOL    H5642406   4.465   3.304   0.314  0.0415  0.5551  0.9976
  176MOL    H5742407   4.340   3.178   0.336 -2.5089  0.1443 -0.0145
  176MOL    H5842408   4.209   3.268   0.137 -0.0734 -0.8405  2.9001
  176MOL    H5942409   4.461   3.581   7.879 -1.1971 -1.4760  0.1934
  176MOL    H6042410   4.593   3.596   0.058 -0.8654  0.2295  4.6302
  176MOL    H6142411   4.430   3.661   0.093 -0.7389 -1.7241  1.3333
  176MOL    C6242412   4.359   3.123   0.084  0.1948  0.8770 -0.4018
  176MOL    C6342413   4.519   3.101   0.069  0.8994 -0.1436  0.2252
  176MOL    C6442414   4.577   3.052   0.209 -0.4061  0.8225 -0.4562
  176MOL    O6542415   4.655   3.126   0.271  0.2287  0.0131 -0.4508
  176MOL    O6642416   4.530   2.942   0.263  0.1715  0.9377  0.0622
  176MOL    C6742417   4.580   2.886   0.383  0.1097 -1.0487 -0.0105
  176MOL    H6842418   4.321   3.033   0.131  0.9613  0.5785 -0.3578
  176MOL    H6942419   4.313   3.119   7.918  0.8050  2.1452 -0.7447
  176MOL    H7042420   4.564   3.198   0.048 -0.7520  0.0642 -2.5989
  176MOL    H7142421   4.615   2.785   0.363  1.3454 -1.0589  2.1025
  176MOL    H7242422   4.494   2.876   0.450  0.1825 -0.6433  0.1451
  176MOL    H7342423   4.651   2.949   0.437  0.2447  0.2192 -1.6142
  176MOL    C7442424   4.548   3.006   7.882  0.0808  0.3673  0.0921
  176MOL    C7542425   4.669   3.047   7.796 -0.3177  0.5189 -0.6885
  176MOL    C7642426   4.707   2.938   7.699  0.6020 -0.0144 -0.6889
  176MOL    O7742427   4.791   2.854   7.722 -0.5595 -0.3401 -0.4192
  176MOL    O7842428   4.620   2.938   7.599  0.3193  0.1374  0.2376
  176MOL    C7942429   4.647   2.837   7.501  0.1672 -0.6765  0.1056
  176MOL    H8042430   4.557   2.907   7.927  2.5687  0.6474  0.3255
  176MOL    H8142431   4.456   3.009   7.826 -0.4996 -0.8201  0.9640
  176MOL    H8242432   4.752   3.066   7.864 -1.2778  0.0907  0.6210
  176MOL    H8342433   4.639   2.736   7.543  1.1473 -0.0533  1.8056
  176MOL    H8442434   4.747   2.847   7.459 -0.1543  0.0018 -0.5123
  176MOL    H8542435   4.571   2.842   7.423  0.3634  1.8651  0.0565
  176MOL    C8642436   4.661   3.191   7.732  0.1745 -0.9171  0.0740
  176MOL    C8742437   4.802   3.267   7.726 -0.1876 -0.7646 -0.2268
  176MOL    C8842438   4.835   3.359   7.601  0.1235  0.3137  0.2180
  176MOL    O8942439   4.922   3.330   7.522 -0.5424  0.3054 -0.2349
  176MOL    O9042440   4.746   3.467   7.585  0.3992 -0.3514  0.6788
  176MOL    C9142441   4.784   3.567   7.499 -0.6142 -0.1888 -0.1459
  176MOL    H9242442   4.622   3.173   7.632  0.0632  1.4158 -0.3364
  176MOL    H9342443   4.591   3.257   7.784 -0.1704  0.7716 -2.4494
  176MOL    H9442444   4.869   3.183   7.711  0.6381 -0.2979  0.7425
  176MOL    H9542445   4.766   3.525   7.400 -1.9042  0.3491 -0.1604
  176MOL    H9642446   4.889   3.592   7.512 -0.6009 -0.3146 -0.0156
  176MOL    H9742447   4.724   3.659   7.502 -0.1842  0.1397 -1.4921
  176MOL    C9842448   4.836   3.331   7.863 -0.4065  0.0734 -0.1844
  176MOL    C9942449   4.989   3.361   7.885  0.7888  0.1255  0.1289
  176MOL   C10042450   5.006   3.507   7.924 -0.2638  0.4196  0.1756
  176MOL   O10142451   5.020   3.591   7.837  0.7666 -0.0828 -0.2972
  176MOL   O10242452   4.978   3.527   0.118  0.4142  0.3920 -0.1529
  176MOL   C10342453   4.929   3.657   0.158 -0.4899 -0.7289  0.4533
  176MOL   H10442454   4.777   3.423   7.872 -2.0247 -0.9681  0.0958
  176MOL   H10542455   4.778   3.267   7.930  0.5238 -0.0950  0.4624
  176MOL   H10642456   5.042   3.349   7.790 -1.0548  0.7734 -1.0227
  176MOL   H10742457   4.942   3.681   0.263  0.6407  0.8985 -0.0363
  176MOL   H10842458   4.822   3.663   0.142 -0.3788 -0.5141 -0.2294
  176MOL   H10942459   4.982   3.733   0.101 -1.7822 -0.2237 -0.0962
  176MOL   C11042460   5.060   3.266   0.053 -0.3119  0.0398 -0.0654
  176MOL   C11142461   5.083   3.118   0.015 -0.6367  0.1496  0.0963
  176MOL   C11242462   5.132   3.103   7.799  0.4812 -0.2969 -1.0351
  176MOL   O11342463   5.241   3.147   7.767  0.5960  0.6809 -0.0149
  176MOL   O11442464   5.047   3.028   7.728  0.1604 -0.1462 -0.3999
  176MOL   C11542465   5.083   3.018   7.586 -0.1743 -0.7566 -0.1570
  176MOL   H11642466   5.163   3.303   0.061 -0.4339  0.7789 -1.6027
  176MOL   H11742467   5.004   3.274   0.146 -1.1132 -1.5787 -0.4113
  176MOL   H11842468   4.986   3.068   0.013 -0.5873  0.0723 -0.3543
  176MOL   H11942469   5.018   2.968   7.514 -0.0696  0.2639 -0.9687
  176MOL   H12042470   5.182   2.976   7.570  0.2144  0.0514  0.0918
  176MOL   H12142471   5.094   3.118   7.543 -0.2498 -0.5959  0.1983
  176MOL   C12242472   5.172   3.038   0.106  0.0313 -0.0535 -0.3328
  176MOL   C12342473   5.107   2.993   0.241 -0.1527  0.7501  0.0960
  176MOL   C12442474   4.992   2.895   0.217  1.5746 -0.7338  0.4117
  176MOL   O12542475   4.886   2.908   0.274  0.4484 -0.0211  0.0988
  176MOL   O12642476   5.023   2.792   0.135  0.4300 -0.0009 -0.1776
  176MOL   C12742477   4.911   2.699   0.111 -0.0292 -0.1746  0.0592
  176MOL   H12842478   5.201   2.944   0.059 -0.9797 -1.6350  2.0868
  176MOL   H12942479   5.270   3.084   0.118 -0.2234  0.2755  0.4576
  176MOL   H13042480   5.071   3.080   0.296 -0.5634 -0.6094  2.0375
  176MOL   H13142481   4.947   2.639   0.027 -1.5464 -0.0377 -0.7217
  176MOL   H13242482   4.814   2.742   0.088  0.2438 -0.0384 -0.8881
  176MOL   H13342483   4.896   2.636   0.199 -0.6483 -1.5428 -0.9941
  176MOL   C13442484   5.218   2.917   0.324  0.3535 -0.1083  0.2460
  176MOL   C13542485   5.260   2.985   0.458 -0.1192 -0.6940  0.3607
  176MOL   C13642486   5.335   3.119   0.448  0.1759  0.0063  0.3714
  176MOL   O13742487   5.451   3.134   0.465  0.4592 -0.0679  0.2389
  176MOL   O13842488   5.246   3.214   0.400  0.5189  0.0865  0.2461
  176MOL   C13942489   5.298   3.330   0.338 -0.0956  0.3018 -0.1126
  176MOL   H14042490   5.192   2.814   0.348 -2.5496  0.2828 -1.0186
  176MOL   H14142491   5.307   2.901   0.262  0.4210  0.6547  0.1396
  176MOL   H14242492   5.329   2.919   0.509  0.8375  0.2132  0.2465
  176MOL   H14342493   5.233   3.410   0.304 -1.1007 -0.5250 -0.1793
  176MOL   H14442494   5.346   3.305   0.244 -0.3765 -2.2595  0.3802
  176MOL   H14542495   5.379   3.371   0.399  0.4052 -2.5115  1.1938
  176MOL   C14642496   5.140   2.994   0.558 -0.0150 -0.1962 -0.5395
  176MOL   C14742497   5.162   3.073   0.691  0.7223  0.2757  0.1840
  176MOL   C14842498   5.034   3.075   0.772 -0.3466 -0.3316  0.6117
  176MOL   O14942499   4.960   2.981   0.774  0.5016 -0.3182 -0.1040
  176MOL   O15042500   5.026   3.171   0.850 -0.1145 -0.3411 -0.4500
  176MOL   C15142501   4.904   3.195   0.929  0.0967 -0.4643 -0.0446
  176MOL   H15242502   5.046   3.028   0.514 -0.5807 -0.7804  0.1926
  176MOL   H15342503   5.111   2.890   0.571  1.4722 -0.6594 -0.8801
  176MOL   H15442504   5.198   3.171   0.660 -0.2933  0.5811 -0.0350
  176MOL   H15542505   4.928   3.176   1.034 -1.9083 -2.7011  0.0377
  176MOL   H15642506   4.828   3.121   0.905 -0.8167  0.2015  0.7609
  176MOL   H15742507   4.870   3.298   0.917 -2.3826 -1.2858 -0.3586
  176MOL   C15842508   5.278   3.011   0.779 -0.7980 -0.4910 -0.8241
  176MOL   C15942509   5.339   3.109   0.884 -0.5425  0.1814 -1.0611
  176MOL   C16042510   5.428   3.032   0.989 -0.0394 -0.6158 -0.0268
  176MOL   O16142511   5.440   3.075   1.106  0.5024 -0.2327 -0.0889
  176MOL   O16242512   5.499   2.928   0.934  0.3291 -0.0583  0.0259
  176MOL   C16342513   5.573   2.849   1.017 -0.6419 -0.0463 -0.6002
  176MOL   H16442514   5.235   2.920   0.822 -2.9775  1.1321  0.5552
  176MOL   H16542515   5.361   2.975   0.719 -1.1495 -1.2081 -0.8949
  176MOL   H16642516   5.261   3.141   0.953  0.2113 -1.2982  0.5112
  176MOL   H16742517   5.659   2.892   1.069 -0.0238  0.3728 -1.9458
  176MOL   H16842518   5.612   2.760   0.968  0.4421  0.4816 -0.7107
  176MOL   H16942519   5.509   2.805   1.094  0.8386  0.4487  0.9503
  176MOL   C17042520   5.418   3.232   0.825 -0.0464  0.5098  0.3481
  176MOL   C17142521   5.327   3.360   0.829 -0.3250  0.7602 -0.1438
  176MOL   C17242522   5.373   3.418   0.964  0.2280 -0.1074 -0.1228
  176MOL   O17342523   5.464   3.501   0.972  0.2322  0.3087 -0.2636
  176MOL   O17442524   5.296   3.378   1.059 -0.2593 -0.8701 -0.1976
  176MOL   C17542525   5.318   3.414   1.195 -0.0086  0.6123 -0.0984
  176MOL   H17642526   5.516   3.241   0.873  0.8460 -1.7443 -0.9646
  176MOL   H17742527   5.444   3.219   0.720 -1.0658  0.7671  0.0682
  176MOL   H17842528   5.225   3.322   0.837  0.6746 -1.8753  0.7658
  176MOL   H17942529   5.362   3.326   1.243  1.3865  1.8284  0.8924
  176MOL   H18042530   5.212   3.428   1.217 -0.1422  1.0791 -1.0234
  176MOL   H18142531   5.388   3.496   1.208  1.9073 -1.1651  1.2141
  176MOL   C18242532   5.352   3.466   0.719 -0.3741  0.0664  0.3121
  176MOL   C18342533   5.238   3.578   0.708  0.9361 -0.5189  0.0555
  176MOL   C18442534   5.286   3.681   0.601  0.1393 -0.2989  0.0816
  176MOL   O18542535   5.245   3.683   0.486  0.0389 -0.4450 -0.2984
  176MOL   O18642536   5.381   3.773   0.654  0.4249 -0.6215 -0.0206
  176MOL   C18742537   5.423   3.884   0.584  0.0449 -0.2958 -0.0320
  176MOL   H18842538   5.447   3.518   0.713 -0.2159 -0.0642  1.4500
  176MOL   H18942539   5.346   3.417   0.622 -0.2238  1.9628 -0.6616
  176MOL   H19042540   5.236   3.620   0.809  0.7143 -1.8780  0.6218
  176MOL   H19142541   5.520   3.865   0.537  0.4448  1.8002 -0.0817
  176MOL   H19242542   5.427   3.967   0.653 -2.8971 -1.8850  2.1878
  176MOL   H19342543   5.349   3.910   0.508 -1.1341 -3.0039  0.0999
  176MOL   C19442544   5.096   3.520   0.672 -1.3279  0.3411  0.1423
  176MOL   C19542545   4.985   3.624   0.660  0.8513 -0.0100 -0.1899
  176MOL   C19642546   4.866   3.573   0.582 -0.1827 -0.5085  0.0152
  176MOL   O19742547   4.784   3.649   0.524  0.2246 -0.8924 -0.2332
  176MOL   O19842548   4.845   3.444   0.590 -0.0735  0.0542 -0.3234
  176MOL   C19942549   4.731   3.385   0.522  0.3402 -0.3244 -1.1003
  176MOL   H20042550   5.106   3.462   0.581 -3.7573  2.3086 -1.4520
  176MOL   H20142551   5.061   3.441   0.738 -0.1369 -0.8413 -0.6407
  176MOL   H20242552   5.027   3.704   0.599  6.0390 -1.9794  0.6281
  176MOL   H20342553   4.654   3.461   0.538 -0.2254 -0.9668 -0.7208
  176MOL   H20442554   4.690   3.290   0.559 -0.2950 -0.1177 -1.2679
  176MOL   H20542555   4.751   3.373   0.416  1.9633  1.2053 -0.9796
  176MOL   C20642556   4.924   3.698   0.786 -0.2203 -0.2708  0.4060
  176MOL   C20742557   4.990   3.834   0.829  0.1356  0.1518  0.3839
  176MOL   C20842558   4.976   3.945   0.721 -0.0969 -0.3001 -0.3588
  176MOL   O20942559   4.874   4.019   0.708  0.3933 -0.2328  0.1329
  176MOL   O21042560   5.073   3.936   0.632 -0.1662 -0.1112 -0.4016
  176MOL   C21142561   5.053   4.002   0.508 -0.0119  0.2296 -0.0522
  176MOL   H21242562   4.817   3.715   0.770  0.1270 -0.3136 -2.2540
  176MOL   H21342563   4.932   3.631   0.872  1.6321 -0.4461  0.1142
  176MOL   H21442564   5.096   3.813   0.847  0.4418  0.7683 -0.6759
  176MOL   H21542565   4.956   4.048   0.488 -1.1366 -2.0585 -0.1211
  176MOL   H21642566   5.076   3.925   0.435 -2.5285  0.1987 -0.8687
  176MOL   H21742567   5.130   4.079   0.508 -0.9440  1.1852 -1.8283
  176MOL   C21842568   4.929   3.894   0.964 -0.3191 -0.1693  1.0260
  176MOL   C21942569   4.926   3.801   1.087  0.0931 -1.0962  0.4687
  176MOL   C22042570   5.064   3.733   1.107 -0.6867  0.1036  0.2640
  176MOL   O22142571   5.073   3.610   1.116 -0.2137  0.9683 -0.5985
  176MOL   O22242572   5.166   3.820   1.107 -0.1897 -0.1179 -0.1370
  176MOL   C22342573   5.301   3.777   1.118  0.4133  0.0806  0.6069
  176MOL   H22442574   4.977   3.984   1.001  2.4221 -0.6190 -1.2875
  176MOL   H22542575   4.829   3.929   0.939  0.5783  0.3759 -1.9368
  176MOL   H22642576   4.864   3.719   1.050 -1.4470  1.1111 -2.0516
  176MOL   H22742577   5.350   3.755   1.024  1.3044  2.6300  0.4464
  176MOL   H22842578   5.291   3.686   1.177 -1.0932  0.1097  0.4219
  176MOL   H22942579   5.343   3.857   1.180 -0.1992  1.7759 -1.1238
  176MOL   C23042580   4.856   3.861   1.210  0.3770  0.1792  0.1311
  176MOL   C23142581   4.713   3.921   1.196  0.3642  0.1685 -0.2328
  176MOL   C23242582   4.604   3.831   1.124  0.7172  0.0405  0.3609
  176MOL   O23342583   4.621   3.800   1.007  0.0558  0.2811 -0.4309
  176MOL   O23442584   4.505   3.802   1.194  0.1095  0.9633 -0.2479
  176MOL   C23542585   4.415   3.707   1.137  0.2812 -0.0903 -0.5272
  176MOL   H23642586   4.855   3.785   1.289  0.1984 -1.3136 -1.2866
  176MOL   H23742587   4.905   3.948   1.255 -1.1832  0.1468  1.9432
  176MOL   H23842588   4.732   4.018   1.149 -0.5165 -0.7130 -2.4621
  176MOL   H23942589   4.468   3.612   1.127 -1.4408 -0.9371 -1.8370
  176MOL   H24042590   4.386   3.743   1.038 -1.7848 -2.8218 -0.9833
  176MOL   H24142591   4.334   3.684   1.206  1.8380 -2.2400  0.6753
  176MOL   H24242592   4.674   3.942   1.296  1.4836 -1.0956  0.4714
  177MOL     C142593   6.512   2.030   5.959 -0.3384  0.4240 -0.1324
  177MOL     C242594   6.519   1.882   6.003 -0.2091  0.4559  1.1088
  177MOL     C342595   6.388   1.805   5.974  0.1188 -0.1822  0.7557
  177MOL     O442596   6.306   1.776   6.065  0.8130 -0.4457 -0.0202
  177MOL     O542597   6.374   1.780   5.845  0.1895 -0.2308 -0.8976
  177MOL     C642598   6.258   1.719   5.803 -0.2468 -0.4203 -0.4413
  177MOL     H742599   6.614   2.068   5.967 -0.6751  1.1277  0.7583
  177MOL     H842600   6.448   2.095   6.018  0.1394  1.7266 -1.0338
  177MOL     H942601   6.538   1.891   6.110  0.8584  2.0881  0.7940
  177MOL    H1042602   6.185   1.788   5.761  1.2569  1.3479 -0.2154
  177MOL    H1142603   6.199   1.653   5.867  0.4713  0.8696  1.6025
  177MOL    H1242604   6.282   1.651   5.721  0.8166 -0.4940 -0.0756
  177MOL    H1342605   6.481   2.027   5.854  1.4808 -1.6465 -0.6527
  177MOL    C1442606   6.642   1.805   5.951  0.4230 -0.1740 -0.1710
  177MOL    C1542607   6.658   1.675   6.029 -0.8545  0.7780 -0.1654
  177MOL    C1642608   6.712   1.567   5.941  1.0103  0.0913  0.3317
  177MOL    O1742609   6.821   1.517   5.958 -0.4842  0.5459 -0.2511
  177MOL    O1842610   6.619   1.523   5.856  0.7143 -0.0561 -0.7466
  177MOL    C1942611   6.665   1.422   5.766  0.3650 -0.2977 -0.0909
  177MOL    H2042612   6.624   1.783   5.846 -0.5033  0.6266 -0.1877
  177MOL    H2142613   6.734   1.863   5.966  0.3146  0.3408 -1.4303
  177MOL    H2242614   6.561   1.643   6.066 -2.1493  0.3183 -3.8463
  177MOL    H2342615   6.708   1.333   5.812 -0.5326  0.1834  1.7431
  177MOL    H2442616   6.749   1.455   5.705 -0.0462  0.0973 -0.4461
  177MOL    H2542617   6.581   1.390   5.705 -1.1118  2.1663  0.6014
  177MOL    C2642618   6.753   1.685   6.152  0.0864 -0.3931  0.4133
  177MOL    C2742619   6.721   1.598   6.275 -0.0701 -1.1762  0.0056
  177MOL    C2842620   6.596   1.631   6.344  0.3995 -0.3756  0.3022
  177MOL    O2942621   6.599   1.685   6.455  0.2024 -0.0009  0.2171
  177MOL    O3042622   6.486   1.584   6.281  0.2321  0.0605 -0.3158
  177MOL    C3142623   6.363   1.599   6.349  0.0815 -0.7066 -0.2645
  177MOL    H3242624   6.857   1.672   6.122  0.0511 -1.2129  0.6369
  177MOL    H3342625   6.754   1.783   6.199  0.2735 -0.7814  1.2199
  177MOL    H3442626   6.801   1.625   6.343  1.1429  0.1065 -1.8826
  177MOL    H3542627   6.334   1.704   6.359  2.1568 -0.0011 -1.2844
  177MOL    H3642628   6.353   1.553   6.447  0.0615 -3.2059 -1.3942
  177MOL    H3742629   6.289   1.539   6.295 -2.7473  2.9572 -0.6601
  177MOL    C3842630   6.747   1.451   6.247  0.1581  0.2653 -0.2205
  177MOL    C3942631   6.752   1.344   6.365 -0.2122 -0.1650  0.5638
  177MOL    C4042632   6.840   1.398   6.487 -0.3160  0.3724 -0.6582
  177MOL    O4142633   6.793   1.400   6.600  0.4288 -0.1372  0.3943
  177MOL    O4242634   6.958   1.454   6.458  0.0733 -0.2066  0.0183
  177MOL    C4342635   7.035   1.511   6.562  0.6824  0.4009  0.7408
  177MOL    H4442636   6.694   1.410   6.160  2.1551 -0.7903 -0.9874
  177MOL    H4542637   6.849   1.449   6.208 -0.0557 -1.4669 -0.7381
  177MOL    H4642638   6.812   1.263   6.323 -1.3002 -0.6555 -0.0552
  177MOL    H4742639   6.973   1.545   6.645 -0.8638 -0.5360 -0.0020
  177MOL    H4842640   7.098   1.589   6.519  1.3011 -0.7633 -0.4940
  177MOL    H4942641   7.093   1.434   6.611  0.5453 -0.6303 -0.6952
  177MOL    C5042642   6.623   1.276   6.415 -0.3974 -0.4777 -0.4766
  177MOL    C5142643   6.557   1.164   6.326 -0.2239  0.0770 -0.1977
  177MOL    C5242644   6.506   1.220   6.193 -0.2393  0.2034  1.3898
  177MOL    O5342645   6.556   1.184   6.089 -0.1037  0.1110  0.0935
  177MOL    O5442646   6.419   1.318   6.202 -0.0606  0.7510  1.0041
  177MOL    C5542647   6.383   1.386   6.079 -0.3398  0.1284 -0.3581
  177MOL    H5642648   6.635   1.241   6.518 -0.9827 -0.0841 -0.2704
  177MOL    H5742649   6.551   1.355   6.440  0.0869 -0.8502  2.3228
  177MOL    H5842650   6.461   1.137   6.371 -0.5136 -0.0493 -0.8698
  177MOL    H5942651   6.317   1.472   6.072  0.5921  0.8133 -0.8053
  177MOL    H6042652   6.335   1.312   6.015  0.8681  1.0499 -2.4024
  177MOL    H6142653   6.473   1.413   6.024 -1.3766  2.5504 -0.8948
  177MOL    C6242654   6.647   1.040   6.294  0.8094  0.0222 -0.8275
  177MOL    C6342655   6.669   0.958   6.424 -0.1426 -0.2026 -0.5296
  177MOL    C6442656   6.547   0.878   6.476 -0.5496 -0.2806 -1.0408
  177MOL    O6542657   6.445   0.867   6.414 -0.0572 -0.3609  0.3515
  177MOL    O6642658   6.578   0.808   6.587 -0.2270 -0.1417  1.0421
  177MOL    C6742659   6.483   0.711   6.631  0.0659  0.1098  0.3735
  177MOL    H6842660   6.600   0.978   6.218  1.1908 -0.7084 -0.4729
  177MOL    H6942661   6.741   1.076   6.252  0.3563  0.8093 -1.1685
  177MOL    H7042662   6.705   1.029   6.498 -0.7836  0.1286 -0.5309
  177MOL    H7142663   6.539   0.649   6.700 -0.0092 -0.5087 -0.1224
  177MOL    H7242664   6.452   0.646   6.549  1.6499 -3.8980  2.8161
  177MOL    H7342665   6.392   0.752   6.675 -1.2142 -2.7511  0.5199
  177MOL    C7442666   6.793   0.863   6.408  0.3360  0.2583  0.3244
  177MOL    C7542667   6.930   0.933   6.412  0.4319  0.8070  0.5539
  177MOL    C7642668   6.959   0.984   6.550  0.7549 -0.2690 -0.4047
  177MOL    O7742669   6.897   0.947   6.650 -0.0396  0.0578 -0.0096
  177MOL    O7842670   7.059   1.077   6.552  0.1774  0.1566  0.0047
  177MOL    C7942671   7.071   1.166   6.658 -0.2956  1.0914 -0.2535
  177MOL    H8042672   6.785   0.783   6.482  1.4873 -0.3755 -0.2159
  177MOL    H8142673   6.763   0.823   6.311  0.1256  2.7553 -0.6746
  177MOL    H8242674   6.942   1.022   6.351  1.3911  0.1687 -0.1908
  177MOL    H8342675   6.974   1.207   6.688  1.5012  3.4023  2.7850
  177MOL    H8442676   7.139   1.248   6.633 -2.8522  3.1511 -0.7331
  177MOL    H8542677   7.090   1.108   6.748 -2.0971  2.2134  0.8980
  177MOL    C8642678   7.050   0.844   6.373  0.2946  0.1561  0.6273
  177MOL    C8742679   7.057   0.796   6.219 -0.5216 -0.2441  0.4275
  177MOL    C8842680   7.051   0.910   6.113 -0.2167 -0.7437 -0.7769
  177MOL    O8942681   7.141   0.944   6.036  1.1147  0.2811 -0.6021
  177MOL    O9042682   6.926   0.960   6.104  0.1257  0.3727  0.2833
  177MOL    C9142683   6.895   1.074   6.025  0.2879 -0.2406  0.0562
  177MOL    H9242684   7.146   0.891   6.397 -0.1256  0.6336  1.3735
  177MOL    H9342685   7.037   0.749   6.425 -0.3179 -0.0183  0.1564
  177MOL    H9442686   6.961   0.746   6.209  0.2091 -1.7331  0.7335
  177MOL    H9542687   6.962   1.088   5.939  0.8082  0.5229  0.5782
  177MOL    H9642688   6.897   1.159   6.093  0.1106 -0.5360  0.4364
  177MOL    H9742689   6.793   1.068   5.988  0.2493 -1.0066  0.2731
  177MOL    C9842690   7.161   0.685   6.180 -0.1006  0.1819 -0.8090
  177MOL    C9942691   7.315   0.723   6.189 -0.1360 -0.2033 -0.4333
  177MOL   C10042692   7.357   0.723   6.337 -0.1646  0.6430  0.4369
  177MOL   O10142693   7.434   0.806   6.390  0.2295 -0.3545 -0.1422
  177MOL   O10242694   7.308   0.621   6.404 -0.2143 -0.1588  0.0222
  177MOL   C10342695   7.366   0.587   6.529  0.6470  0.0080  0.1851
  177MOL   H10442696   7.150   0.588   6.229 -0.5883  1.4271  1.5942
  177MOL   H10542697   7.147   0.649   6.078  0.0172 -0.3630 -0.6373
  177MOL   H10642698   7.313   0.824   6.149 -4.0835  0.6605  1.6841
  177MOL   H10742699   7.466   0.548   6.508  1.6418  1.5811  1.7587
  177MOL   H10842700   7.304   0.506   6.567 -1.0372  1.6293  0.9852
  177MOL   H10942701   7.370   0.667   6.603  0.9846 -0.1807  0.3712
  177MOL   C11042702   7.400   0.617   6.110  0.7303 -0.3546 -0.0401
  177MOL   C11142703   7.546   0.656   6.082  0.1848 -0.0875  0.0163
  177MOL   C11242704   7.637   0.614   6.198  0.6908 -0.6750 -0.0609
  177MOL   O11342705   7.617   0.518   6.271  0.6726 -0.0735  0.5660
  177MOL   O11442706   7.741   0.695   6.206  0.1567 -0.1757  0.1304
  177MOL   C11542707   7.839   0.669   6.299 -0.3448  0.1917 -0.4290
  177MOL   H11642708   7.396   0.525   6.167 -0.2466 -1.5933 -2.0616
  177MOL   H11742709   7.356   0.592   6.014 -0.1849  0.2822  0.2099
  177MOL   H11842710   7.561   0.763   6.069 -0.8068 -0.0071 -0.5122
  177MOL   H11942711   7.907   0.586   6.282 -0.7902  0.1355 -1.9782
  177MOL   H12042712   7.795   0.667   6.399 -0.3577  2.0207 -0.3867
  177MOL   H12142713   7.904   0.756   6.304 -1.1412  0.8281 -1.0250
  177MOL   C12242714   7.596   0.590   5.958  0.2388 -0.5997  0.3517
  177MOL   C12342715   7.733   0.621   5.899  0.2885 -0.1515 -0.0131
  177MOL   C12442716   7.759   0.540   5.769 -0.3759  0.0681 -0.5212
  177MOL   O12542717   7.873   0.534   5.725  0.4469  0.6960 -0.0270
  177MOL   O12642718   7.644   0.485   5.714 -0.2387  0.9877  0.1205
  177MOL   C12742719   7.661   0.398   5.606  0.3068 -0.0578 -0.2161
  177MOL   H12842720   7.575   0.484   5.969 -1.8151 -0.2885 -0.4556
  177MOL   H12942721   7.524   0.600   5.877 -1.1493  0.4353  1.6893
  177MOL   H13042722   7.809   0.600   5.973  0.8276  0.9020 -0.2496
  177MOL   H13142723   7.565   0.354   5.578  0.6429  0.4759 -2.3453
  177MOL   H13242724   7.735   0.321   5.624 -1.5244 -1.9851 -0.7408
  177MOL   H13342725   7.678   0.467   5.522 -0.8465  1.0283  0.4235
  177MOL   C13442726   7.769   0.770   5.893  0.4160  0.3398 -0.2280
  177MOL   C13542727   7.702   0.857   5.792 -1.2426  0.2584  0.9165
  177MOL   C13642728   7.560   0.898   5.842  0.7002 -0.5027  0.8367
  177MOL   O13742729   7.455   0.844   5.801 -0.2746  0.0727  0.3569
  177MOL   O13842730   7.556   1.010   5.924 -0.4824 -0.3525  0.0889
  177MOL   C13942731   7.437   1.080   5.966  0.2167 -0.1128 -0.1104
  177MOL   H14042732   7.762   0.813   5.993  0.9278  0.3815 -0.2110
  177MOL   H14142733   7.876   0.778   5.876  0.6082 -0.0077  0.7655
  177MOL   H14242734   7.700   0.802   5.698  1.5187 -0.8222  1.4308
  177MOL   H14342735   7.458   1.153   6.044  0.1376  0.3303 -0.5007
  177MOL   H14442736   7.372   1.002   6.005 -0.3481  1.1720  1.5563
  177MOL   H14542737   7.376   1.119   5.884  0.0835 -1.4529 -0.6587
  177MOL   C14642738   7.801   0.977   5.757  0.1444 -0.2264  0.5043
  177MOL   C14742739   7.774   1.076   5.633  0.5766  0.0908 -0.8028
  177MOL   C14842740   7.765   0.992   5.505  0.1298 -0.5518  0.3463
  177MOL   O14942741   7.692   0.893   5.492  0.1962 -0.1017  0.1201
  177MOL   O15042742   7.839   1.050   5.411  0.1396  0.0130  0.1689
  177MOL   C15142743   7.836   0.993   5.281  0.0655 -0.1644  0.8879
  177MOL   H15242744   7.802   1.044   5.844 -2.4243  1.8915 -1.0060
  177MOL   H15342745   7.899   0.931   5.744 -0.2032 -0.2454 -2.3480
  177MOL   H15442746   7.852   1.151   5.627  0.6218  0.0963 -0.1500
  177MOL   H15542747   7.735   0.968   5.249 -0.8450  1.1631  2.6522
  177MOL   H15642748   7.895   0.901   5.286  0.0077 -0.1298  2.8975
  177MOL   H15742749   7.879   1.062   5.209 -0.0992  0.2054  1.1463
  177MOL   C15842750   7.654   1.167   5.661 -0.2712 -0.2399  0.6359
  177MOL   C15942751   7.626   1.284   5.558  0.3814  0.6467  0.4186
  177MOL   C16042752   7.485   1.263   5.490 -0.1175  0.6513  0.0136
  177MOL   O16142753   7.391   1.345   5.483 -0.0512 -0.3679 -0.2165
  177MOL   O16242754   7.474   1.142   5.434 -0.3215 -0.6434 -0.7656
  177MOL   C16342755   7.357   1.093   5.376 -0.3953 -0.2523 -0.0648
  177MOL   H16442756   7.572   1.098   5.679  0.7599 -1.2477  1.5408
  177MOL   H16542757   7.651   1.196   5.766  0.7367 -1.3073  0.9755
  177MOL   H16642758   7.701   1.282   5.480 -0.5243 -1.0883 -0.4305
  177MOL   H16742759   7.390   1.034   5.291 -4.9719 -2.2176 -0.6124
  177MOL   H16842760   7.293   1.173   5.338 -0.3959  0.0585  0.5985
  177MOL   H16942761   7.303   1.036   5.452 -1.7825  1.3435  0.1754
  177MOL   C17042762   7.632   1.425   5.620 -0.3858  0.1021  0.5141
  177MOL   C17142763   7.776   1.463   5.671 -1.0229  0.2119 -0.7542
  177MOL   C17242764   7.871   1.484   5.552  0.1596 -0.3419 -0.5935
  177MOL   O17342765   7.879   1.593   5.495 -0.3755  0.3240 -0.9120
  177MOL   O17442766   7.926   1.370   5.514 -0.4326  0.1504 -0.0124
  177MOL   C17542767   0.068   1.369   5.392  0.0773 -0.5551 -0.3619
  177MOL   H17642768   7.617   1.492   5.536  1.6142  0.2802  0.2548
  177MOL   H17742769   7.548   1.448   5.686 -0.5790  1.2301 -0.1159
  177MOL   H17842770   7.816   1.376   5.723 -0.1037 -0.3758 -2.4171
  177MOL   H17942771   0.022   1.432   5.316 -1.1646  1.3111  1.9002
  177MOL   H18042772   0.068   1.267   5.353 -1.3511  0.0543 -2.0102
  177MOL   H18142773   0.170   1.401   5.414 -0.6321 -0.2037  2.5668
  177MOL   C18242774   7.783   1.579   5.780  0.2049  0.6835 -0.0646
  177MOL   C18342775   7.726   1.537   5.914  0.2323  0.2268 -0.3132
  177MOL   C18442776   7.798   1.420   5.977 -0.7240 -0.2707  0.7438
  177MOL   O18542777   7.920   1.410   5.987  0.6205  0.9187  1.0010
  177MOL   O18642778   7.716   1.317   6.007  0.1932 -0.0691  0.0344
  177MOL   C18742779   7.761   1.214   6.098  0.7957 -0.3213 -0.1021
  177MOL   H18842780   7.882   1.625   5.778  0.4957  0.0470 -0.3709
  177MOL   H18942781   7.729   1.658   5.728  2.7337  1.7268 -1.1702
  177MOL   H19042782   7.622   1.510   5.894  0.4488 -0.8163 -0.0587
  177MOL   H19142783   7.680   1.177   6.161  0.1882  0.1537 -0.5917
  177MOL   H19242784   7.842   1.242   6.165 -0.1912  1.3420  0.4281
  177MOL   H19342785   7.795   1.136   6.030 -1.0565 -2.6395  1.5356
  177MOL   C19442786   7.708   1.666   5.995  0.4992 -0.7314 -0.0459
  177MOL   C19542787   7.643   1.645   6.134  0.0901 -0.2398 -0.2004
  177MOL   C19642788   7.759   1.640   6.240 -0.6792  0.0681 -0.5413
  177MOL   O19742789   7.787   1.528   6.282  0.4452  0.1082 -0.4350
  177MOL   O19842790   7.822   1.752   6.263  0.3941 -0.8615 -0.3116
  177MOL   C19942791   7.921   1.741   6.363 -0.2675  0.4996  0.2205
  177MOL   H20042792   7.803   1.718   6.009 -0.5982  1.1912  0.4732
  177MOL   H20142793   7.640   1.731   5.941  2.3772  1.2683 -0.0581
  177MOL   H20242794   7.591   1.549   6.138 -1.1393  0.4638  1.0873
  177MOL   H20342795   0.006   1.828   6.427  0.4145 -0.6517  1.6171
  177MOL   H20442796   0.078   1.697   6.321 -1.4316 -0.1387 -1.6687
  177MOL   H20542797   7.896   1.666   6.438  1.2194  0.3101  0.5323
  177MOL   C20642798   7.532   1.746   6.180  0.0852 -0.2705 -0.2459
  177MOL   C20742799   7.446   1.696   6.298 -0.1263  0.5132 -0.3772
  177MOL   C20842800   7.448   1.801   6.409 -0.6509 -0.1544 -0.5062
  177MOL   O20942801   7.355   1.884   6.421 -0.1056  0.2299 -0.6204
  177MOL   O21042802   7.565   1.796   6.481  0.7059 -0.3357  0.0432
  177MOL   C21142803   7.580   1.877   6.599  0.3440  0.2712 -0.0134
  177MOL   H21242804   7.581   1.839   6.208 -0.3258 -0.6446  1.8028
  177MOL   H21342805   7.463   1.776   6.101 -0.1377  1.7826  0.7120
  177MOL   H21442806   7.500   1.609   6.337  1.3825  1.0303 -1.2865
  177MOL   H21542807   7.662   1.948   6.593  1.5504 -1.1523 -0.7270
  177MOL   H21642808   7.600   1.816   6.688  1.0038  0.6585  0.1074
  177MOL   H21742809   7.489   1.932   6.623 -0.6972 -2.4740  2.6834
  177MOL   C21842810   7.303   1.654   6.256  0.5105  0.2741 -0.2090
  177MOL   C21942811   7.290   1.514   6.192  0.5534  0.3983 -0.0221
  177MOL   C22042812   7.304   1.399   6.290 -1.5497 -0.7526 -0.2974
  177MOL   O22142813   7.299   1.418   6.410 -0.5508 -0.1825  0.5311
  177MOL   O22242814   7.344   1.277   6.227 -1.1028  0.0848 -0.3961
  177MOL   C22342815   7.349   1.159   6.305  0.3231  0.0111 -0.0339
  177MOL   H22442816   7.244   1.651   6.347 -0.1753 -0.5583 -0.6712
  177MOL   H22542817   7.254   1.736   6.203  0.2222 -1.0707 -2.0654
  177MOL   H22642818   7.368   1.499   6.117 -0.1856  0.3805 -0.8000
  177MOL   H22742819   7.455   1.140   6.320  0.3052 -0.9578 -1.0863
  177MOL   H22842820   7.294   1.078   6.257  1.2372  0.1882 -1.3895
  177MOL   H22942821   7.307   1.178   6.404  2.1072  0.6353  0.6204
  177MOL   C23042822   7.157   1.496   6.116  0.2577 -1.2338 -0.9715
  177MOL   C23142823   7.165   1.526   5.963  0.2605  0.1343 -0.4517
  177MOL   C23242824   7.225   1.416   5.872  0.0185  0.5645 -0.6579
  177MOL   O23342825   7.345   1.391   5.870 -0.4697 -0.2950 -0.0739
  177MOL   O23442826   7.129   1.353   5.797 -0.4567  0.2962  0.0627
  177MOL   C23542827   7.178   1.240   5.720  0.3780 -0.2077 -0.0850
  177MOL   H23642828   7.106   1.400   6.125 -0.5084 -0.6267  1.8805
  177MOL   H23742829   7.088   1.570   6.157 -0.6455 -1.4585 -2.0817
  177MOL   H23842830   7.201   1.627   5.945 -0.2109  0.9271  2.8055
  177MOL   H23942831   7.100   1.226   5.646  0.4320  1.1519 -0.4085
  177MOL   H24042832   7.178   1.154   5.788  0.1070  1.3033  1.8826
  177MOL   H24142833   7.277   1.247   5.675  0.5659 -2.0465 -0.0057
  177MOL   H24242834   7.060   1.543   5.936 -0.2680 -0.9427  0.8892
  178MOL     C142835   4.019   6.049   0.015  0.2067  0.0072  0.4116
  178MOL     C242836   3.913   5.943   0.048 -0.1238  0.5740 -0.0912
  178MOL     C342837   3.892   5.840   7.869  0.0123  0.2945 -0.3787
  178MOL     O442838   3.778   5.817   7.826  0.1015 -0.1687  0.3011
  178MOL     O542839   4.001   5.769   7.828 -0.3577 -0.3018  0.3304
  178MOL     C642840   3.981   5.679   7.716 -0.0108 -0.7528  0.5248
  178MOL     H742841   4.007   6.071   7.841  0.7207  0.7218  0.4952
  178MOL     H842842   4.123   6.024   0.034  0.5029  2.5078  2.4059
  178MOL     H942843   3.819   5.998   0.052 -0.2261  0.2901  1.5974
  178MOL    H1042844   3.904   5.608   7.748 -0.8585  0.6365  1.6399
  178MOL    H1142845   4.073   5.626   7.693 -0.7636 -2.1644  0.6792
  178MOL    H1242846   3.945   5.722   7.623  0.8840  0.0281  0.5351
  178MOL    H1342847   3.999   6.144   0.065  1.0624  0.0305  0.7196
  178MOL    C1442848   3.922   5.876   0.184 -0.7058  0.0666 -0.9190
  178MOL    C1542849   3.915   5.972   0.310  0.1224 -0.0386 -1.1031
  178MOL    C1642850   3.768   6.024   0.336  0.0525  0.8032  0.4109
  178MOL    O1742851   3.701   5.999   0.429 -0.7167  0.1034  0.1537
  178MOL    O1842852   3.726   6.096   0.233  0.2944  0.8009  0.7580
  178MOL    C1942853   3.592   6.131   0.235  0.3926 -0.1032  0.1261
  178MOL    H2042854   3.844   5.799   0.188  0.8161 -1.4845 -0.6651
  178MOL    H2142855   4.007   5.808   0.189 -1.1445 -0.3190  2.0082
  178MOL    H2242856   3.974   6.062   0.296 -0.1097  0.1626 -0.8003
  178MOL    H2342857   3.531   6.042   0.250 -1.7778  1.3402  0.1408
  178MOL    H2442858   3.545   6.170   0.144  0.4538  0.1319  0.1947
  178MOL    H2542859   3.567   6.192   0.322 -1.5882  0.4025 -0.7715
  178MOL    C2642860   3.975   5.907   0.435  0.4436  0.0772  0.7212
  178MOL    C2742861   3.998   5.986   0.571 -0.2576  0.0675  0.2937
  178MOL    C2842862   4.050   5.892   0.680 -0.2132 -0.5501  0.5384
  178MOL    O2942863   4.165   5.853   0.675  0.4606  0.2195 -0.5011
  178MOL    O3042864   3.953   5.861   0.765 -0.0839 -0.1908 -0.3657
  178MOL    C3142865   3.971   5.768   0.868  0.3379  0.6510 -0.9799
  178MOL    H3242866   3.922   5.814   0.455  1.7335 -1.2400 -1.7771
  178MOL    H3342867   4.079   5.883   0.414 -0.1566 -1.1275 -1.0291
  178MOL    H3442868   3.894   6.005   0.599 -0.4058 -0.9236  0.4621
  178MOL    H3542869   3.980   5.672   0.816 -0.9793 -1.3469  2.2518
  178MOL    H3642870   3.875   5.755   0.919  0.9270 -2.1872 -0.4963
  178MOL    H3742871   4.047   5.783   0.945 -1.2089  1.3799  0.4306
  178MOL    C3842872   4.072   6.124   0.561  0.0052 -0.2875  0.6793
  178MOL    C3942873   4.212   6.125   0.494 -0.4579 -0.0851 -0.3905
  178MOL    C4042874   4.217   6.186   0.350 -0.3868  0.7775 -0.0232
  178MOL    O4142875   4.146   6.281   0.318  0.7755 -0.5276 -0.1433
  178MOL    O4242876   4.306   6.124   0.264  0.4413 -0.5411  0.4889
  178MOL    C4342877   4.328   6.174   0.134 -0.2372 -0.2216  0.0318
  178MOL    H4442878   4.006   6.194   0.509  0.5083  0.6825  1.3214
  178MOL    H4542879   4.085   6.175   0.656  0.0050  0.8757  0.0650
  178MOL    H4642880   4.248   6.022   0.488  0.5018  0.2988 -1.6452
  178MOL    H4742881   4.381   6.269   0.135 -0.6664  0.0321 -0.9840
  178MOL    H4842882   4.238   6.195   0.076 -0.2913  2.4454  0.9851
  178MOL    H4942883   4.395   6.111   0.076  0.5935  1.2595 -0.6457
  178MOL    C5042884   4.316   6.192   0.587  0.1123 -0.4870  0.2222
  178MOL    C5142885   4.461   6.202   0.538 -0.2939  0.3235  0.0962
  178MOL    C5242886   4.545   6.301   0.628 -0.1213  0.1735  0.5417
  178MOL    O5342887   4.619   6.382   0.573 -0.5772  0.4438 -0.0668
  178MOL    O5442888   4.527   6.280   0.754  0.0612  0.6956 -0.3482
  178MOL    C5542889   4.597   6.366   0.848  0.8918 -0.4568  0.0609
  178MOL    H5642890   4.282   6.294   0.604  3.0113  0.5122  0.1954
  178MOL    H5742891   4.316   6.151   0.688  2.4092 -0.1668  0.3784
  178MOL    H5842892   4.463   6.259   0.445 -0.3045 -0.0121 -0.1092
  178MOL    H5942893   4.541   6.459   0.857  1.7037  0.2331 -1.7400
  178MOL    H6042894   4.699   6.394   0.821  1.4510  0.0872  2.6141
  178MOL    H6142895   4.599   6.320   0.946  2.1346 -0.3337  0.0952
  178MOL    C6242896   4.519   6.052   0.519 -0.0027  0.2719 -0.5911
  178MOL    C6342897   4.581   6.012   0.385  0.0238 -0.3730  0.1828
  178MOL    C6442898   4.683   6.117   0.342 -0.5018  0.3989  0.0285
  178MOL    O6542899   4.795   6.119   0.387  0.5808  0.3219 -0.8748
  178MOL    O6642900   4.632   6.209   0.261 -0.8746  0.5275 -0.0678
  178MOL    C6742901   4.703   6.329   0.258  0.2819  0.1337  1.3253
  178MOL    H6842902   4.590   6.039   0.601 -2.0389  1.1805  1.3713
  178MOL    H6942903   4.441   5.981   0.547  0.5605  0.3597  1.2586
  178MOL    H7042904   4.503   6.005   0.309  0.1381  2.8508 -0.3278
  178MOL    H7142905   4.667   6.392   0.176  3.6609  2.2669  1.3884
  178MOL    H7242906   4.806   6.305   0.232 -0.6834 -1.2229 -1.3926
  178MOL    H7342907   4.709   6.383   0.353  0.5083  0.4621  1.1246
  178MOL    C7442908   4.644   5.874   0.380 -0.1386 -0.1183 -0.4976
  178MOL    C7542909   4.555   5.754   0.429  0.5897 -0.6306  0.2883
  178MOL    C7642910   4.431   5.733   0.336  0.6648  0.5028  0.0300
  178MOL    O7742911   4.423   5.776   0.219  0.4687  0.1966 -0.0888
  178MOL    O7842912   4.339   5.656   0.399 -0.0795 -0.1218 -0.4119
  178MOL    C7942913   4.214   5.633   0.334  0.1308  0.9289 -0.0173
  178MOL    H8042914   4.667   5.868   0.274  0.4978  2.0495 -0.4970
  178MOL    H8142915   4.734   5.875   0.441 -0.7946  1.2711  0.4688
  178MOL    H8242916   4.505   5.787   0.520 -1.3750  3.2338 -2.0723
  178MOL    H8342917   4.142   5.693   0.390  0.7814  3.0691 -1.3889
  178MOL    H8442918   4.188   5.532   0.364  1.0832  0.7728  0.3156
  178MOL    H8542919   4.208   5.659   0.229  1.1801  3.9446  0.5862
  178MOL    C8642920   4.625   5.621   0.466 -0.1974 -0.3615  0.1492
  178MOL    C8742921   4.718   5.630   0.592  0.2074  0.4235  0.2781
  178MOL    C8842922   4.632   5.649   0.715 -0.1690 -0.9367 -0.3248
  178MOL    O8942923   4.557   5.557   0.746 -0.0412 -0.3513  0.0707
  178MOL    O9042924   4.655   5.760   0.783 -0.3110  0.3035  0.0716
  178MOL    C9142925   4.584   5.774   0.912  0.2303  0.7042  0.0241
  178MOL    H9242926   4.553   5.542   0.487 -0.7935 -0.0852 -0.8416
  178MOL    H9342927   4.679   5.590   0.377 -1.3412  0.3464 -0.8221
  178MOL    H9442928   4.778   5.720   0.579  1.1604 -0.4061 -1.3891
  178MOL    H9542929   4.644   5.841   0.974 -1.4366  0.3300  2.1280
  178MOL    H9642930   4.571   5.675   0.956  0.5594  0.4178 -0.5234
  178MOL    H9742931   4.489   5.823   0.890 -0.3631 -0.6812 -0.5405
  178MOL    C9842932   4.816   5.511   0.604 -0.8680  0.2851 -0.5539
  178MOL    C9942933   4.953   5.540   0.673  0.1322 -0.0292 -0.4387
  178MOL   C10042934   5.046   5.635   0.587  0.0341  0.1369 -1.1264
  178MOL   O10142935   5.143   5.581   0.529  0.0234 -0.3520 -0.1709
  178MOL   O10242936   5.005   5.760   0.573 -0.6891 -0.7593 -0.2048
  178MOL   C10342937   5.073   5.845   0.478  0.6387 -0.2937 -0.5218
  178MOL   H10442938   4.777   5.421   0.651 -1.2507  0.1904 -1.0481
  178MOL   H10542939   4.845   5.475   0.506  4.0835 -2.2056  1.6314
  178MOL   H10642940   5.002   5.443   0.678 -0.7855 -0.4667  0.4215
  178MOL   H10742941   5.167   5.889   0.510  0.4429 -0.3321  0.1110
  178MOL   H10842942   5.010   5.931   0.458 -0.8251 -1.4602 -0.9769
  178MOL   H10942943   5.084   5.793   0.383  2.4657 -0.7063 -0.1205
  178MOL   C11042944   4.946   5.582   0.821  0.0463 -0.0622  0.1709
  178MOL   C11142945   5.050   5.512   0.911 -0.5249 -0.2935 -0.4690
  178MOL   C11242946   5.051   5.581   1.046  0.2250  0.5305  0.1981
  178MOL   O11342947   4.951   5.633   1.094 -0.3376 -0.0025  0.0448
  178MOL   O11442948   5.173   5.575   1.104 -0.1256 -0.7993  0.8578
  178MOL   C11542949   5.181   5.641   1.228 -0.6658 -0.0766  0.3891
  178MOL   H11642950   4.969   5.687   0.841 -0.1083 -0.1740  0.9589
  178MOL   H11742951   4.847   5.555   0.859 -0.5275  1.1279 -0.4529
  178MOL   H11842952   5.145   5.532   0.863 -1.2258 -0.1620 -1.8205
  178MOL   H11942953   5.128   5.588   1.308 -2.2866  0.3857 -0.3541
  178MOL   H12042954   5.141   5.742   1.222 -0.6325 -0.1327 -0.8723
  178MOL   H12142955   5.282   5.653   1.266 -1.3266 -1.2934  2.6309
  178MOL   C12242956   5.035   5.360   0.935  0.2126  0.8783 -0.6557
  178MOL   C12342957   5.167   5.295   0.971 -0.3369 -0.0208 -0.1135
  178MOL   C12442958   5.143   5.175   1.067  0.8646 -0.1790  0.1533
  178MOL   O12542959   5.123   5.067   1.020 -0.2445  0.5465  0.5342
  178MOL   O12642960   5.154   5.208   1.189 -0.2226 -0.1627 -0.5434
  178MOL   C12742961   5.153   5.110   1.291 -0.7805 -0.4851  0.4308
  178MOL   H12842962   4.969   5.343   1.020 -1.3549 -1.5324 -2.2800
  178MOL   H12942963   4.984   5.313   0.850  0.1526 -0.3069  0.0200
  178MOL   H13042964   5.227   5.369   1.023  0.9039 -1.6885  0.8877
  178MOL   H13142965   5.117   5.015   1.252  0.4159 -1.3915  1.4771
  178MOL   H13242966   5.120   5.134   1.392  0.2335  1.4258  0.3306
  178MOL   H13342967   5.259   5.095   1.315 -0.0279  3.2923 -0.1768
  178MOL   C13442968   5.240   5.254   0.839  0.5674 -0.3959  0.4214
  178MOL   C13542969   5.370   5.173   0.838 -0.0874 -1.0029 -0.0534
  178MOL   C13642970   5.416   5.127   0.698  0.0501  0.3796  0.3671
  178MOL   O13742971   5.487   5.195   0.631 -0.5204 -0.0270  0.2773
  178MOL   O13842972   5.357   5.012   0.664 -0.4664  0.4730  0.0683
  178MOL   C13942973   5.387   4.930   0.542  0.4727 -0.0253  0.4567
  178MOL   H14042974   5.159   5.209   0.781  0.6656  0.7714 -0.6777
  178MOL   H14142975   5.254   5.352   0.792 -0.8809 -0.4717 -0.2009
  178MOL   H14242976   5.334   5.088   0.896  1.1334 -1.3952  0.1463
  178MOL   H14342977   5.305   4.858   0.530  2.9577 -2.3774 -3.4113
  178MOL   H14442978   5.479   4.877   0.567  1.4260  1.3127 -0.1844
  178MOL   H14542979   5.390   4.994   0.455 -0.9673  1.0181  1.1504
  178MOL   C14642980   5.491   5.239   0.907  0.0238 -0.1734 -0.1102
  178MOL   C14742981   5.508   5.208   1.061  0.0830 -0.5026 -0.3387
  178MOL   C14842982   5.571   5.071   1.087 -0.0807 -0.4341  0.2271
  178MOL   O14942983   5.504   4.973   1.119  0.1874 -0.8316 -0.2220
  178MOL   O15042984   5.701   5.071   1.075 -0.4076 -0.1529 -0.4029
  178MOL   C15142985   5.781   4.955   1.102 -0.3300  0.7926 -0.6577
  178MOL   H15242986   5.577   5.188   0.863 -0.0943 -1.2179  0.8712
  178MOL   H15342987   5.491   5.347   0.895 -2.0490 -0.0586  0.6672
  178MOL   H15442988   5.405   5.207   1.096  0.1616 -0.4736 -0.1047
  178MOL   H15542989   5.745   4.864   1.054  2.1418 -0.5413 -0.0983
  178MOL   H15642990   5.799   4.939   1.209 -1.6721 -0.8165 -0.6380
  178MOL   H15742991   5.874   4.987   1.055  0.7559 -0.0542  0.8474
  178MOL   C15842992   5.602   5.315   1.125  0.2950  0.1146  0.5273
  178MOL   C15942993   5.533   5.447   1.174 -0.6279 -0.4161 -0.7949
  178MOL   C16042994   5.480   5.423   1.317  0.1731  0.1547  0.0766
  178MOL   O16142995   5.471   5.521   1.394  0.0466 -0.2880 -0.0156
  178MOL   O16242996   5.446   5.301   1.346 -0.1617  0.3045  0.2022
  178MOL   C16342997   5.409   5.262   1.475  0.3204  0.2004 -0.6494
  178MOL   H16442998   5.654   5.268   1.208  0.3930  1.0892  1.0277
  178MOL   H16542999   5.674   5.342   1.047  2.7575 -2.0800  1.9638
  178MOL   H16643000   5.450   5.462   1.105  1.2898  2.3004 -2.5914
  178MOL   H16743001   5.461   5.309   1.558 -1.4308  0.5558  0.2703
  178MOL   H16843002   5.438   5.157   1.478 -1.0759 -0.1606  1.2892
  178MOL   H16943003   5.301   5.246   1.487  0.2188 -0.8063 -2.6834
  178MOL   C17043004   5.620   5.578   1.161  0.2457  0.6455  0.1880
  178MOL   C17143005   5.621   5.635   1.011  0.7811  0.3499  0.1779
  178MOL   C17243006   5.488   5.700   0.965 -0.6562 -0.2713  0.2371
  178MOL   O17343007   5.401   5.627   0.909  0.2236 -1.0118  0.3862
  178MOL   O17443008   5.465   5.825   1.002  0.1851 -0.0293 -0.1924
  178MOL   C17543009   5.340   5.886   0.996  0.1973 -0.4533 -0.2640
  178MOL   H17643010   5.564   5.657   1.211 -3.5087 -0.4471 -2.0986
  178MOL   H17743011   5.722   5.570   1.197 -0.3515  1.2048  2.0746
  178MOL   H17843012   5.625   5.540   0.958 -0.5754  0.2184  0.3027
  178MOL   H17943013   5.276   5.863   1.081  0.6842 -1.5666 -0.1970
  178MOL   H18043014   5.295   5.872   0.898  2.1769 -0.6948 -1.1773
  178MOL   H18143015   5.361   5.993   1.000 -1.2906 -0.1634  0.0799
  178MOL   C18243016   5.744   5.720   0.986 -0.4578 -0.4575  0.0445
  178MOL   C18343017   5.868   5.632   0.952  0.7327 -0.6647 -0.0086
  178MOL   C18443018   5.866   5.594   0.805  0.0674  0.6006  0.6500
  178MOL   O18543019   5.903   5.478   0.757  0.2964  0.1069  0.2175
  178MOL   O18643020   5.827   5.687   0.725  0.2439 -0.3927 -0.9575
  178MOL   C18743021   5.803   5.648   0.594  0.5767  0.5534  0.4116
  178MOL   H18843022   5.732   5.814   0.931 -1.6503 -0.3816  0.4304
  178MOL   H18943023   5.774   5.763   1.081  0.6690 -4.0609  1.3922
  178MOL   H19043024   5.879   5.541   1.011 -2.0332 -1.4843 -0.6891
  178MOL   H19143025   5.721   5.576   0.590  0.5187  0.6893 -0.8624
  178MOL   H19243026   5.889   5.593   0.554  0.8297  1.0969  0.2128
  178MOL   H19343027   5.769   5.732   0.535 -1.3306 -0.1030  0.5606
  178MOL   C19443028   5.997   5.713   0.992 -0.2014 -0.0336 -0.3330
  178MOL   C19543029   6.137   5.651   0.946 -0.0421 -0.0210  0.0750
  178MOL   C19643030   6.208   5.732   0.840 -0.5740  0.1368 -0.0474
  178MOL   O19743031   6.319   5.775   0.863 -0.5165 -0.1799  0.1107
  178MOL   O19843032   6.139   5.748   0.732  0.0444  0.3463 -0.4775
  178MOL   C19943033   6.195   5.801   0.623 -0.2383  0.1089 -0.0957
  178MOL   H20043034   6.006   5.814   0.953 -2.2805  0.6468  0.8670
  178MOL   H20143035   6.001   5.737   1.099 -0.0954  3.4050 -1.0569
  178MOL   H20243036   6.106   5.560   0.895 -0.0676 -0.1018  0.2365
  178MOL   H20343037   6.297   5.766   0.608  0.0332  0.6718  0.3989
  178MOL   H20443038   6.190   5.910   0.632 -0.2325  0.1126 -0.1428
  178MOL   H20543039   6.137   5.779   0.534  0.8747  0.9211 -1.0282
  178MOL   C20643040   6.233   5.609   1.053 -1.0787 -0.2253 -0.0567
  178MOL   C20743041   6.186   5.486   1.125 -0.1323 -0.1110  0.8122
  178MOL   C20843042   6.157   5.363   1.035  0.5062  0.1416 -0.2664
  178MOL   O20943043   6.242   5.307   0.960  0.2048  0.0059 -0.0381
  178MOL   O21043044   6.032   5.334   1.039  0.4855 -0.4355  0.9015
  178MOL   C21143045   5.990   5.232   0.946  0.7385 -0.4769  0.0266
  178MOL   H21243046   6.327   5.577   1.010 -0.4671  0.4722  0.7528
  178MOL   H21343047   6.260   5.697   1.112  1.3270  0.8790 -2.7096
  178MOL   H21443048   6.099   5.511   1.187 -0.2572 -0.8030  0.9102
  178MOL   H21543049   6.019   5.137   0.990  0.3096 -0.3147  0.6610
  178MOL   H21643050   6.030   5.237   0.844 -1.5792 -1.0032 -0.9296
  178MOL   H21743051   5.881   5.232   0.942  0.7161  1.1633  0.3634
  178MOL   C21843052   6.285   5.444   1.240 -0.2531  0.4691 -0.3402
  178MOL   C21943053   6.213   5.433   1.374 -0.9494 -0.0704  0.3912
  178MOL   C22043054   6.102   5.328   1.391  0.8494 -0.3819 -0.2939
  178MOL   O22143055   5.987   5.364   1.420 -0.1223  0.1307 -0.0783
  178MOL   O22243056   6.147   5.201   1.368  0.0171  0.8614 -0.4039
  178MOL   C22343057   6.049   5.094   1.359 -0.1040 -0.0733  0.0402
  178MOL   H22443058   6.334   5.349   1.219  0.1729  0.4478  0.7309
  178MOL   H22543059   6.370   5.511   1.251 -0.8357  0.9109  1.5803
  178MOL   H22643060   6.156   5.525   1.384  1.3321  1.3513  0.8257
  178MOL   H22743061   5.979   5.113   1.441 -0.2885 -0.2757 -0.0672
  178MOL   H22843062   6.104   5.002   1.381  1.7187  0.3684 -2.5431
  178MOL   H22943063   6.001   5.095   1.261 -1.2403 -2.1015  0.5284
  178MOL   C23043064   6.316   5.453   1.485  0.2105  0.9823  0.3387
  178MOL   C23143065   6.407   5.335   1.507 -0.0842 -0.1006  0.4447
  178MOL   C23243066   6.358   5.220   1.600  0.2587  0.2946  0.5794
  178MOL   O23343067   6.245   5.224   1.653  0.2742  0.4727  0.4862
  178MOL   O23443068   6.460   5.135   1.630 -0.3269 -0.2313  0.0467
  178MOL   C23543069   6.437   5.028   1.728 -0.1646 -0.5164  0.1096
  178MOL   H23643070   6.381   5.538   1.465  0.6118  0.3406 -1.1130
  178MOL   H23743071   6.270   5.478   1.581 -0.4715 -0.8858  0.5233
  178MOL   H23843072   6.505   5.373   1.537  0.3164 -2.3363  2.1227
  178MOL   H23943073   6.360   4.962   1.688 -2.1570  1.6780  0.2443
  178MOL   H24043074   6.392   5.065   1.820 -0.3373 -1.6484  0.4814
  178MOL   H24143075   6.521   4.959   1.735  1.1989  1.0435 -0.4584
  178MOL   H24243076   6.429   5.288   1.412 -1.6228 -0.8806  0.4679
  179MOL     C143077   3.996   6.670   2.838 -0.5467 -0.1792 -0.1670
  179MOL     C243078   3.950   6.819   2.846 -0.1164 -0.5994  0.5237
  179MOL     C343079   3.997   6.879   2.978  0.2293  0.3912 -0.0065
  179MOL     O443080   4.111   6.929   2.998 -0.3046 -0.3909 -0.3451
  179MOL     O543081   3.899   6.862   3.064  0.1065 -0.1051  0.1062
  179MOL     C643082   3.927   6.924   3.192 -0.9747 -0.4638  0.0141
  179MOL     H743083   4.103   6.657   2.850 -0.3150  2.4385  1.0196
  179MOL     H843084   3.962   6.628   2.744  1.0479  0.2247 -0.9283
  179MOL     H943085   3.841   6.826   2.847 -0.0871  0.0637 -0.5566
  179MOL    H1043086   3.836   6.920   3.252 -1.2338 -3.0973 -0.4905
  179MOL    H1143087   3.968   7.024   3.194 -0.9446 -0.4833  3.9959
  179MOL    H1243088   3.995   6.860   3.249 -1.1055  1.2577  2.1946
  179MOL    H1343089   3.942   6.619   2.918  0.1145 -1.1606 -0.3418
  179MOL    C1443090   4.016   6.909   2.734  0.3235 -0.0631  0.6944
  179MOL    C1543091   3.969   6.886   2.586  1.1828 -0.0628 -0.5714
  179MOL    C1643092   3.814   6.903   2.566  0.3250  0.1372  0.4087
  179MOL    O1743093   3.742   6.808   2.548  0.1928  0.3191  0.1743
  179MOL    O1843094   3.767   7.033   2.574 -0.0207  0.5395  0.6280
  179MOL    C1943095   3.627   7.058   2.546  0.7404 -0.1074  0.1051
  179MOL    H2043096   3.995   7.013   2.759 -1.7884 -0.8004  2.1026
  179MOL    H2143097   4.124   6.895   2.731  0.0924 -2.0284  1.3691
  179MOL    H2243098   3.994   6.783   2.562  0.6269 -0.5535  0.8735
  179MOL    H2343099   3.571   7.021   2.631  0.4164 -0.5739 -0.3053
  179MOL    H2443100   3.601   7.003   2.455  2.2874 -3.5733  1.6703
  179MOL    H2543101   3.625   7.167   2.542  0.6448 -0.0413  1.7019
  179MOL    C2643102   4.056   6.973   2.499 -0.2924 -0.0717 -0.3609
  179MOL    C2743103   4.033   6.993   2.343  0.9939 -0.9836  0.1910
  179MOL    C2843104   4.014   6.857   2.279 -0.0943 -0.2680 -0.1348
  179MOL    O2943105   4.113   6.788   2.244 -0.2454  0.5831  0.1187
  179MOL    O3043106   3.894   6.815   2.280  0.4954  0.2950  0.6568
  179MOL    C3143107   3.863   6.687   2.232 -0.2684 -0.2675 -0.2178
  179MOL    H3243108   4.062   7.067   2.553 -0.4144 -0.3057  0.0645
  179MOL    H3343109   4.157   6.934   2.508  1.1761  3.6909  0.4524
  179MOL    H3443110   4.120   7.049   2.308  1.0887 -0.9347  0.5064
  179MOL    H3543111   3.884   6.668   2.126  1.8773  0.3122  0.0709
  179MOL    H3643112   3.754   6.680   2.239 -0.3242  0.9667  0.2558
  179MOL    H3743113   3.919   6.607   2.280  0.1722  0.0785 -0.1508
  179MOL    C3843114   3.906   7.086   2.303 -0.1083  0.0567  0.0831
  179MOL    C3943115   3.925   7.156   2.163 -0.3842  0.3850 -0.0027
  179MOL    C4043116   3.880   7.059   2.052 -0.1601  0.7508  0.3195
  179MOL    O4143117   3.963   7.028   1.968 -0.5578  0.5825  0.3384
  179MOL    O4243118   3.754   7.016   2.051 -0.3151 -0.3359 -0.3904
  179MOL    C4343119   3.732   6.906   1.964  0.1357 -0.1241  0.3249
  179MOL    H4443120   3.811   7.035   2.314  0.5578 -1.4612 -1.0508
  179MOL    H4543121   3.897   7.164   2.378 -2.0599  0.8691 -0.9544
  179MOL    H4643122   4.027   7.189   2.146 -0.2600 -0.2392 -0.4720
  179MOL    H4743123   3.817   6.839   1.977 -1.0501 -1.3897  1.8119
  179MOL    H4843124   3.721   6.927   1.857  1.0570  0.9412  0.4378
  179MOL    H4943125   3.639   6.854   1.990  0.1037 -0.0715  0.3153
  179MOL    C5043126   3.839   7.287   2.151  0.6540  1.2794  0.2438
  179MOL    C5143127   3.906   7.412   2.215  0.0306 -0.7591 -0.5838
  179MOL    C5243128   3.934   7.515   2.104 -0.2707  0.1714  0.5130
  179MOL    O5343129   4.042   7.511   2.048  0.5399  0.1963  0.7946
  179MOL    O5443130   3.822   7.587   2.074  0.1130  0.2060 -0.1593
  179MOL    C5543131   3.834   7.685   1.980  0.4565  0.2475 -0.1803
  179MOL    H5643132   3.814   7.315   2.048 -4.2517 -0.2474  0.8907
  179MOL    H5743133   3.740   7.271   2.192 -0.3828  1.1019 -2.2417
  179MOL    H5843134   4.006   7.378   2.244 -0.2732 -1.7158 -0.6576
  179MOL    H5943135   3.924   7.744   1.997  0.7513 -0.3336  0.3445
  179MOL    H6043136   3.760   7.762   1.997 -0.1048  0.1420 -2.1060
  179MOL    H6143137   3.837   7.641   1.881  0.0300  0.8139 -0.4429
  179MOL    C6243138   3.846   7.472   2.346  0.2995 -0.0865  0.5183
  179MOL    C6343139   3.918   7.591   2.406 -0.0700 -0.8064 -0.4526
  179MOL    C6443140   3.814   7.705   2.430  0.0693 -0.6651 -0.2149
  179MOL    O6543141   3.774   7.735   2.545 -0.7806 -0.3260  0.0982
  179MOL    O6643142   3.780   7.771   2.315 -0.0198  0.2282 -0.4230
  179MOL    C6743143   3.698   7.887   2.329 -0.5521  0.1922 -0.5767
  179MOL    H6843144   3.743   7.504   2.327  1.7075  2.9275 -2.4933
  179MOL    H6943145   3.830   7.391   2.417 -0.5395  0.5557  1.0669
  179MOL    H7043146   3.981   7.635   2.329  0.6607 -2.5883 -0.9139
  179MOL    H7143147   3.753   0.034   2.377 -0.0769 -0.0181 -0.7710
  179MOL    H7243148   3.606   7.868   2.384 -0.2590 -1.9240 -0.7408
  179MOL    H7343149   3.680   7.919   2.226 -2.3097 -0.1350 -0.3830
  179MOL    C7443150   4.028   7.564   2.518 -0.4365 -0.3945  0.2669
  179MOL    C7543151   3.984   7.491   2.646 -0.1713  0.0830 -1.0877
  179MOL    C7643152   4.061   7.368   2.688  0.0595  0.1820  0.9268
  179MOL    O7743153   4.007   7.268   2.723 -0.0727 -0.1886 -0.3679
  179MOL    O7843154   4.195   7.388   2.678  0.5464  0.0217 -0.1232
  179MOL    C7943155   4.282   7.285   2.677 -0.0212  0.1409  0.1059
  179MOL    H8043156   4.105   7.511   2.462 -1.1321  0.4808 -1.5561
  179MOL    H8143157   4.079   7.658   2.536 -0.8291 -0.5462  2.3213
  179MOL    H8243158   3.877   7.472   2.640 -0.4079  1.1736 -0.4817
  179MOL    H8343159   4.382   7.320   2.649 -0.4412  0.9497 -0.4060
  179MOL    H8443160   4.261   7.214   2.598  2.7350 -2.5278  1.6590
  179MOL    H8543161   4.289   7.223   2.767  1.1611 -0.4221 -0.3607
  179MOL    C8643162   3.986   7.606   2.757 -0.8041 -0.3069 -0.0740
  179MOL    C8743163   3.925   7.563   2.896  0.2967  0.0147  0.4029
  179MOL    C8843164   3.998   7.623   3.014 -0.1180 -0.6619  0.5510
  179MOL    O8943165   3.957   7.720   3.083 -0.1806  0.6600  0.2133
  179MOL    O9043166   4.117   7.567   3.032 -0.0261 -0.2609 -0.1388
  179MOL    C9143167   4.209   7.629   3.116 -0.0152  0.2764  0.2748
  179MOL    H9243168   4.089   7.636   2.778 -1.8833  2.6713  1.2497
  179MOL    H9343169   3.954   7.703   2.718 -1.5287 -0.4612  0.1209
  179MOL    H9443170   3.954   7.460   2.913 -2.1525 -0.5804  1.1409
  179MOL    H9543171   4.297   7.567   3.101 -1.2865 -1.3958 -0.4158
  179MOL    H9643172   4.176   7.627   3.220 -0.0390  1.3550  0.2943
  179MOL    H9743173   4.226   7.729   3.076 -0.4897 -0.8298 -2.8019
  179MOL    C9843174   3.766   7.575   2.890  0.3993 -0.3477  1.0476
  179MOL    C9943175   3.682   7.530   3.013 -0.2636 -0.1175  0.5682
  179MOL   C10043176   3.727   7.384   3.055 -0.1442 -0.1899  0.2364
  179MOL   O10143177   3.794   7.365   3.159  0.1692 -0.5769 -0.2936
  179MOL   O10243178   3.696   7.285   2.970 -0.4570 -0.2002  0.5240
  179MOL   C10343179   3.718   7.146   3.009 -0.3132  0.3927 -1.1508
  179MOL   H10443180   3.740   7.677   2.864  0.5806 -0.6122 -0.1908
  179MOL   H10543181   3.729   7.523   2.802 -0.3782 -1.8417  2.2223
  179MOL   H10643182   3.583   7.515   2.968  1.1883  0.5119 -2.9788
  179MOL   H10743183   3.657   7.079   2.949 -0.2908 -1.4038  0.7639
  179MOL   H10843184   3.703   7.133   3.116  0.4477  1.3832 -0.9143
  179MOL   H10943185   3.820   7.112   2.991  0.0455  1.3614 -0.9855
  179MOL   C11043186   3.667   7.632   3.129 -0.0083 -0.0030  0.1120
  179MOL   C11143187   3.527   7.649   3.193  0.2384  0.0641  0.2278
  179MOL   C11243188   3.427   7.693   3.083 -0.1753  0.3663  0.6499
  179MOL   O11343189   3.443   7.798   3.025 -0.5814  0.2874 -0.1990
  179MOL   O11443190   3.323   7.611   3.072  0.0947 -0.4653 -0.1532
  179MOL   C11543191   3.223   7.645   2.973 -0.5330 -0.1073  0.5532
  179MOL   H11643192   3.748   7.610   3.198 -0.4200 -0.5268  0.4295
  179MOL   H11743193   3.691   7.732   3.093 -1.8149  0.5828  0.4413
  179MOL   H11843194   3.539   7.737   3.255  0.3472 -0.8884  1.5759
  179MOL   H11943195   3.277   7.637   2.879  0.5994 -1.5349  1.3114
  179MOL   H12043196   3.192   7.750   2.978 -1.1387 -0.3016  0.9999
  179MOL   H12143197   3.140   7.576   2.956 -1.2973  1.0490 -0.4727
  179MOL   C12243198   3.488   7.527   3.281 -0.2909  0.0004 -0.0930
  179MOL   C12343199   3.569   7.517   3.414 -0.5671  0.0603 -0.0435
  179MOL   C12443200   3.524   7.635   3.503 -1.1797 -0.6584  0.4910
  179MOL   O12543201   3.427   7.620   3.579 -0.1053 -0.0072 -0.2034
  179MOL   O12643202   3.590   7.753   3.480 -0.5727 -0.1637  0.6753
  179MOL   C12743203   3.573   7.869   3.556  0.2145  0.3288 -0.0935
  179MOL   H12843204   3.386   7.546   3.313  0.3657  1.6261  1.1560
  179MOL   H12943205   3.496   7.434   3.225 -1.6895 -1.7905  2.5937
  179MOL   H13043206   3.671   7.524   3.378 -1.1863  1.2582 -1.6279
  179MOL   H13143207   3.467   7.892   3.552 -0.8092 -4.0802 -0.8766
  179MOL   H13243208   3.623   0.027   3.525  1.1618 -0.5720 -1.2553
  179MOL   H13343209   3.592   7.853   3.662  0.4918 -0.6877 -0.2916
  179MOL   C13443210   3.552   7.384   3.479 -0.2271  0.7157  0.2116
  179MOL   C13543211   3.642   7.357   3.604 -0.5622  0.2398  0.3627
  179MOL   C13643212   3.561   7.365   3.737  0.2636  0.0274  0.1944
  179MOL   O13743213   3.599   7.438   3.827  0.2194  0.8532 -0.2193
  179MOL   O13843214   3.451   7.288   3.737 -0.5903 -0.5672  0.6285
  179MOL   C13943215   3.364   7.272   3.847 -0.0027 -0.4193  0.1629
  179MOL   H14043216   3.448   7.363   3.505  0.2613 -1.4371  0.4891
  179MOL   H14143217   3.582   7.310   3.405  2.4264  1.7752  0.1521
  179MOL   H14243218   3.722   7.431   3.613 -0.8489  0.3074  2.5851
  179MOL   H14343219   3.353   7.361   3.909  1.8439  0.0331 -0.1525
  179MOL   H14443220   3.399   7.189   3.909  0.4511 -1.4379 -1.4115
  179MOL   H14543221   3.263   7.251   3.810 -0.2440  0.7797  0.1209
  179MOL   C14643222   3.727   7.229   3.591 -0.5307  0.0907 -0.3719
  179MOL   C14743223   3.841   7.220   3.700  0.3968  0.0994 -0.3808
  179MOL   C14843224   3.820   7.107   3.800 -0.3023 -0.1896 -0.2652
  179MOL   O14943225   3.915   7.036   3.843  0.0939 -0.1278 -0.3527
  179MOL   O15043226   3.689   7.097   3.851  0.4438 -0.4419 -0.3322
  179MOL   C15143227   3.669   7.006   3.964  0.2437 -0.3311  0.4186
  179MOL   H15243228   3.659   7.144   3.598 -0.3101 -0.1722 -1.3437
  179MOL   H15343229   3.774   7.222   3.492  0.0088 -1.0842 -0.0388
  179MOL   H15443230   3.840   7.309   3.763 -0.5738 -0.1784 -0.0017
  179MOL   H15543231   3.669   7.056   4.061 -0.2218  1.0205 -0.2548
  179MOL   H15643232   3.729   6.915   3.957 -1.5384 -1.3168 -2.9692
  179MOL   H15743233   3.573   6.957   3.956  0.1876 -0.0472 -0.8431
  179MOL   C15843234   3.989   7.223   3.639  0.4453  0.0030  0.6668
  179MOL   C15943235   4.022   7.309   3.514  0.8520 -0.2820 -0.3152
  179MOL   C16043236   3.987   7.463   3.541 -0.3569 -0.0362  0.1760
  179MOL   O16143237   3.989   7.509   3.652  0.1742 -0.5589 -0.2137
  179MOL   O16243238   3.947   7.541   3.431 -0.2156  0.0662 -0.2125
  179MOL   C16343239   3.911   7.679   3.435  0.3023  0.3858  0.4116
  179MOL   H16443240   4.060   7.250   3.717 -0.6558  0.0151  1.6828
  179MOL   H16543241   4.014   7.121   3.609 -2.2007 -0.7843  0.9276
  179MOL   H16643242   3.949   7.279   3.439 -0.6899 -0.4469  1.2034
  179MOL   H16743243   3.808   7.684   3.469  0.4916  1.0789  0.8963
  179MOL   H16843244   3.923   7.720   3.335  0.2607  0.1858  0.3246
  179MOL   H16943245   3.969   7.728   3.514 -2.1340 -0.3274  2.7084
  179MOL   C17043246   4.151   7.289   3.442  0.3146  0.5027  0.2897
  179MOL   C17143247   4.276   7.346   3.521 -0.2950 -0.3223  0.5240
  179MOL   C17243248   4.385   7.236   3.552  0.1654 -0.0581 -0.3548
  179MOL   O17343249   4.470   7.204   3.469 -0.3106 -0.4712  0.0708
  179MOL   O17443250   4.362   7.177   3.663  0.6029 -0.3391  0.2662
  179MOL   C17543251   4.428   7.061   3.699 -0.0142 -0.2374  0.0672
  179MOL   H17643252   4.175   7.190   3.402 -1.2845  1.0501 -2.1025
  179MOL   H17743253   4.137   7.354   3.357  0.7953  1.7434  1.1432
  179MOL   H17843254   4.235   7.386   3.614 -1.5764  4.1672 -1.8286
  179MOL   H17943255   4.363   6.980   3.668  0.1828  0.2505 -1.6590
  179MOL   H18043256   4.467   7.063   3.801 -1.1343  2.3246  0.4938
  179MOL   H18143257   4.516   7.046   3.636  0.0801  0.0288  0.1338
  179MOL   C18243258   4.338   7.461   3.444  0.2667  0.0145  0.7354
  179MOL   C18343259   4.442   7.544   3.512  0.9588 -0.9138  0.0598
  179MOL   C18443260   4.515   7.637   3.410 -0.0030 -0.7271 -0.3179
  179MOL   O18543261   4.633   7.614   3.379 -0.0720 -0.0291 -0.7103
  179MOL   O18643262   4.441   7.719   3.331  0.2159  0.0673  0.1759
  179MOL   C18743263   4.507   7.805   3.243  0.3085  0.1027  0.2889
  179MOL   H18843264   4.383   7.404   3.363 -2.6479 -0.5286 -0.5908
  179MOL   H18943265   4.261   7.529   3.407 -0.4051  0.1836  2.4190
  179MOL   H19043266   4.511   7.473   3.556  0.1157 -0.5807  1.9744
  179MOL   H19143267   4.444   7.850   3.166 -1.0270 -2.0709  0.0798
  179MOL   H19243268   4.580   7.756   3.179 -0.4545  1.0733 -1.3475
  179MOL   H19343269   4.557   7.884   3.299  0.4135  0.8587 -0.8622
  179MOL   C19443270   4.383   7.630   3.628  0.1905  0.1019  0.0067
  179MOL   C19543271   4.486   7.714   3.716 -0.0308 -0.3735  0.1148
  179MOL   C19643272   4.412   7.808   3.811  0.0953 -0.5374  0.0706
  179MOL   O19743273   4.290   7.794   3.842 -0.3769  0.1304  0.4588
  179MOL   O19843274   4.485   7.905   3.864 -0.1511 -0.0358 -0.1150
  179MOL   C19943275   4.432   0.056   3.962  0.3525 -0.2577 -0.4423
  179MOL   H20043276   4.297   7.685   3.591  1.8304  1.0610 -2.5995
  179MOL   H20143277   4.333   7.566   3.700  0.8979  0.0010  0.4183
  179MOL   H20243278   4.528   7.785   3.645  1.0799  0.1780  1.2891
  179MOL   H20343279   4.503   0.116   4.020  0.3484 -0.4658 -0.2244
  179MOL   H20443280   4.369   0.008   4.037 -0.5900 -0.9730 -1.6726
  179MOL   H20543281   4.370   0.137   3.922 -0.7225 -0.4638  0.7879
  179MOL   C20643282   4.595   7.629   3.790 -0.0673  0.9674 -0.3195
  179MOL   C20743283   4.730   7.703   3.799 -0.2984 -0.0016 -0.2854
  179MOL   C20843284   4.791   7.689   3.944  0.4004  0.0867 -0.6503
  179MOL   O20943285   4.813   7.793   4.006  0.4558  0.0090 -0.1589
  179MOL   O21043286   4.807   7.564   3.994  0.3759 -0.3176 -0.4005
  179MOL   C21143287   4.855   7.558   4.124 -0.1577  0.4426  0.0485
  179MOL   H21243288   4.566   7.611   3.894 -1.1064  0.2289 -0.7283
  179MOL   H21343289   4.623   7.532   3.750 -1.7485  0.1383  0.4319
  179MOL   H21443290   4.712   7.809   3.782 -1.7081 -0.2499 -0.4278
  179MOL   H21543291   4.791   7.626   4.181  0.2993  0.3426  0.6838
  179MOL   H21643292   4.956   7.596   4.137  0.1620 -0.1540 -0.6435
  179MOL   H21743293   4.844   7.457   4.163 -1.3850  0.3685 -0.4423
  179MOL   C21843294   4.833   7.656   3.696 -0.6546  0.6274 -0.0299
  179MOL   C21943295   4.952   7.757   3.676  0.7268  0.2884 -0.6152
  179MOL   C22043296   5.088   7.698   3.724  0.7387  0.0330  0.1180
  179MOL   O22143297   5.111   7.578   3.744 -0.2101 -0.0320 -0.5021
  179MOL   O22243298   5.184   7.791   3.720 -0.3726 -0.1324  0.2146
  179MOL   C22343299   5.317   7.748   3.737  0.1207 -0.8877  0.1895
  179MOL   H22443300   4.860   7.551   3.708  1.4252  0.8529 -2.1381
  179MOL   H22543301   4.772   7.657   3.606  0.0505  1.9161 -0.5160
  179MOL   H22643302   4.930   7.854   3.719 -0.7387  0.2000 -1.1427
  179MOL   H22743303   5.355   7.752   3.839  0.2451  2.0255  0.0610
  179MOL   H22843304   5.379   7.820   3.684 -1.5215  0.9892  0.7800
  179MOL   H22943305   5.334   7.643   3.714 -0.7801 -1.0635  0.3265
  179MOL   C23043306   4.970   7.797   3.528  0.0686 -0.3148  0.8218
  179MOL   C23143307   5.011   7.684   3.435 -0.2417 -0.4634  0.0205
  179MOL   C23243308   4.978   7.727   3.292  0.1197  0.0233 -0.5417
  179MOL   O23343309   5.000   7.844   3.252 -0.2543  0.1924 -0.0167
  179MOL   O23443310   4.943   7.626   3.211  0.3862  0.1300  0.2904
  179MOL   C23543311   4.934   7.653   3.075 -0.0793 -0.9124 -0.3886
  179MOL   H23643312   4.878   7.844   3.495 -1.5437 -2.3134  2.3975
  179MOL   H23743313   5.061   7.857   3.518  0.2403 -0.1400  3.1090
  179MOL   H23843314   4.948   7.597   3.455 -0.6335 -0.0589  0.5606
  179MOL   H23943315   4.856   7.727   3.060 -0.9752 -1.6782  0.4623
  179MOL   H24043316   4.904   7.570   3.011 -2.8812  0.2430 -0.5988
  179MOL   H24143317   5.030   7.669   3.025 -0.2471 -3.5566 -1.6665
  179MOL   H24243318   5.114   7.651   3.441 -0.5504 -1.0744  2.1327
  180MOL     C143319   1.596   5.803   2.077  0.2906 -0.1454 -0.2087
  180MOL     C243320   1.628   5.949   2.032 -0.7435  0.8447 -0.5899
  180MOL     C343321   1.658   6.043   2.147 -0.0792  0.1502  0.2484
  180MOL     O443322   1.770   6.100   2.154 -0.2714 -0.3044 -0.2264
  180MOL     O543323   1.567   6.047   2.244 -0.6867 -0.2091 -0.0102
  180MOL     C643324   1.587   6.124   2.362 -0.7157  0.3150 -0.0466
  180MOL     H743325   1.534   5.811   2.166  0.0040 -0.8992 -0.3307
  180MOL     H843326   1.689   5.750   2.099  1.6035  2.6006  1.0769
  180MOL     H943327   1.541   5.989   1.980 -1.2296  0.0481 -0.4005
  180MOL    H1043328   1.490   6.127   2.412 -0.4668 -1.4614  0.5526
  180MOL    H1143329   1.600   6.229   2.333  0.7719  0.9877  2.8697
  180MOL    H1243330   1.674   6.096   2.420 -0.0035 -0.1894 -1.3474
  180MOL    H1343331   1.540   5.745   2.004 -0.6437  0.2476  0.1925
  180MOL    C1443332   1.742   5.942   1.927  0.1341 -0.0772 -1.0132
  180MOL    C1543333   1.727   5.853   1.801  0.3382  0.0454 -0.9205
  180MOL    C1643334   1.592   5.855   1.739  0.5125 -0.2215 -0.0702
  180MOL    O1743335   1.507   5.942   1.749  0.4272  0.2624  0.2914
  180MOL    O1843336   1.573   5.750   1.666  0.4845  0.5081 -0.0527
  180MOL    C1943337   1.470   5.739   1.564  0.1028 -0.0557 -0.3897
  180MOL    H2043338   1.754   6.045   1.894  0.6256  0.6931  1.4483
  180MOL    H2143339   1.834   5.916   1.980  1.1196  2.1317 -1.5906
  180MOL    H2243340   1.734   5.748   1.827 -2.0739 -0.0721 -0.6874
  180MOL    H2343341   1.508   5.765   1.465 -3.2529  0.2721 -1.6832
  180MOL    H2443342   1.378   5.795   1.584 -0.3975 -0.5489 -1.2683
  180MOL    H2543343   1.432   5.637   1.556 -1.0973  0.4376 -1.2699
  180MOL    C2643344   1.841   5.872   1.697 -0.3661 -0.0340  0.1421
  180MOL    C2743345   1.982   5.862   1.753  0.5617 -0.4675 -0.2449
  180MOL    C2843346   2.002   5.739   1.839 -0.3642 -0.2041  0.5760
  180MOL    O2943347   2.058   5.758   1.950 -0.1594  0.0893  0.1781
  180MOL    O3043348   1.965   5.622   1.787  0.2277 -0.0887  0.0765
  180MOL    C3143349   1.978   5.503   1.871  0.4530  1.1079  0.9891
  180MOL    H3243350   1.823   5.809   1.610 -0.0428  0.6181 -0.4052
  180MOL    H3343351   1.842   5.976   1.666 -0.1188 -0.0176  0.1983
  180MOL    H3443352   2.001   5.949   1.815  0.7782 -0.3152 -0.5218
  180MOL    H3543353   2.084   5.491   1.892  0.9488 -1.2305 -2.4399
  180MOL    H3643354   1.952   5.409   1.821  1.1612  0.6779  1.4325
  180MOL    H3743355   1.931   5.504   1.970  0.5229 -3.0410  1.1676
  180MOL    C3843356   2.079   5.865   1.630 -0.6156  0.7637 -0.3079
  180MOL    C3943357   2.214   5.942   1.657  0.0499 -0.4741  0.1042
  180MOL    C4043358   2.191   6.086   1.688  0.3372  0.3960  0.1346
  180MOL    O4143359   2.199   6.136   1.798 -0.2953 -0.3235  0.5693
  180MOL    O4243360   2.160   6.159   1.577  0.0037 -0.1592  0.7532
  180MOL    C4343361   2.136   6.300   1.579 -1.1422  0.9580  0.2570
  180MOL    H4443362   2.096   5.761   1.602 -2.5790  0.2058  0.4527
  180MOL    H4543363   2.033   5.898   1.537 -2.7364 -0.7260  0.1822
  180MOL    H4643364   2.264   5.950   1.560 -0.3273 -2.2588 -0.2437
  180MOL    H4743365   2.030   6.327   1.574 -0.7568  2.4654 -0.0303
  180MOL    H4843366   2.173   6.343   1.486  2.6406  0.4127  1.4496
  180MOL    H4943367   2.189   6.355   1.656 -1.6981  0.3306  1.0960
  180MOL    C5043368   2.315   5.867   1.743 -0.1183 -0.7310  0.0927
  180MOL    C5143369   2.452   5.941   1.781  0.5571  0.9566  0.4472
  180MOL    C5243370   2.501   5.899   1.915  0.6121  0.6023  0.0037
  180MOL    O5343371   2.486   5.783   1.950 -0.0581 -0.0475  0.5319
  180MOL    O5443372   2.543   6.005   1.991 -0.0548  0.2247 -0.7492
  180MOL    C5543373   2.584   5.966   2.119 -0.7021  0.1361 -0.4250
  180MOL    H5643374   2.259   5.851   1.835  1.6512 -2.5802  0.8786
  180MOL    H5743375   2.348   5.770   1.705  0.0711 -0.3692 -0.6891
  180MOL    H5843376   2.423   6.045   1.792  1.7377  1.3050  0.3478
  180MOL    H5943377   2.641   6.039   2.177 -0.0384 -0.7193  0.0088
  180MOL    H6043378   2.652   5.882   2.117 -0.8344 -0.0402  1.6463
  180MOL    H6143379   2.501   5.936   2.183 -0.0709  0.5584  0.6189
  180MOL    C6243380   2.558   5.920   1.674 -0.2533 -0.9024 -0.0577
  180MOL    C6343381   2.556   6.028   1.566 -0.1064  0.3155  0.2951
  180MOL    C6443382   2.608   6.166   1.617 -0.3176  0.4247 -0.7295
  180MOL    O6543383   2.727   6.187   1.636 -0.5803  1.1161  0.4509
  180MOL    O6643384   2.509   6.250   1.642 -0.2063 -0.0810  0.0800
  180MOL    C6743385   2.543   6.379   1.692  0.3069 -0.3291  0.3175
  180MOL    H6843386   2.653   5.933   1.726  0.1203  0.1311 -0.9884
  180MOL    H6943387   2.549   5.818   1.636 -1.0595 -0.9785  0.3232
  180MOL    H7043388   2.454   6.036   1.529  0.8006 -0.7799 -2.6053
  180MOL    H7143389   2.454   6.417   1.741 -1.0200  0.7669 -2.8003
  180MOL    H7243390   2.578   6.438   1.607 -1.6133 -2.8864 -2.2921
  180MOL    H7343391   2.617   6.367   1.771  0.7402 -0.4350 -0.0994
  180MOL    C7443392   2.635   5.984   1.441  0.0085  0.1056  0.7303
  180MOL    C7543393   2.576   5.855   1.372 -0.4606  0.3215  0.2865
  180MOL    C7643394   2.431   5.862   1.328  0.5002  0.3692  0.0623
  180MOL    O7743395   2.352   5.783   1.377  0.6638  0.1301 -0.2021
  180MOL    O7843396   2.409   5.945   1.229 -0.4730  0.0821 -0.1754
  180MOL    C7943397   2.289   5.961   1.163 -0.3149 -0.4067 -0.5771
  180MOL    H8043398   2.639   6.071   1.376  2.7353 -1.6406 -1.5111
  180MOL    H8143399   2.739   5.979   1.472  0.7300  1.1419 -1.4612
  180MOL    H8243400   2.570   5.769   1.439  0.0394 -0.7488 -1.0266
  180MOL    H8343401   2.206   5.972   1.233 -0.1378 -0.3553 -0.3748
  180MOL    H8443402   2.258   5.875   1.104  0.0525 -0.5224 -0.6026
  180MOL    H8543403   2.287   6.053   1.104 -0.7871 -0.5833 -0.8446
  180MOL    C8643404   2.667   5.807   1.256 -0.0766  0.0005 -0.2166
  180MOL    C8743405   2.652   5.658   1.206 -0.2076 -0.2537 -0.5623
  180MOL    C8843406   2.540   5.647   1.096 -0.0737 -0.0532  0.0663
  180MOL    O8943407   2.438   5.582   1.119  0.3117 -0.0869  0.1198
  180MOL    O9043408   2.564   5.704   0.979  0.0649 -0.1565 -0.3228
  180MOL    C9143409   2.461   5.712   0.879  0.1668  0.0358  0.1574
  180MOL    H9243410   2.647   5.880   1.177  0.1794  2.6932  2.1051
  180MOL    H9343411   2.770   5.807   1.293 -0.5095  0.5671  1.0241
  180MOL    H9443412   2.646   5.587   1.288  0.5925 -0.4337 -0.6556
  180MOL    H9543413   2.438   5.620   0.824 -2.3664  1.5717 -1.4316
  180MOL    H9643414   2.479   5.797   0.813  3.0973 -1.0490 -0.5168
  180MOL    H9743415   2.359   5.730   0.914  0.4992  1.5900  0.3348
  180MOL    C9843416   2.789   5.620   1.142 -0.3850 -0.3464  0.7913
  180MOL    C9943417   2.910   5.599   1.244  0.5895 -0.0221  0.4461
  180MOL   C10043418   2.901   5.463   1.318  0.3394 -0.3903 -0.7922
  180MOL   O10143419   2.814   5.374   1.284  0.1747 -0.0074 -0.3085
  180MOL   O10243420   2.988   5.465   1.425  0.3136  0.1367  0.2607
  180MOL   C10343421   3.034   5.351   1.498  0.0230 -0.0884  0.5198
  180MOL   H10443422   2.775   5.531   1.081 -0.9430 -0.7220  1.4618
  180MOL   H10543423   2.814   5.692   1.064 -0.5974 -1.1079  0.0108
  180MOL   H10643424   2.914   5.666   1.330  0.9189 -0.8658  1.1001
  180MOL   H10743425   2.959   5.297   1.557 -3.1696  1.9525 -1.5272
  180MOL   H10843426   3.111   5.392   1.563  1.3313 -1.1218 -0.3691
  180MOL   H10943427   3.070   5.284   1.421 -2.1701  1.5416 -2.0137
  180MOL   C11043428   3.043   5.619   1.177 -0.0899 -0.8700 -0.5544
  180MOL   C11143429   3.072   5.763   1.126 -0.6750  0.7066  0.0835
  180MOL   C11243430   3.072   5.864   1.241 -0.1468  0.7317  0.0161
  180MOL   O11343431   3.156   5.860   1.332 -0.2264 -0.7180 -0.8871
  180MOL   O11443432   2.979   5.958   1.223 -0.5836  0.3883 -0.1779
  180MOL   C11543433   2.980   6.069   1.312 -0.3426 -0.0136 -0.8451
  180MOL   H11643434   3.125   5.591   1.244 -0.8852  0.3638  0.9526
  180MOL   H11743435   3.045   5.558   1.087  0.7132 -1.9492  0.1670
  180MOL   H11843436   2.994   5.782   1.052 -1.7543  1.0903  1.3032
  180MOL   H11943437   2.885   6.122   1.315  1.0460  2.5057  0.5640
  180MOL   H12043438   3.061   6.138   1.290  0.2041  0.1301  1.4404
  180MOL   H12143439   3.000   6.049   1.417  1.4101  1.4399 -0.8882
  180MOL   C12243440   3.199   5.767   1.043  0.2557 -0.8997 -0.2075
  180MOL   C12343441   3.199   5.837   0.908  0.3739 -0.2302 -0.2067
  180MOL   C12443442   3.193   5.990   0.933 -0.2324 -0.5750  0.4015
  180MOL   O12543443   3.095   6.056   0.905  0.2718  0.4266 -0.0675
  180MOL   O12643444   3.306   6.039   0.985  0.9178  0.4448  0.0838
  180MOL   C12743445   3.326   6.182   0.997  0.4090  0.1085 -0.1390
  180MOL   H12843446   3.292   5.789   1.095  0.5021 -2.2201 -0.0650
  180MOL   H12943447   3.227   5.665   1.017  1.2346 -2.0227  4.7703
  180MOL   H13043448   3.105   5.806   0.862  1.9147 -1.2315 -2.7715
  180MOL   H13143449   3.257   6.222   1.071 -0.6998 -0.6937 -0.7216
  180MOL   H13243450   3.294   6.235   0.907 -0.8051 -0.4045 -0.0291
  180MOL   H13343451   3.430   6.199   1.023  0.3402  0.1198  0.1354
  180MOL   C13443452   3.311   5.797   0.800  0.9875  0.5510  0.1695
  180MOL   C13543453   3.267   5.746   0.660 -0.1275  0.2758  0.2039
  180MOL   C13643454   3.182   5.615   0.657 -0.7427 -0.2530  0.0690
  180MOL   O13743455   3.135   5.569   0.760 -0.1846  0.4213 -0.3130
  180MOL   O13843456   3.180   5.544   0.541 -0.2349 -0.4589  0.0567
  180MOL   C13943457   3.147   5.409   0.539  0.1603  0.2113 -0.8272
  180MOL   H14043458   3.388   5.873   0.793  0.8051  0.8581  1.2867
  180MOL   H14143459   3.363   5.716   0.853  2.3119 -0.0788 -2.0420
  180MOL   H14243460   3.364   5.720   0.619 -0.5349  0.5578 -0.9502
  180MOL   H14343461   3.179   5.365   0.444  0.2695 -1.1647 -0.1702
  180MOL   H14443462   3.040   5.390   0.541  0.2527 -0.4148 -1.4790
  180MOL   H14543463   3.186   5.354   0.625 -1.8952 -0.3226 -0.2038
  180MOL   C14643464   3.212   5.859   0.575 -0.0512  0.3752 -0.5156
  180MOL   C14743465   3.209   5.834   0.425 -0.1496 -0.1586 -0.8559
  180MOL   C14843466   3.093   5.901   0.358  0.8228  0.1427 -0.3721
  180MOL   O14943467   3.088   6.021   0.337  0.0634 -0.7146  0.5880
  180MOL   O15043468   3.000   5.812   0.320  0.4190  0.3371 -0.0544
  180MOL   C15143469   2.884   5.854   0.247  0.2756 -0.3793 -0.8176
  180MOL   H15243470   3.115   5.893   0.610 -0.2765  0.9691 -1.7104
  180MOL   H15343471   3.273   5.950   0.581 -0.6445  0.8008 -0.8816
  180MOL   H15443472   3.188   5.728   0.413 -0.8095 -0.1551  0.1400
  180MOL   H15543473   2.914   5.916   0.163  1.5710  1.5241  1.0044
  180MOL   H15643474   2.824   5.916   0.314 -0.0098 -1.6032  0.0758
  180MOL   H15743475   2.828   5.766   0.216 -0.7863  0.7826 -2.3038
  180MOL   C15843476   3.344   5.862   0.361  0.0636 -0.6282 -0.3713
  180MOL   C15943477   3.370   5.784   0.233  0.3902 -0.1562 -0.3457
  180MOL   C16043478   3.332   5.848   0.104 -0.1424  0.7356 -0.7965
  180MOL   O16143479   3.221   5.824   0.046 -0.0395 -0.0845  0.1837
  180MOL   O16243480   3.440   5.924   0.064 -0.3382  0.2688  0.3365
  180MOL   C16343481   3.435   5.996   7.874  0.7538  0.5387  0.1057
  180MOL   H16443482   3.355   5.970   0.348  1.1594 -0.8178 -1.0965
  180MOL   H16543483   3.419   5.834   0.435 -3.1672 -1.1928  2.8118
  180MOL   H16643484   3.299   5.701   0.233 -1.0156  1.0295  0.4795
  180MOL   H16743485   3.383   6.093   7.873  0.7175  0.5170 -0.6137
  180MOL   H16843486   3.387   5.935   7.798  0.2656 -1.2813  1.8316
  180MOL   H16943487   3.535   6.016   7.835  1.3190  0.2640  1.4034
  180MOL   C17043488   3.510   5.721   0.228  0.0374 -0.0688 -0.8202
  180MOL   C17143489   3.529   5.604   0.116  0.3228 -0.1867 -0.2589
  180MOL   C17243490   3.679   5.555   0.125  0.1168 -0.0718  0.8508
  180MOL   O17343491   3.745   5.518   0.027  0.0012  0.1168 -0.1538
  180MOL   O17443492   3.731   5.559   0.254  0.2245 -0.3984 -0.3486
  180MOL   C17543493   3.864   5.520   0.274 -0.4672 -0.4321  0.8495
  180MOL   H17643494   3.599   5.784   0.230  1.3753 -1.9140 -0.2373
  180MOL   H17743495   3.528   5.671   0.323 -1.4735  1.6006  0.3775
  180MOL   H17843496   3.519   5.644   0.015  1.3845 -1.7938 -1.0384
  180MOL   H17943497   3.909   5.536   0.372  2.2426 -0.2713 -0.3757
  180MOL   H18043498   3.929   5.582   0.212 -1.7271  0.0954  0.0428
  180MOL   H18143499   3.869   5.413   0.254  1.9728 -0.0124 -1.0513
  180MOL   C18243500   3.435   5.488   0.112 -0.0828 -0.3977  0.3058
  180MOL   C18343501   3.451   5.388   7.927  0.0451 -0.9334 -0.1043
  180MOL   C18443502   3.477   5.242   0.043 -0.3121 -0.4631 -0.0753
  180MOL   O18543503   3.562   5.170   7.926  0.0213 -0.6076  0.0444
  180MOL   O18643504   3.391   5.203   0.139  0.5200 -0.3579  0.1623
  180MOL   C18743505   3.402   5.072   0.187  0.1711 -0.0624  0.2729
  180MOL   H18843506   3.445   5.435   0.207 -0.9801 -2.1030 -0.5329
  180MOL   H18943507   3.333   5.523   0.124  0.2539  0.7531 -0.1580
  180MOL   H19043508   3.537   5.419   7.867  0.0835  1.1551  0.9844
  180MOL   H19143509   3.347   5.059   0.281 -0.3392 -0.6781 -0.1113
  180MOL   H19243510   3.502   5.043   0.221 -0.2573  0.5861  2.1721
  180MOL   H19343511   3.369   5.003   0.110 -0.7002 -1.1546  1.6149
  180MOL   C19443512   3.327   5.374   7.836 -0.0838 -0.1470  0.1751
  180MOL   C19543513   3.275   5.497   7.761  0.2534  0.3582 -0.0303
  180MOL   C19643514   3.382   5.541   7.661 -0.4813  0.0659  0.2833
  180MOL   O19743515   3.411   5.476   7.557 -0.2391 -0.2433  0.0940
  180MOL   O19843516   3.439   5.651   7.710 -0.4542 -0.2530  0.7137
  180MOL   C19943517   3.527   5.734   7.637  0.1736  0.0085  1.0573
  180MOL   H20043518   3.346   5.293   7.766  1.7977  2.1464 -2.0662
  180MOL   H20143519   3.247   5.341   7.902 -1.0656 -1.3313 -1.5785
  180MOL   H20243520   3.263   5.579   7.832  0.1110 -0.0714  0.4460
  180MOL   H20343521   3.498   5.835   7.665  0.8360  0.8462 -1.1733
  180MOL   H20443522   3.515   5.714   7.530 -1.6213  1.5304  0.9534
  180MOL   H20543523   3.628   5.720   7.677  0.1100 -2.5571  0.3749
  180MOL   C20643524   3.144   5.469   7.680 -0.2151  0.6869 -0.9545
  180MOL   C20743525   3.019   5.562   7.707 -0.3142 -0.2116 -0.5793
  180MOL   C20843526   2.951   5.515   7.842 -0.5893  0.1930  0.1269
  180MOL   O20943527   2.831   5.485   7.854  0.0604  0.7495  0.2603
  180MOL   O21043528   3.048   5.517   0.005  0.1588  0.2151  0.2995
  180MOL   C21143529   3.022   5.469   0.132 -0.4341 -0.0031 -0.1553
  180MOL   H21243530   3.154   5.480   7.572 -2.4132  3.1814 -0.9290
  180MOL   H21343531   3.121   5.364   7.696 -1.5124  0.7348 -2.4190
  180MOL   H21443532   2.945   5.535   7.631  0.2247  0.6597 -1.4266
  180MOL   H21543533   2.939   5.522   0.179  0.4571  0.6376  0.7128
  180MOL   H21643534   3.094   5.483   0.213 -1.3629  3.6933  0.1436
  180MOL   H21743535   2.993   5.364   0.130 -1.7012  0.3024  1.0745
  180MOL   C21843536   3.052   5.715   7.722 -0.2250  0.2368 -0.6852
  180MOL   C21943537   2.943   5.805   7.668  0.4995  0.8178  0.4082
  180MOL   C22043538   2.841   5.844   7.772 -1.3076  0.2830 -0.5750
  180MOL   O22143539   2.856   5.815   7.891 -0.0114  0.0941  0.3126
  180MOL   O22243540   2.748   5.926   7.727 -0.6721 -0.2343 -0.3185
  180MOL   C22343541   2.650   5.981   7.808  0.1884  0.3663 -0.3010
  180MOL   H22443542   3.077   5.726   7.827 -0.0527 -0.0588 -0.6947
  180MOL   H22543543   3.141   5.734   7.662 -0.2556 -0.4427 -0.9586
  180MOL   H22643544   2.893   5.768   7.579 -0.9037 -0.3827  1.6820
  180MOL   H22743545   2.598   6.072   7.775  0.1090  0.4813  0.1415
  180MOL   H22843546   2.708   6.015   7.893  1.0294 -2.2375  0.2130
  180MOL   H22943547   2.581   5.903   7.842 -0.2599 -0.2359 -2.5236
  180MOL   C23043548   3.014   5.934   7.600 -0.1708 -1.1038 -1.0727
  180MOL   C23143549   3.121   5.996   7.686  0.6471  0.5822  0.3178
  180MOL   C23243550   3.151   6.131   7.629 -0.3852  0.0423 -0.5194
  180MOL   O23343551   3.152   6.229   7.707 -0.1461 -0.1645 -0.1441
  180MOL   O23443552   3.177   6.135   7.493 -0.2025  0.2367  0.2016
  180MOL   C23543553   3.206   6.253   7.423  0.0425  0.0603  0.2969
  180MOL   H23643554   3.061   5.895   7.509  1.9048  1.8706 -1.3593
  180MOL   H23743555   2.940   6.003   7.560  0.4377  0.4627  0.4278
  180MOL   H23843556   3.210   5.934   7.676  0.2983  0.1840 -0.3042
  180MOL   H23943557   3.306   6.284   7.455  0.2942 -0.5604  0.1058
  180MOL   H24043558   3.139   6.339   7.423  0.2309  0.2786 -2.7616
  180MOL   H24143559   3.219   6.226   7.318 -1.5020  0.9435 -0.1357
  180MOL   H24243560   3.085   6.004   7.788 -1.6857  3.1342 -0.6446
  181MOL     C143561   3.404   3.947   7.051  0.3553 -0.6295 -0.1322
  181MOL     C243562   3.526   4.031   7.089  0.1959 -0.2841  0.0282
  181MOL     C343563   3.498   4.106   7.218 -0.5361  0.2933  0.1935
  181MOL     O443564   3.573   4.090   7.318  0.3018  0.0277  0.7877
  181MOL     O543565   3.392   4.192   7.211 -0.2132 -0.1347  0.1610
  181MOL     C643566   3.373   4.285   7.320 -0.4786  0.0377 -0.4962
  181MOL     H743567   3.390   3.910   6.949 -0.1427  0.7705 -0.5874
  181MOL     H843568   3.313   4.007   7.059  0.1667 -1.2605  3.4385
  181MOL     H943569   3.542   4.111   7.016 -2.9176  0.8817  0.5592
  181MOL    H1043570   3.287   4.343   7.286 -0.6518 -0.1649 -0.4123
  181MOL    H1143571   3.460   4.350   7.328 -1.0672  0.6487  1.3288
  181MOL    H1243572   3.344   4.233   7.411 -0.5914  0.3495 -0.3519
  181MOL    H1343573   3.378   3.863   7.115  0.3365 -0.9436 -0.5506
  181MOL    C1443574   3.654   3.945   7.098  0.4212 -0.5513 -0.0928
  181MOL    C1543575   3.777   4.002   7.019 -0.3966  0.0221  0.5209
  181MOL    C1643576   3.744   4.013   6.861 -0.4414  0.1666 -0.0865
  181MOL    O1743577   3.725   4.117   6.803 -0.3704 -0.3269 -0.0297
  181MOL    O1843578   3.752   3.890   6.807 -0.3282  0.2091  0.5032
  181MOL    C1943579   3.727   3.883   6.665 -0.1107 -0.1648 -0.2417
  181MOL    H2043580   3.681   3.910   7.198  0.8223  0.3986  0.1323
  181MOL    H2143581   3.627   3.850   7.050  2.0700  0.2377 -2.6899
  181MOL    H2243582   3.851   3.922   7.018  0.4535  0.8047 -0.5065
  181MOL    H2343583   3.705   3.780   6.635 -0.4208  0.0065 -0.6082
  181MOL    H2443584   3.814   3.929   6.620  0.2569  0.1554  0.7792
  181MOL    H2543585   3.641   3.944   6.638 -0.1543  0.1127  0.5032
  181MOL    C2643586   3.840   4.135   7.069  0.2975  0.4950 -0.0068
  181MOL    C2743587   3.957   4.186   6.983  0.4012  0.3024  0.5529
  181MOL    C2843588   3.974   4.340   7.011 -0.0624 -0.2516  0.2869
  181MOL    O2943589   4.033   4.380   7.112  0.6432  0.0563 -0.2949
  181MOL    O3043590   3.946   4.412   6.901  0.0634  0.2027  0.4366
  181MOL    C3143591   4.019   4.533   6.883 -0.5012  0.1908  0.3885
  181MOL    H3243592   3.767   4.216   7.074 -0.6128 -0.3287  0.0424
  181MOL    H3343593   3.882   4.110   7.166 -1.1545 -0.9947  0.2545
  181MOL    H3443594   3.932   4.165   6.879  1.2070 -1.5876  0.7229
  181MOL    H3543595   3.972   4.608   6.820 -0.1623 -2.2649 -2.9138
  181MOL    H3643596   4.112   4.501   6.836 -0.7993 -0.5682  0.3060
  181MOL    H3743597   4.031   4.588   6.976  1.5483  1.3518 -0.5295
  181MOL    C3843598   4.087   4.108   7.010 -0.9185 -0.3702 -0.1933
  181MOL    C3943599   4.208   4.103   6.909  0.1303 -0.1495  1.1487
  181MOL    C4043600   4.170   4.016   6.787  0.3438  0.0471  0.3277
  181MOL    O4143601   4.172   4.061   6.669  0.3571  0.3306 -0.0686
  181MOL    O4243602   4.148   3.888   6.828 -0.0126  0.2942  0.5461
  181MOL    C4343603   4.121   3.788   6.732 -0.4912  0.0480  0.1653
  181MOL    H4443604   4.120   4.148   7.106 -0.8298  0.8002 -0.7070
  181MOL    H4543605   4.062   4.006   7.039 -0.2911 -0.9067 -1.4784
  181MOL    H4643606   4.284   4.042   6.958  0.6688 -1.2212 -0.9645
  181MOL    H4743607   4.130   3.688   6.774 -1.3962 -0.0112  0.2211
  181MOL    H4843608   4.203   3.783   6.660 -0.1778  1.2619  0.4317
  181MOL    H4943609   4.022   3.787   6.687 -0.3716 -0.5927 -0.0945
  181MOL    C5043610   4.262   4.241   6.873  0.5329 -0.0023  0.0916
  181MOL    C5143611   4.403   4.255   6.818  0.7806  0.1161  0.2189
  181MOL    C5243612   4.430   4.397   6.769  0.1634  0.4630  0.0712
  181MOL    O5343613   4.428   4.420   6.652  0.3578  0.1729  0.0122
  181MOL    O5443614   4.432   4.495   6.867 -0.0827 -0.2597 -0.4384
  181MOL    C5543615   4.447   4.637   6.837  0.3193  0.1408  0.6779
  181MOL    H5643616   4.206   4.287   6.791 -0.2256 -1.3682 -0.1654
  181MOL    H5743617   4.254   4.300   6.964 -3.8267 -0.8623  0.3946
  181MOL    H5843618   4.397   4.183   6.737  2.5256  0.1634  0.0265
  181MOL    H5943619   4.538   4.676   6.792 -0.9700  0.7741 -1.4557
  181MOL    H6043620   4.438   4.692   6.931 -0.3381 -1.3239  1.5026
  181MOL    H6143621   4.363   4.668   6.774  1.2153  1.2200  0.0021
  181MOL    C6243622   4.506   4.207   6.922  0.1113 -0.0973  0.1806
  181MOL    C6343623   4.620   4.125   6.859 -0.2664  0.3669  0.1722
  181MOL    C6443624   4.568   3.985   6.811  0.3927  0.7879 -0.2702
  181MOL    O6543625   4.549   3.965   6.691  0.7940 -0.4174 -0.1423
  181MOL    O6643626   4.558   3.890   6.912 -0.2248 -0.5455 -0.5758
  181MOL    C6743627   4.491   3.773   6.879  0.5367  0.0228  0.2566
  181MOL    H6843628   4.546   4.298   6.968 -2.1299  0.3394  1.3975
  181MOL    H6943629   4.465   4.148   7.005  0.3620 -3.0389 -1.7345
  181MOL    H7043630   4.686   4.105   6.943 -0.4787 -3.1624 -0.4236
  181MOL    H7143631   4.394   3.797   6.837  0.4190 -1.8398 -0.6129
  181MOL    H7243632   4.465   3.726   6.974 -1.4721  0.4511 -0.0697
  181MOL    H7343633   4.554   3.711   6.815 -0.1166  0.9334 -1.2842
  181MOL    C7443634   4.698   4.207   6.752 -0.0503  0.4542  0.3495
  181MOL    C7543635   4.822   4.127   6.701 -0.0846 -0.5086 -0.7838
  181MOL    C7643636   4.858   4.141   6.557  1.0860  0.3563 -0.0877
  181MOL    O7743637   4.929   4.230   6.521  0.7621 -0.7560  0.1303
  181MOL    O7843638   4.809   4.050   6.478 -0.0554  0.1076  0.2816
  181MOL    C7943639   4.832   4.046   6.337  0.2976  0.1931 -0.0588
  181MOL    H8043640   4.639   4.226   6.663  1.9395  1.0026 -0.8661
  181MOL    H8143641   4.723   4.303   6.796  1.2738  0.0937  0.4121
  181MOL    H8243642   4.786   4.024   6.701 -1.2351 -0.1248  1.5047
  181MOL    H8343643   4.807   4.130   6.273  0.2297  0.0685 -0.1962
  181MOL    H8443644   4.763   3.967   6.306  2.0352 -1.1812 -0.4856
  181MOL    H8543645   4.936   4.017   6.324  0.4064  0.6981 -0.3071
  181MOL    C8643646   4.933   4.150   6.805 -0.4196  0.3497 -0.7094
  181MOL    C8743647   5.038   4.031   6.820  0.1890 -0.8168  0.6178
  181MOL    C8843648   5.147   4.032   6.715  0.1719  0.4711  0.8706
  181MOL    O8943649   5.139   3.972   6.608 -0.2887  0.4392  0.3882
  181MOL    O9043650   5.241   4.114   6.746  0.3104 -0.2892 -0.5494
  181MOL    C9143651   5.361   4.131   6.671 -0.0525  0.4580  0.2517
  181MOL    H9243652   4.990   4.243   6.795  0.5118 -0.2282 -0.8581
  181MOL    H9343653   4.893   4.167   6.904 -3.1568  1.3524 -1.9449
  181MOL    H9443654   4.986   3.940   6.793 -1.7538  0.9839 -2.0188
  181MOL    H9543655   5.409   4.225   6.697  0.6029  0.6201 -1.4603
  181MOL    H9643656   5.331   4.140   6.567  1.2297 -0.8317 -0.2438
  181MOL    H9743657   5.434   4.051   6.682  0.7734  1.0232 -1.0051
  181MOL    C9843658   5.091   4.014   6.959  0.1399 -0.1710  0.4657
  181MOL    C9943659   4.982   3.953   7.055  0.0471 -0.7959 -0.3148
  181MOL   C10043660   4.996   3.802   7.070  0.2138  0.5620 -0.2274
  181MOL   O10143661   5.102   3.749   7.109  0.3873  0.2973 -0.5868
  181MOL   O10243662   4.881   3.736   7.040  0.3718 -0.2766 -0.0826
  181MOL   C10343663   4.876   3.601   7.072 -0.9168  0.5632  0.0797
  181MOL   H10443664   5.181   3.954   6.970 -0.5118 -1.3933 -0.7045
  181MOL   H10543665   5.124   4.109   7.003  1.4111 -0.1329 -0.5525
  181MOL   H10643666   4.884   3.976   7.011 -0.4003 -0.0057  1.0548
  181MOL   H10743667   4.935   3.583   7.161 -0.6064 -2.6329 -0.6895
  181MOL   H10843668   4.911   3.529   6.997 -2.1726  1.5540 -1.4889
  181MOL   H10943669   4.772   3.580   7.097 -0.4457  1.5562  3.0049
  181MOL   C11043670   4.998   4.005   7.199 -0.0585 -0.5528  0.7107
  181MOL   C11143671   4.879   3.976   7.295  0.0526  0.1144  0.0373
  181MOL   C11243672   4.929   3.945   7.442  0.1425  0.1121 -0.0558
  181MOL   O11343673   4.901   3.835   7.493  0.4975  0.1684  0.0544
  181MOL   O11443674   4.991   4.049   7.504 -0.1983  0.6340 -0.4993
  181MOL   C11543675   5.009   4.025   7.642  0.2297 -0.0919 -0.3786
  181MOL   H11643676   5.089   3.965   7.244  0.4906  1.1996  1.1686
  181MOL   H11743677   5.010   4.113   7.204 -1.4097 -0.1966 -2.7029
  181MOL   H11843678   4.833   3.882   7.266  0.5846 -0.1788  0.1331
  181MOL   H11943679   5.050   4.115   7.688  1.4614 -0.0697 -1.5056
  181MOL   H12043680   5.083   3.947   7.661  0.8841  1.3003  3.2518
  181MOL   H12143681   4.918   4.002   7.698  1.5123 -1.2235  1.2905
  181MOL   C12243682   4.772   4.089   7.291  0.1370 -0.1064 -0.3694
  181MOL   C12343683   4.644   4.065   7.381  0.0513 -0.0673  0.5163
  181MOL   C12443684   4.574   4.195   7.392  0.6309 -0.5308  0.1896
  181MOL   O12543685   4.569   4.254   7.499  0.5332  0.4142 -0.4006
  181MOL   O12643686   4.519   4.239   7.275 -0.3495  0.2151  0.2512
  181MOL   C12743687   4.439   4.359   7.278 -0.6193 -0.3773 -0.2053
  181MOL   H12843688   4.822   4.173   7.341 -0.3647 -0.0224 -0.0026
  181MOL   H12943689   4.736   4.118   7.192 -1.3011  0.3494  0.2728
  181MOL   H13043690   4.676   4.034   7.480 -1.1421 -3.2341 -0.0215
  181MOL   H13143691   4.379   4.368   7.188 -2.6354  2.7848  1.3782
  181MOL   H13243692   4.513   4.439   7.283 -0.6662 -0.2601 -1.3349
  181MOL   H13343693   4.373   4.368   7.364  1.3927 -0.7032  1.4273
  181MOL   C13443694   4.550   3.949   7.344  0.0145 -0.3350 -0.9629
  181MOL   C13543695   4.419   3.923   7.428 -0.2485  0.3641  0.1314
  181MOL   C13643696   4.305   4.003   7.373  0.6129 -0.0096  0.2055
  181MOL   O13743697   4.272   3.993   7.261 -0.7138 -0.2245  0.9787
  181MOL   O13843698   4.249   4.080   7.464  0.2447  0.0172  0.3247
  181MOL   C13943699   4.155   4.169   7.427 -0.0486  0.0132 -0.2972
  181MOL   H14043700   4.529   3.954   7.237  0.0909  0.0455 -0.9600
  181MOL   H14143701   4.600   3.854   7.364  0.3124 -0.4776 -2.3083
  181MOL   H14243702   4.435   3.959   7.530  2.0885 -0.1004 -0.0429
  181MOL   H14343703   4.186   4.221   7.336 -2.7800 -1.6076 -2.2264
  181MOL   H14443704   4.127   4.237   7.507 -0.7780  1.3376 -1.6652
  181MOL   H14543705   4.068   4.115   7.390  0.2319 -1.0642  0.5876
  181MOL   C14643706   4.386   3.770   7.435 -0.0953  0.6529  0.3240
  181MOL   C14743707   4.249   3.733   7.495  0.9268  0.8218  0.1502
  181MOL   C14843708   4.229   3.587   7.463 -0.4070  0.1853  0.5977
  181MOL   O14943709   4.141   3.553   7.387  0.1869 -0.3216  0.0184
  181MOL   O15043710   4.305   3.504   7.535 -0.3181 -0.1328  0.4676
  181MOL   C15143711   4.318   3.367   7.503  0.0972 -0.4575 -0.1747
  181MOL   H15243712   4.385   3.753   7.328 -0.7777  0.7237  0.3150
  181MOL   H15343713   4.467   3.708   7.475 -0.4556  0.2312  0.4033
  181MOL   H15443714   4.168   3.783   7.441  0.0573 -0.3526  0.3554
  181MOL   H15543715   4.359   3.353   7.403 -0.5330  0.6510 -0.5944
  181MOL   H15643716   4.218   3.326   7.518 -1.3197  2.3001 -1.7452
  181MOL   H15743717   4.362   3.302   7.579  0.4602 -0.8598 -0.7210
  181MOL   C15843718   4.240   3.775   7.646  0.5917 -0.3081 -0.1693
  181MOL   C15943719   4.102   3.767   7.718  0.4227  0.1905 -0.0012
  181MOL   C16043720   3.990   3.851   7.646 -0.3433 -0.6008 -0.0758
  181MOL   O16143721   3.945   3.949   7.700 -0.5458  0.0569  0.1435
  181MOL   O16243722   3.935   3.796   7.535  0.0526  0.0105 -0.6353
  181MOL   C16343723   3.813   3.857   7.474 -0.0561 -0.4222  0.5466
  181MOL   H16443724   4.313   3.721   7.705  0.6769 -0.6260 -0.5639
  181MOL   H16543725   4.283   3.875   7.656  4.6125 -1.8913 -0.8295
  181MOL   H16643726   4.116   3.815   7.815 -0.3158  0.5278 -0.0539
  181MOL   H16743727   3.771   3.930   7.542  1.0115 -0.4810  1.2821
  181MOL   H16843728   3.740   3.784   7.440  0.5057 -1.1110  0.7946
  181MOL   H16943729   3.848   3.913   7.387 -0.8253 -3.0126 -1.5131
  181MOL   C17043730   4.049   3.633   7.771 -0.2151 -0.2974 -0.2791
  181MOL   C17143731   3.931   3.634   7.871 -0.0235 -0.2169 -0.5864
  181MOL   C17243732   3.798   3.620   7.790 -0.5572  0.5978 -0.2780
  181MOL   O17343733   3.699   3.682   7.821  0.0298  0.1587  0.2177
  181MOL   O17443734   3.798   3.517   7.707 -0.1036  0.1815 -0.0558
  181MOL   C17543735   3.680   3.480   7.642  0.9446 -0.2543  0.3356
  181MOL   H17643736   4.028   3.575   7.681 -0.7707  1.1801 -1.1144
  181MOL   H17743737   4.137   3.584   7.813  1.0771  0.2265 -2.3335
  181MOL   H17843738   3.931   3.716   0.009  0.2427 -0.5637 -0.1809
  181MOL   H17943739   3.640   3.402   7.707  2.6549  0.6418  2.5087
  181MOL   H18043740   3.701   3.430   7.548  4.6256  1.7146  0.0043
  181MOL   H18143741   3.609   3.562   7.628  1.7263  0.5182  0.8033
  181MOL   C18243742   3.940   3.520   0.036  0.0185  0.6546 -0.3469
  181MOL   C18343743   3.851   3.503   0.157 -0.2762 -0.4867 -1.2347
  181MOL   C18443744   3.829   3.358   0.188 -0.7397  0.5267  0.1516
  181MOL   O18543745   3.926   3.282   0.208 -0.1013 -0.0798  0.8030
  181MOL   O18643746   3.704   3.335   0.191 -0.1750 -0.4565  0.8502
  181MOL   C18743747   3.654   3.209   0.227 -0.0632 -0.3372  0.9807
  181MOL   H18843748   3.932   3.427   7.913  0.9134  0.2602  0.1680
  181MOL   H18943749   4.038   3.524   0.084  0.0782  0.6271 -0.4657
  181MOL   H19043750   3.761   3.556   0.126  0.7387  1.1007 -1.5291
  181MOL   H19143751   3.545   3.216   0.225 -0.1604 -1.7078  0.9357
  181MOL   H19243752   3.693   3.179   0.324  0.4662  0.0299  0.8831
  181MOL   H19343753   3.673   3.137   0.146  0.1069 -0.2390  0.9342
  181MOL   C19443754   3.910   3.568   0.291 -0.5290  0.3542 -0.1977
  181MOL   C19543755   3.805   3.591   0.395  0.5033 -1.3099 -0.7307
  181MOL   C19643756   3.850   3.556   0.540 -0.1032 -0.0865 -0.0797
  181MOL   O19743757   3.937   3.626   0.595  0.0839 -0.7804  0.1448
  181MOL   O19843758   3.802   3.443   0.581  0.6405 -0.2309 -0.4404
  181MOL   C19943759   3.835   3.407   0.723  0.5968 -0.4175  0.8135
  181MOL   H20043760   3.995   3.514   0.332 -0.2369  1.5011  0.7299
  181MOL   H20143761   3.955   3.665   0.271  2.8426 -1.0205  0.4884
  181MOL   H20243762   3.725   3.520   0.373 -0.3189 -0.1031 -1.7074
  181MOL   H20343763   3.943   3.416   0.733  0.6228  2.1581 -1.0378
  181MOL   H20443764   3.796   3.308   0.747 -0.6071  0.2194  1.5360
  181MOL   H20543765   3.783   3.474   0.792  1.1429  1.0581 -0.1730
  181MOL   C20643766   3.744   3.732   0.389  0.5965  0.2037  0.0668
  181MOL   C20743767   3.591   3.735   0.417 -0.2066  0.0016 -0.1196
  181MOL   C20843768   3.560   3.751   0.567  0.0721  0.0830 -0.0225
  181MOL   O20943769   3.647   3.755   0.656  0.7883  0.1380 -0.5033
  181MOL   O21043770   3.431   3.763   0.582  0.0011 -0.3725  0.7364
  181MOL   C21143771   3.377   3.796   0.711  0.4035 -0.1679  0.6315
  181MOL   H21243772   3.795   3.810   0.445 -1.2582  1.6457 -0.2122
  181MOL   H21343773   3.757   3.776   0.290 -0.6830  1.0008  0.2436
  181MOL   H21443774   3.552   3.640   0.381  1.2745 -0.6567 -0.0697
  181MOL   H21543775   3.269   3.798   0.719  0.4076  0.0214  0.6331
  181MOL   H21643776   3.420   3.890   0.745  1.0254 -0.0362 -0.4927
  181MOL   H21743777   3.411   3.729   0.790  0.7977  0.2421  0.8142
  181MOL   C21843778   3.537   3.852   0.337  0.1048 -1.0257 -0.5265
  181MOL   C21943779   3.417   3.828   0.241  0.0310 -0.5688  0.0711
  181MOL   C22043780   3.352   3.962   0.207  0.0611  0.0411  0.4040
  181MOL   O22143781   3.386   4.025   0.107 -0.0182 -0.2760  0.4578
  181MOL   O22243782   3.254   3.991   0.295 -0.2426  0.3153 -0.7538
  181MOL   C22343783   3.168   4.101   0.266  0.0142  0.2892 -0.5306
  181MOL   H22443784   3.504   3.927   0.409  1.9327  0.6116 -1.3605
  181MOL   H22543785   3.620   3.897   0.281  1.3420 -3.9507 -1.1523
  181MOL   H22643786   3.339   3.781   0.301 -1.4222  0.2320 -1.1437
  181MOL   H22743787   3.105   4.111   0.354 -1.2525 -2.7288 -1.0500
  181MOL   H22843788   3.101   4.084   0.182  2.1785  0.7274 -2.3966
  181MOL   H22943789   3.221   4.196   0.251 -0.1879  0.4536 -0.1908
  181MOL   C23043790   3.450   3.722   0.130  0.2625  0.7696  0.2220
  181MOL   C23143791   3.341   3.613   0.101  0.3748 -0.2841  0.2067
  181MOL   C23243792   3.342   3.493   0.191  0.2524 -0.2280  0.7950
  181MOL   O23343793   3.391   3.489   0.302  0.3355  0.0506  0.3509
  181MOL   O23443794   3.274   3.400   0.131  0.2415  0.7177 -0.1819
  181MOL   C23543795   3.264   3.267   0.180  0.8901  0.3718  0.3758
  181MOL   H23643796   3.476   3.778   0.041  0.9155  0.0090 -0.0680
  181MOL   H23743797   3.542   3.667   0.148  0.3135  0.5878 -0.5813
  181MOL   H23843798   3.354   3.589   7.928 -0.8579  3.8328 -0.9594
  181MOL   H23943799   3.221   3.193   0.113  0.8525  0.4148  0.3528
  181MOL   H24043800   3.197   3.279   0.265  0.0515  0.7995 -0.3329
  181MOL   H24143801   3.364   3.238   0.212  1.3837  1.7351  0.1331
  181MOL   H24243802   3.241   3.655   0.098  1.5649  2.5453 -0.7627
  182MOL     C143803   3.065   3.890   7.284  0.0528 -0.5281 -0.6302
  182MOL     C243804   3.091   3.984   7.403  0.6101  0.2142  0.0587
  182MOL     C343805   3.032   4.124   7.384  0.0701  0.5517 -0.0283
  182MOL     O443806   2.930   4.144   7.310 -0.0328 -0.5871 -0.3117
  182MOL     O543807   3.092   4.213   7.464  0.1117  0.1258  0.7680
  182MOL     C643808   3.070   4.351   7.458  0.4056  0.1184 -0.0062
  182MOL     H743809   3.132   3.804   7.292 -2.2065 -2.1456  1.5834
  182MOL     H843810   3.090   3.938   7.190  1.8530 -1.5556 -0.6958
  182MOL     H943811   3.199   3.998   7.406  0.5472  0.8211 -0.6328
  182MOL    H1043812   2.967   4.380   7.476 -0.7240 -1.0600 -4.1176
  182MOL    H1143813   3.091   4.388   7.358  0.5401  2.2791  0.8012
  182MOL    H1243814   3.141   4.399   7.526 -0.1803  0.8562  0.0949
  182MOL    H1343815   2.964   3.849   7.277 -0.5089  0.7568 -0.0364
  182MOL    C1443816   3.039   3.918   7.538  0.1082  0.1086 -0.4562
  182MOL    C1543817   3.085   3.766   7.556  0.1663  0.1685  0.6919
  182MOL    C1643818   3.233   3.749   7.580 -0.5662  0.3464  0.7674
  182MOL    O1743819   3.289   3.647   7.541  0.0294  1.1083 -0.1372
  182MOL    O1843820   3.289   3.840   7.652 -0.5297 -0.5625 -0.3431
  182MOL    C1943821   3.431   3.832   7.687 -0.1919  0.1944 -0.4029
  182MOL    H2043822   3.073   3.979   7.621  0.7497 -0.3057 -0.4119
  182MOL    H2143823   2.930   3.917   7.546  0.0613  2.4187 -0.5770
  182MOL    H2243824   3.066   3.702   7.469 -0.7462 -2.2966  2.6341
  182MOL    H2343825   3.438   3.771   7.777  0.2321 -0.0780 -0.6182
  182MOL    H2443826   3.446   3.940   7.697  1.8943 -0.2721  1.6561
  182MOL    H2543827   3.491   3.790   7.607 -2.6693 -2.0394 -1.1689
  182MOL    C2643828   3.015   3.690   7.668 -0.3969 -0.1959 -0.1396
  182MOL    C2743829   2.861   3.650   7.645  0.5530 -0.1279  0.5569
  182MOL    C2843830   2.840   3.601   7.500 -0.4738  0.6511 -0.1880
  182MOL    O2943831   2.757   3.642   7.422 -0.4069  0.1633  0.5058
  182MOL    O3043832   2.913   3.494   7.482 -1.0411  0.0434 -0.5813
  182MOL    C3143833   2.922   3.424   7.365  0.7548 -0.4420 -0.3529
  182MOL    H3243834   3.071   3.604   7.703  1.4027  1.1616  0.3605
  182MOL    H3343835   3.017   3.743   7.764 -0.8442 -1.6867  0.7076
  182MOL    H3443836   2.805   3.740   7.669 -0.4042 -0.2746 -0.9983
  182MOL    H3543837   2.856   3.464   7.287  1.8305  0.7818 -0.6587
  182MOL    H3643838   2.866   3.332   7.378 -0.7067 -0.0147 -3.0798
  182MOL    H3743839   3.022   3.402   7.328 -0.1259 -3.5296 -0.9936
  182MOL    C3843840   2.816   3.553   7.746 -0.4776  0.0004 -0.0653
  182MOL    C3943841   2.669   3.539   7.771  0.0124 -0.0330 -1.1295
  182MOL    C4043842   2.590   3.441   7.675 -0.8099  0.1322 -0.5260
  182MOL    O4143843   2.625   3.327   7.665 -0.1937 -0.1269 -0.6128
  182MOL    O4243844   2.486   3.496   7.624  0.3993 -0.2285 -0.2587
  182MOL    C4343845   2.417   3.431   7.525  0.5781  0.3568 -0.2775
  182MOL    H4443846   2.870   3.458   7.751  0.3990  0.4580 -0.7776
  182MOL    H4543847   2.850   3.598   7.839 -1.4143  2.1540 -0.7358
  182MOL    H4643848   2.628   3.640   7.761 -0.1378  0.1751  1.2609
  182MOL    H4743849   2.464   3.416   7.428  0.1258  0.0693 -0.4544
  182MOL    H4843850   2.337   3.498   7.495  3.4071  3.6033 -0.8534
  182MOL    H4943851   2.384   3.336   7.569 -0.8643  0.0563 -1.9603
  182MOL    C5043852   2.633   3.489   7.913  0.7251 -0.2476  0.1562
  182MOL    C5143853   2.486   3.512   0.021  0.0902 -0.0484  0.0817
  182MOL    C5243854   2.422   3.374   0.057  0.0628 -0.3666 -0.3329
  182MOL    O5343855   2.333   3.327   7.917  0.5797  0.2323  0.0378
  182MOL    O5443856   2.472   3.312   0.162 -0.6240  0.1137  0.1541
  182MOL    C5543857   2.440   3.178   0.197 -0.4531 -0.1146 -0.3895
  182MOL    H5643858   2.661   3.385   7.924  2.3554 -0.0167 -1.4551
  182MOL    H5743859   2.692   3.535   0.059 -0.7583  1.8712  0.0739
  182MOL    H5843860   2.425   3.543   7.869 -0.2211 -0.3727  0.1860
  182MOL    H5943861   2.456   3.101   0.121 -0.0403  0.6248 -1.0661
  182MOL    H6043862   2.334   3.172   0.220 -0.4861 -0.0619 -0.5270
  182MOL    H6143863   2.497   3.158   0.287 -0.4021 -0.0973 -0.4178
  182MOL    C6243864   2.456   3.620   0.133  0.6570 -0.5330 -0.2922
  182MOL    C6343865   2.449   3.773   0.105 -0.4434 -0.7378  0.4031
  182MOL    C6443866   2.586   3.825   0.081 -0.4755  0.1121  0.0932
  182MOL    O6543867   2.615   3.899   7.922  0.4136 -0.9301  0.0143
  182MOL    O6643868   2.677   3.793   0.176  0.0483 -0.1681  0.4559
  182MOL    C6743869   2.811   3.822   0.175 -0.5501 -0.3861  0.3561
  182MOL    H6843870   2.354   3.598   0.163  0.4810 -1.1473 -1.3497
  182MOL    H6943871   2.503   3.608   0.231  1.2540  2.3520 -0.1721
  182MOL    H7043872   2.407   3.818   0.195 -0.5334 -1.0830  0.5335
  182MOL    H7143873   2.835   3.928   0.177 -0.7237 -0.3074 -1.0626
  182MOL    H7243874   2.852   3.767   0.090 -1.3415  0.2287 -0.4370
  182MOL    H7343875   2.842   3.777   0.269 -0.9728 -0.3391  0.5194
  182MOL    C7443876   2.349   3.834   7.932  0.6067  0.0715 -0.4557
  182MOL    C7543877   2.193   3.816   0.024  0.0554 -0.7777  0.0974
  182MOL    C7643878   2.155   3.671   7.931  0.1111  0.5297  0.7746
  182MOL    O7743879   2.110   3.593   0.083  0.1648  0.5971  0.2739
  182MOL    O7843880   2.170   3.641   7.801 -0.9189 -0.5291 -0.1711
  182MOL    C7943881   2.118   3.517   7.755 -0.5610  0.0960  0.0916
  182MOL    H8043882   2.365   3.942   0.002  3.0581 -0.2337 -1.3512
  182MOL    H8143883   2.373   3.796   7.833  0.4009 -1.1393 -0.0466
  182MOL    H8243884   2.134   3.866   7.880  1.3612 -0.1018 -0.4804
  182MOL    H8343885   2.141   3.433   7.821  0.9471  0.0955 -0.4141
  182MOL    H8443886   2.150   3.497   7.653 -1.1452  2.2199 -0.5318
  182MOL    H8543887   2.010   3.529   7.764 -0.4514  0.4348  0.9815
  182MOL    C8643888   2.141   3.863   0.166  0.0358  0.0710 -0.8190
  182MOL    C8743889   1.986   3.856   0.185 -0.7898 -0.6642  0.8695
  182MOL    C8843890   1.949   3.882   0.324 -0.4639  0.1720 -0.1531
  182MOL    O8943891   1.856   3.821   0.367  0.5725  0.1536 -0.4848
  182MOL    O9043892   2.016   3.984   0.376  0.0976  0.1103 -0.1498
  182MOL    C9143893   2.003   4.009   0.517  0.3090  0.1022 -0.1969
  182MOL    H9243894   2.196   3.814   0.247 -1.9731 -0.4563  0.2717
  182MOL    H9343895   2.178   3.965   0.178  0.9624 -0.1459 -1.7667
  182MOL    H9443896   1.950   3.755   0.162  1.5741 -1.5658  1.0386
  182MOL    H9543897   2.101   4.028   0.561  0.6317 -2.3430  0.2149
  182MOL    H9643898   1.967   3.926   0.578  0.3532  0.3181  0.1272
  182MOL    H9743899   1.933   4.090   0.536  1.8580  1.2900  0.5440
  182MOL    C9843900   1.915   3.952   0.086 -0.0943 -0.1541  0.1669
  182MOL    C9943901   1.957   4.103   0.082  0.8675 -0.1806  0.6375
  182MOL   C10043902   2.064   4.126   7.902  0.3365  0.4166 -0.6912
  182MOL   O10143903   2.057   4.077   7.789  0.2141 -0.1332  0.2924
  182MOL   O10243904   2.157   4.208   0.013 -0.4994  0.2698 -0.1216
  182MOL   C10343905   2.253   4.261   7.851 -0.3725 -0.5338  0.5422
  182MOL   H10443906   1.908   3.899   7.923 -1.9417 -2.1640  1.3541
  182MOL   H10543907   1.809   3.961   0.111 -0.5579 -1.2352 -1.2833
  182MOL   H10643908   2.005   4.129   0.176 -0.7941  2.6932  0.7444
  182MOL   H10743909   2.214   4.362   7.840 -0.4025 -0.5086  0.8902
  182MOL   H10843910   2.258   4.216   7.752  0.7631 -0.2708  0.4729
  182MOL   H10943911   2.350   4.263   7.899 -0.3593 -1.5833  0.5735
  182MOL   C11043912   1.841   4.208   0.049  0.3777 -0.1487  0.3342
  182MOL   C11143913   1.859   4.359   0.081 -0.4757 -0.0255 -0.0817
  182MOL   C11243914   1.914   4.387   0.223 -0.1119  0.3726  0.2279
  182MOL   O11343915   2.006   4.465   0.236  0.2778 -0.6419  0.1632
  182MOL   O11443916   1.858   4.319   0.326 -0.1717  0.0205 -0.2191
  182MOL   C11543917   1.898   4.354   0.466 -0.6088  0.6835  0.3689
  182MOL   H11643918   1.798   4.190   7.884 -1.5633 -0.1716  1.1661
  182MOL   H11743919   1.756   4.179   0.111  0.8132  0.7501  1.3718
  182MOL   H11843920   1.758   4.399   0.093 -0.6681 -1.1005  2.3755
  182MOL   H11943921   1.988   4.295   0.483 -0.7112  0.0812 -1.1203
  182MOL   H12043922   1.817   4.332   0.535  0.4093 -3.7442  0.3097
  182MOL   H12143923   1.932   4.458   0.465  1.0521  0.1901 -3.5020
  182MOL   C12243924   1.924   4.450   7.907  0.1469 -0.0910 -0.0374
  182MOL   C12343925   1.833   4.475   7.785  0.3460  0.5429  0.0216
  182MOL   C12443926   1.722   4.572   7.828 -0.4082  0.4399 -1.2124
  182MOL   O12543927   1.605   4.538   7.843  0.1913  0.4573  0.1936
  182MOL   O12643928   1.765   4.700   7.842  0.3410 -0.1735 -0.2375
  182MOL   C12743929   1.672   4.803   7.869  0.0827  0.6998 -0.0722
  182MOL   H12843930   1.960   4.544   0.017 -1.1035  0.1115  0.5974
  182MOL   H12943931   2.005   4.399   7.857  0.5498 -0.6266  1.1486
  182MOL   H13043932   1.777   4.383   7.765  2.6654 -0.6443 -1.2025
  182MOL   H13143933   1.727   4.897   7.876  0.2242  0.5310  1.3123
  182MOL   H13243934   1.620   4.770   0.026 -2.3900  1.0509 -1.3224
  182MOL   H13343935   1.597   4.799   7.790 -0.5864 -0.4215  0.6065
  182MOL   C13443936   1.901   4.508   7.645 -0.6379  0.4418 -0.0849
  182MOL   C13543937   1.809   4.466   7.523 -0.0879  0.0830 -0.2917
  182MOL   C13643938   1.842   4.532   7.393 -0.9467 -0.1620 -0.6248
  182MOL   O13743939   1.767   4.599   7.327 -0.2208  0.3593 -0.9742
  182MOL   O13843940   1.965   4.488   7.349 -0.3871 -0.9265 -0.0034
  182MOL   C13943941   2.027   4.555   7.239 -0.2037  0.4548  0.2734
  182MOL   H14043942   1.928   4.613   7.658 -0.8523  0.9025 -3.0001
  182MOL   H14143943   1.995   4.455   7.633 -1.3620 -1.3316  1.7839
  182MOL   H14243944   1.704   4.489   7.545 -0.3031 -1.8360  0.7628
  182MOL   H14343945   2.011   4.662   7.255 -2.4090  0.1217  0.4813
  182MOL   H14443946   1.973   4.535   7.147  0.6411  2.6927 -0.7484
  182MOL   H14543947   2.129   4.518   7.232 -0.5584 -0.2730 -1.2214
  182MOL   C14643948   1.813   4.311   7.512  0.3293  0.8216 -0.1761
  182MOL   C14743949   1.693   4.243   7.439  0.3880 -0.0987  0.0195
  182MOL   C14843950   1.731   4.103   7.384  1.0947  0.5921 -0.4817
  182MOL   O14943951   1.670   4.001   7.411  0.7931  0.3391  0.0819
  182MOL   O15043952   1.837   4.105   7.296  0.1480 -0.1330 -0.6311
  182MOL   C15143953   1.866   3.992   7.213 -0.3937 -0.4786 -0.1623
  182MOL   H15243954   1.912   4.284   7.474 -0.6084 -0.1348 -1.9935
  182MOL   H15343955   1.817   4.269   7.612  1.9115 -0.2071 -0.6541
  182MOL   H15443956   1.675   4.307   7.352  0.1268  1.2498  1.0397
  182MOL   H15543957   1.958   4.016   7.159  0.2003 -1.4037  0.4293
  182MOL   H15643958   1.784   3.987   7.141 -1.8705  3.3811  1.1203
  182MOL   H15743959   1.880   3.895   7.260 -0.1449 -0.3252  0.0781
  182MOL   C15843960   1.559   4.246   7.522 -0.3328  0.5649 -0.3917
  182MOL   C15943961   1.435   4.303   7.462 -0.3152 -0.6220  0.2133
  182MOL   C16043962   1.380   4.208   7.354  0.1373  0.5581  0.1991
  182MOL   O16143963   1.419   4.216   7.240  0.0812 -0.0517  0.3023
  182MOL   O16243964   1.295   4.119   7.399 -0.0310  0.2471  0.8854
  182MOL   C16343965   1.237   4.023   7.319 -0.4843  0.1483  0.1566
  182MOL   H16443966   1.534   4.146   7.558 -0.5409  0.6516 -0.2966
  182MOL   H16543967   1.581   4.299   7.615 -0.5512  1.3801 -0.8124
  182MOL   H16643968   1.449   4.393   7.402  3.4554 -0.7662  0.7889
  182MOL   H16743969   1.221   4.065   7.220 -0.1764 -0.8649 -0.3298
  182MOL   H16843970   1.137   3.990   7.347  0.3123 -1.1722  1.5790
  182MOL   H16943971   1.300   3.937   7.298  1.8312  1.7242  0.5161
  182MOL   C17043972   1.317   4.337   7.568 -0.0029 -0.2463  0.0794
  182MOL   C17143973   1.333   4.479   7.621  0.2286 -0.2857 -0.1411
  182MOL   C17243974   1.326   4.585   7.514 -0.0172  0.7829  0.6110
  182MOL   O17343975   1.246   4.580   7.424 -0.5692  0.0230 -0.4447
  182MOL   O17443976   1.421   4.672   7.522  1.0602 -0.8618  0.3122
  182MOL   C17543977   1.433   4.775   7.427 -0.0127 -0.1627 -0.3267
  182MOL   H17643978   1.225   4.340   7.510  0.2108 -1.2676 -0.3347
  182MOL   H17743979   1.314   4.258   7.643 -0.7069 -0.1651  0.1374
  182MOL   H17843980   1.434   4.483   7.661 -0.0513  1.3028  0.4454
  182MOL   H17943981   1.527   4.829   7.433  0.1407 -0.4055 -0.5287
  182MOL   H18043982   1.360   4.856   7.435 -0.4096 -0.6437  0.9132
  182MOL   H18143983   1.417   4.735   7.326  2.7128 -0.1447 -0.7965
  182MOL   C18243984   1.225   4.499   7.730 -0.3485 -0.4627 -0.1543
  182MOL   C18343985   1.277   4.571   7.856  0.0110  0.1450  0.6319
  182MOL   C18443986   1.284   4.726   7.844 -0.4036 -0.5298 -0.3638
  182MOL   O18543987   1.368   4.802   7.893  0.1206 -0.2405 -0.8503
  182MOL   O18643988   1.167   4.772   7.785 -0.0024  0.2808  0.1724
  182MOL   C18743989   1.150   4.910   7.765 -0.2833 -0.5222  0.5325
  182MOL   H18843990   1.142   4.546   7.677 -0.2020 -1.8938 -1.6868
  182MOL   H18943991   1.188   4.400   7.756 -0.5125 -0.1033  1.0027
  182MOL   H19043992   1.381   4.542   7.868 -0.3986 -1.4081  0.5919
  182MOL   H19143993   1.061   4.930   7.705 -0.1742  0.7246  0.7609
  182MOL   H19243994   1.237   4.953   7.716 -1.0009  1.1364  0.6567
  182MOL   H19343995   1.144   4.969   7.857 -0.4269 -1.1734  0.9371
  182MOL   C19443996   1.190   4.537   0.046  0.5759  0.1309 -0.7336
  182MOL   C19543997   1.274   4.451   0.151  0.2202  0.0780 -0.1573
  182MOL   C19643998   1.331   4.314   0.103  0.6652  0.2430 -0.0996
  182MOL   O19743999   1.448   4.285   0.095  0.2911  0.1969 -0.0571
  182MOL   O19844000   1.224   4.231   0.065  0.2023  0.1281 -0.5796
  182MOL   C19944001   1.254   4.103   0.013  0.1145 -1.4333  0.3234
  182MOL   H20044002   1.146   4.627   0.088 -1.3306 -0.6426 -1.0420
  182MOL   H20144003   1.106   4.472   0.020  0.5843  0.8729 -2.6669
  182MOL   H20244004   1.204   4.431   0.232  1.1001 -0.5697  0.4546
  182MOL   H20344005   1.327   4.061   0.082 -0.3075 -2.7649 -0.0214
  182MOL   H20444006   1.282   4.110   7.841 -0.4031  0.4851  0.2870
  182MOL   H20544007   1.167   4.036   0.013 -0.8587 -0.1822 -0.5765
  182MOL   C20644008   1.371   4.540   0.224 -0.2523  0.0639  0.3529
  182MOL   C20744009   1.462   4.470   0.338 -0.9060 -0.0055  0.1188
  182MOL   C20844010   1.556   4.573   0.396  0.6053  0.1655 -0.2969
  182MOL   O20944011   1.530   4.625   0.509  0.4942 -0.4930  0.4611
  182MOL   O21044012   1.658   4.607   0.313 -0.7820 -0.2607  0.1871
  182MOL   C21144013   1.755   4.695   0.364  0.4645 -0.1468  1.2570
  182MOL   H21244014   1.434   4.591   0.151  1.0640  0.2637  1.6191
  182MOL   H21344015   1.313   4.613   0.280 -1.2359 -1.9672  2.0425
  182MOL   H21444016   1.517   4.389   0.290 -0.3302  0.0092  0.7502
  182MOL   H21544017   1.808   4.664   0.454  1.0583 -3.9900 -0.3039
  182MOL   H21644018   1.714   4.796   0.367 -3.9483 -1.8438  0.9687
  182MOL   H21744019   1.828   4.687   0.283 -0.5279 -1.1025  0.4453
  182MOL   C21844020   1.376   4.382   0.446 -1.0627 -0.9561 -0.0613
  182MOL   C21944021   1.444   4.280   0.549  0.3798 -0.3532  0.2263
  182MOL   C22044022   1.541   4.184   0.482  0.8082 -0.1458  0.1038
  182MOL   O22144023   1.658   4.170   0.520  0.2212  0.4658  0.4833
  182MOL   O22244024   1.476   4.104   0.387  0.0562 -0.1348 -0.3399
  182MOL   C22344025   1.553   4.016   0.314 -0.1381  0.4111  0.0051
  182MOL   H22444026   1.306   4.440   0.507 -0.5828 -1.3798  0.9012
  182MOL   H22544027   1.311   4.315   0.391 -1.4220 -1.9330  1.5083
  182MOL   H22644028   1.364   4.215   0.585  0.8620 -0.7704  0.5402
  182MOL   H22744029   1.596   4.069   0.230  0.8087 -0.6942 -0.2302
  182MOL   H22844030   1.504   3.932   0.265 -0.2475  0.5110 -0.0550
  182MOL   H22944031   1.637   3.977   0.372  0.0683 -0.6807 -1.0118
  182MOL   C23044032   1.513   4.354   0.669 -0.6205 -0.3072  0.2511
  182MOL   C23144033   1.546   4.276   0.794  0.3432  0.6978 -0.4832
  182MOL   C23244034   1.418   4.212   0.855  0.1443 -0.5305 -0.1509
  182MOL   O23344035   1.326   4.281   0.897 -0.1814  0.2926 -0.0974
  182MOL   O23444036   1.425   4.077   0.870 -0.3606 -0.1002 -0.0075
  182MOL   C23544037   1.317   4.002   0.928  0.2965 -0.8340  0.0956
  182MOL   H23644038   1.599   4.415   0.641 -0.1087 -0.7415  0.8775
  182MOL   H23744039   1.444   4.427   0.713 -1.0048 -0.8608  0.5644
  182MOL   H23844040   1.586   4.338   0.874  2.6524 -2.7934  1.2066
  182MOL   H23944041   1.355   3.940   1.009  1.8504 -1.6826 -1.2564
  182MOL   H24044042   1.271   3.932   0.858 -0.4729 -0.0609 -0.1743
  182MOL   H24144043   1.238   4.063   0.971 -1.4768 -1.3875 -2.2696
  182MOL   H24244044   1.619   4.198   0.768 -0.9041 -0.6231 -0.0637
  183MOL     C144045   0.530   3.817   3.070 -0.1515 -0.3169  1.2676
  183MOL     C244046   0.395   3.825   2.991 -0.1966  0.4205 -0.7400
  183MOL     C344047   0.351   3.970   2.972  0.0630  0.6073 -0.2366
  183MOL     O444048   0.401   4.064   3.044 -0.6638  0.4325  0.7569
  183MOL     O544049   0.247   3.993   2.883 -0.6968 -1.0621 -0.6527
  183MOL     C644050   0.192   4.127   2.857 -0.2433  0.0419 -0.6440
  183MOL     H744051   0.610   3.873   3.023  1.8327 -1.4638  3.1781
  183MOL     H844052   0.569   3.721   3.103  1.3957 -1.2906 -3.1341
  183MOL     H944053   0.318   3.782   3.055 -0.4462 -0.2822 -1.4950
  183MOL    H1044054   0.185   4.165   2.959 -2.2493 -0.6329 -0.5079
  183MOL    H1144055   0.093   4.112   2.813 -0.9581  0.7806  0.6951
  183MOL    H1244056   0.257   4.181   2.788  2.1823 -0.5177  1.1312
  183MOL    H1344057   0.519   3.872   3.164  0.6251 -0.4176  1.4182
  183MOL    C1444058   0.401   3.742   2.860 -0.1099  0.1212 -0.2060
  183MOL    C1544059   0.375   3.591   2.894 -0.7084  0.1133 -0.4365
  183MOL    C1644060   0.231   3.571   2.941  0.4158  0.2553 -0.3445
  183MOL    O1744061   0.128   3.566   2.863 -0.0889 -0.7298 -0.2303
  183MOL    O1844062   0.222   3.565   3.075  0.6990  0.3056 -0.0526
  183MOL    C1944063   0.094   3.543   3.133 -0.0726  0.1236  0.1369
  183MOL    H2044064   0.320   3.771   2.794 -0.6300 -1.5803 -0.3508
  183MOL    H2144065   0.496   3.751   2.808 -0.2466  1.5637 -0.2049
  183MOL    H2244066   0.445   3.569   2.975 -0.8428 -1.7895 -0.8310
  183MOL    H2344067   0.081   3.438   3.157  0.3180  0.4378  1.7385
  183MOL    H2444068   0.007   3.570   3.073  0.2318  0.4106 -0.1807
  183MOL    H2544069   0.084   3.591   3.230 -0.3032  1.6630 -0.6283
  183MOL    C2644070   0.407   3.495   2.770 -0.6496  0.5677  0.2273
  183MOL    C2744071   0.420   3.342   2.799  0.7920  0.5177  0.1954
  183MOL    C2844072   0.523   3.317   2.911  0.4409 -0.0767 -0.6092
  183MOL    O2944073   0.495   3.260   3.019 -0.3697  0.4299 -0.0208
  183MOL    O3044074   0.641   3.363   2.889  0.0190 -0.2617  0.9244
  183MOL    C3144075   0.751   3.350   2.984  0.1454  0.5393  0.3815
  183MOL    H3244076   0.339   3.511   2.686  0.6193 -3.8574 -1.8000
  183MOL    H3344077   0.506   3.531   2.744 -0.0889 -0.8741  0.3506
  183MOL    H3444078   0.464   3.302   2.707 -1.0001  1.3042 -1.0371
  183MOL    H3544079   0.833   3.421   2.976 -0.7182  1.5094 -0.0253
  183MOL    H3644080   0.792   3.250   2.970 -0.9595  0.0849  0.3690
  183MOL    H3744081   0.716   3.358   3.087  0.4377  2.4066  0.3467
  183MOL    C3844082   0.282   3.262   2.820 -0.5728  0.0548  0.3344
  183MOL    C3944083   0.287   3.113   2.767 -0.3562 -0.1232 -0.5432
  183MOL    C4044084   0.344   3.016   2.867 -0.5631 -0.4681  0.3261
  183MOL    O4144085   0.448   2.953   2.843  0.1031  0.0685  0.4827
  183MOL    O4244086   0.268   3.007   2.974  0.3988 -0.4441  0.0581
  183MOL    C4344087   0.304   2.935   3.091 -0.8250  0.0194 -0.3794
  183MOL    H4444088   0.261   3.268   2.927  0.1235  0.3982  0.4607
  183MOL    H4544089   0.206   3.323   2.770  1.0178  2.6630  0.9764
  183MOL    H4644090   0.363   3.116   2.689  0.8902  1.7187  0.6913
  183MOL    H4744091   0.256   2.837   3.088 -0.5783 -0.1189  0.1934
  183MOL    H4844092   0.272   2.999   3.173  0.1259 -1.3512  1.0806
  183MOL    H4944093   0.411   2.918   3.100 -0.7118  0.8274 -0.1928
  183MOL    C5044094   0.153   3.058   2.708  0.6446 -0.5884  0.3001
  183MOL    C5144095   0.030   3.041   2.793 -0.8616  1.2117 -0.1555
  183MOL    C5244096   7.897   3.174   2.840 -0.8488 -0.5303  0.1041
  183MOL    O5344097   7.872   3.189   2.960  0.3047 -0.0226  0.1072
  183MOL    O5444098   7.867   3.256   2.741  0.6526  0.1840  0.4881
  183MOL    C5544099   7.790   3.374   2.780  0.2768 -0.3606 -0.3625
  183MOL    H5644100   0.123   3.105   2.614 -0.4975  0.5826  1.2352
  183MOL    H5744101   0.173   2.957   2.671  3.2802 -0.0873  0.2037
  183MOL    H5844102   0.050   3.000   2.892 -1.4998  1.7445  0.1963
  183MOL    H5944103   7.687   3.345   2.763  0.0226 -0.7236  1.7208
  183MOL    H6044104   7.800   3.459   2.712  0.0338 -0.2581 -0.2691
  183MOL    H6144105   7.797   3.408   2.883 -0.7794 -0.8865 -0.1169
  183MOL    C6244106   7.858   2.946   2.727 -0.3590  0.7178  0.1642
  183MOL    C6344107   7.726   2.907   2.797  0.3219  0.1806 -0.0897
  183MOL    C6444108   7.598   2.940   2.714  0.5147  0.5993 -0.5875
  183MOL    O6544109   7.530   2.854   2.664  0.4499  0.3051  0.2025
  183MOL    O6644110   7.582   3.070   2.703  0.5486  0.8775 -0.1861
  183MOL    C6744111   7.475   3.124   2.628 -0.4507  0.6844 -0.4140
  183MOL    H6844112   7.835   2.998   2.633  0.2186  0.0242 -0.3630
  183MOL    H6944113   7.915   2.857   2.701 -0.7979  0.6784 -0.7032
  183MOL    H7044114   7.713   2.976   2.880 -0.8817  1.8133 -1.5952
  183MOL    H7144115   7.387   3.124   2.693 -0.4598  0.1388 -0.4272
  183MOL    H7244116   7.447   3.070   2.538 -0.4208  0.7596 -0.4678
  183MOL    H7344117   7.499   3.227   2.603  2.6033 -0.0332 -0.6392
  183MOL    C7444118   7.723   2.759   2.847  0.5420 -0.0561  0.1362
  183MOL    C7544119   7.845   2.717   2.942 -0.5044  0.0399  1.0222
  183MOL    C7644120   7.835   2.759   3.090  0.2427  0.3663  0.3533
  183MOL    O7744121   7.927   2.820   3.145 -0.1150  0.3503  0.1712
  183MOL    O7844122   7.724   2.707   3.147 -0.1827  0.3041 -0.3330
  183MOL    C7944123   7.720   2.699   3.287  0.2960  0.9012 -0.8157
  183MOL    H8044124   7.627   2.737   2.893  0.4245  1.6209  0.7222
  183MOL    H8144125   7.735   2.708   2.751 -0.4059  1.0788 -0.6012
  183MOL    H8244126   0.002   2.774   2.919  1.2989 -2.9624  0.2128
  183MOL    H8344127   7.632   2.644   3.321  1.3909 -1.3188 -1.4387
  183MOL    H8444128   7.726   2.799   3.328 -1.1063  0.3604  0.7532
  183MOL    H8544129   7.805   2.640   3.323 -2.3023 -1.1932  2.1576
  183MOL    C8644130   7.874   2.562   2.936 -0.4563  0.7701 -1.1970
  183MOL    C8744131   0.010   2.508   2.810  0.2980 -0.2123  0.1948
  183MOL    C8844132   0.152   2.567   2.787  0.5298  0.1079  0.3232
  183MOL    O8944133   0.169   2.648   2.694  0.4886 -0.5511 -0.3322
  183MOL    O9044134   0.242   2.530   2.879  0.4743 -0.0867  0.1165
  183MOL    C9144135   0.365   2.597   2.874 -0.0618 -0.7012  0.7121
  183MOL    H9244136   0.001   2.524   3.019  0.2064 -2.2122 -2.9675
  183MOL    H9344137   7.775   2.518   2.941 -0.2729  0.5809  2.1402
  183MOL    H9444138   7.888   2.562   2.733 -0.6592 -2.6623 -0.9098
  183MOL    H9544139   0.348   2.683   2.940 -0.0756  0.7512 -1.1538
  183MOL    H9644140   0.394   2.630   2.775 -0.6652  1.2697  1.1622
  183MOL    H9744141   0.449   2.536   2.909  1.3487  1.6071  1.4849
  183MOL    C9844142   7.923   2.361   2.791 -0.1745  0.5582  0.8934
  183MOL    C9944143   7.784   2.309   2.740 -0.7536 -0.2967  0.4275
  183MOL   C10044144   7.759   2.359   2.602 -0.7371 -0.1336  0.3982
  183MOL   O10144145   7.677   2.452   2.586  0.0936  0.2598 -0.5542
  183MOL   O10244146   7.830   2.302   2.503  0.2352  0.1423 -0.6253
  183MOL   C10344147   7.814   2.342   2.366 -0.3777  0.1262 -0.0233
  183MOL   H10444148   0.066   2.324   2.721 -0.6650 -2.4121  1.8713
  183MOL   H10544149   0.000   2.317   2.890 -3.8511 -2.4375  0.0697
  183MOL   H10644150   7.706   2.347   2.806 -1.3047  0.1597 -0.4632
  183MOL   H10744151   7.712   2.317   2.337  0.4579 -0.8957 -2.2033
  183MOL   H10844152   7.887   2.295   2.301  1.1414  0.4340  1.4306
  183MOL   H10944153   7.826   2.450   2.371 -1.1621  0.2053  0.2393
  183MOL   C11044154   7.775   2.155   2.753 -0.5136  0.3442  0.3129
  183MOL   C11144155   7.634   2.097   2.770  0.5528 -0.1186  0.1452
  183MOL   C11244156   7.607   1.957   2.710  0.0790 -0.1497  0.2777
  183MOL   O11344157   7.571   1.856   2.769 -0.0233 -0.0216 -0.1442
  183MOL   O11444158   7.624   1.960   2.572  0.7698 -0.6789 -0.2568
  183MOL   C11544159   7.637   1.836   2.502 -0.0991  0.5408  0.2531
  183MOL   H11644160   7.815   2.106   2.664  0.2017 -0.8698  1.2848
  183MOL   H11744161   7.837   2.113   2.832 -0.2131 -1.3600 -0.7912
  183MOL   H11844162   7.576   2.161   2.704  0.7940  0.3169  0.3603
  183MOL   H11944163   7.554   1.768   2.519 -1.0866  1.8641  0.8894
  183MOL   H12044164   7.736   1.799   2.526 -0.3050 -0.1744  0.0051
  183MOL   H12144165   7.646   1.857   2.395 -0.2163  1.0543  0.3387
  183MOL   C12244166   7.575   2.119   2.910  0.4528 -0.0629 -0.2496
  183MOL   C12344167   7.665   2.073   3.030 -0.1912 -0.1508 -0.4408
  183MOL   C12444168   7.687   2.197   3.124  0.1968  0.5853 -0.4539
  183MOL   O12544169   7.785   2.262   3.111 -0.3062 -0.3966  0.3167
  183MOL   O12644170   7.580   2.236   3.205 -0.0076  0.5969 -0.3876
  183MOL   C12744171   7.577   2.365   3.259  0.6618 -0.1785  0.1317
  183MOL   H12844172   7.560   2.227   2.909  1.3207  0.0841  1.1631
  183MOL   H12944173   7.474   2.079   2.913  0.0934  0.8546 -0.0621
  183MOL   H13044174   7.759   2.033   2.993 -0.0307 -0.6606  0.4852
  183MOL   H13144175   7.612   2.449   3.198  0.2916 -0.2710 -0.2089
  183MOL   H13244176   7.617   2.376   3.359  0.2672 -0.8073  0.3612
  183MOL   H13344177   7.470   2.380   3.269  0.3307 -2.7029  0.7473
  183MOL   C13444178   7.597   1.945   3.101 -0.2587 -0.3653  0.1923
  183MOL   C13544179   7.680   1.882   3.226 -0.2050  0.2421  0.1481
  183MOL   C13644180   7.672   1.953   3.352 -0.5607 -0.0699 -0.0434
  183MOL   O13744181   7.769   2.019   3.392 -0.6603  0.2186 -0.3889
  183MOL   O13844182   7.558   1.948   3.422  0.0142 -0.5689 -0.0346
  183MOL   C13944183   7.557   1.991   3.556  0.2452 -0.7833  0.2412
  183MOL   H14044184   7.512   1.989   3.153 -1.1223 -0.1411 -1.3989
  183MOL   H14144185   7.561   1.868   3.034 -0.6473 -1.6182  1.8194
  183MOL   H14244186   7.781   1.900   3.190 -0.3097  0.0061 -0.2589
  183MOL   H14344187   7.644   1.941   3.599  1.6976  0.8290 -0.7391
  183MOL   H14444188   7.458   1.978   3.601  0.1894 -0.8644  0.0957
  183MOL   H14544189   7.594   2.093   3.573  1.8740 -1.5761  1.6152
  183MOL   C14644190   7.667   1.729   3.237  0.3458  0.5703 -0.1873
  183MOL   C14744191   7.709   1.651   3.105  0.4476 -0.2871 -0.3453
  183MOL   C14844192   7.856   1.699   3.064 -0.0479  0.3388 -0.4328
  183MOL   O14944193   0.017   1.683   3.139  0.2748  1.0331 -0.1317
  183MOL   O15044194   7.868   1.753   2.937 -0.1060  0.8101 -0.4785
  183MOL   C15144195   0.061   1.782   2.874 -0.4721  0.1542 -0.1783
  183MOL   H15244196   7.715   1.697   3.330 -0.5972 -0.1671  0.0547
  183MOL   H15344197   7.566   1.699   3.265  0.9377 -0.7191  0.5894
  183MOL   H15444198   7.642   1.669   3.022  2.0425  2.6992 -1.0706
  183MOL   H15544199   0.111   1.874   2.905 -1.3179  0.7270 -0.5036
  183MOL   H15644200   0.051   1.781   2.766 -2.0372  0.6532 -0.0483
  183MOL   H15744201   0.123   1.699   2.905 -2.3864 -1.5025 -0.6800
  183MOL   C15844202   7.703   1.499   3.129 -0.5775 -1.4494 -0.3221
  183MOL   C15944203   7.607   1.428   3.032  0.3769  0.4235 -0.0817
  183MOL   C16044204   7.648   1.283   3.013 -0.2248 -0.7091 -0.3999
  183MOL   O16144205   7.714   1.219   3.093 -0.5209 -0.6359  0.1479
  183MOL   O16244206   7.598   1.228   2.890 -0.1331 -0.4399 -0.0667
  183MOL   C16344207   7.636   1.094   2.857 -1.0027  1.0235  0.1300
  183MOL   H16444208   7.803   1.464   3.103  0.7499  3.2829 -2.0809
  183MOL   H16544209   7.684   1.477   3.234 -2.2934 -0.9839 -0.5169
  183MOL   H16644210   7.617   1.467   2.931 -0.5491  1.9255  0.3827
  183MOL   H16744211   7.630   1.027   2.942 -2.0107  2.2650  1.0519
  183MOL   H16844212   7.737   1.099   2.816 -1.5265  0.9537 -1.2114
  183MOL   H16944213   7.573   1.054   2.777 -1.6791 -0.6854  1.4930
  183MOL   C17044214   7.467   1.428   3.094 -0.2872 -0.6923  0.4805
  183MOL   C17144215   7.345   1.397   3.007 -0.2130  0.3497  0.1260
  183MOL   C17244216   7.216   1.379   3.088  0.1043  0.4138  0.2229
  183MOL   O17344217   7.172   1.267   3.107  0.2923  0.5213  0.2384
  183MOL   O17444218   7.168   1.489   3.136  0.2853  0.1307  0.1923
  183MOL   C17544219   7.045   1.489   3.216  0.8160 -0.1190 -0.5847
  183MOL   H17644220   7.464   1.385   3.194  0.0426  2.1160  1.7622
  183MOL   H17744221   7.460   1.536   3.107 -0.8791 -0.6940  0.1821
  183MOL   H17844222   7.365   1.299   2.963  0.8917 -0.0268  1.4424
  183MOL   H17944223   6.956   1.450   3.166  0.8035 -0.0632 -0.6057
  183MOL   H18044224   7.032   1.585   3.265 -1.1384  0.4853 -2.2181
  183MOL   H18144225   7.059   1.416   3.296 -0.5083 -0.9904 -1.1219
  183MOL   C18244226   7.331   1.499   2.898  0.8540 -0.3801 -0.2362
  183MOL   C18344227   7.252   1.478   2.769  0.5004  0.1360 -0.6105
  183MOL   C18444228   7.103   1.516   2.797 -0.4204  0.6972 -0.2523
  183MOL   O18544229   7.064   1.633   2.808  0.2959 -0.4459 -0.1129
  183MOL   O18644230   7.028   1.408   2.805 -0.5850  0.2451  0.2951
  183MOL   C18744231   6.894   1.431   2.832  0.3298  0.1164 -0.0799
  183MOL   H18844232   7.290   1.583   2.953  1.9255 -1.8323  2.9066
  183MOL   H18944233   7.428   1.543   2.875  0.6176 -0.6201 -1.7498
  183MOL   H19044234   7.270   1.374   2.741 -1.3408 -0.4801  0.4501
  183MOL   H19144235   6.875   1.470   2.931  0.5464 -0.3774  0.1565
  183MOL   H19244236   6.840   1.338   2.815  1.5027 -1.2236  3.2719
  183MOL   H19344237   6.850   1.508   2.768 -0.9092  1.1828  2.0294
  183MOL   C19444238   7.312   1.560   2.652 -0.5987 -0.5279  0.2987
  183MOL   C19544239   7.243   1.552   2.519  0.5269  0.3497  0.9380
  183MOL   C19644240   7.292   1.673   2.442 -0.2923 -0.3183  0.2332
  183MOL   O19744241   7.380   1.668   2.348  0.1469 -0.4940 -0.2029
  183MOL   O19844242   7.231   1.785   2.495  0.4684  0.1889  0.2282
  183MOL   C19944243   7.270   1.916   2.456 -0.2406  0.0453  0.2405
  183MOL   H20044244   7.316   1.664   2.684 -0.5972 -0.6333  0.6410
  183MOL   H20144245   7.416   1.530   2.640 -0.3440  0.6870 -0.6789
  183MOL   H20244246   7.135   1.566   2.528  0.3786 -0.5366  0.6043
  183MOL   H20344247   7.236   1.942   2.356 -1.3580 -0.3779  0.4914
  183MOL   H20444248   7.377   1.930   2.443 -0.7145  2.5824 -1.1574
  183MOL   H20544249   7.231   1.988   2.528  0.9627 -0.1182  1.0717
  183MOL   C20644250   7.257   1.418   2.437 -0.5031 -0.4881 -0.2171
  183MOL   C20744251   7.176   1.293   2.492  0.0909  0.7552  0.1480
  183MOL   C20844252   7.056   1.260   2.401 -0.1514 -0.1693  0.0414
  183MOL   O20944253   7.048   1.153   2.333  0.1448 -0.1940 -0.0993
  183MOL   O21044254   6.972   1.356   2.407  0.0585  0.5666  0.4098
  183MOL   C21144255   6.835   1.339   2.368  0.6600  0.0017 -0.0261
  183MOL   H21244256   7.227   1.451   2.338 -1.8969 -0.5477  0.1647
  183MOL   H21344257   7.362   1.399   2.418 -0.5885 -0.1194 -1.0794
  183MOL   H21444258   7.118   1.332   2.576 -1.0833  1.3150 -0.8957
  183MOL   H21544259   6.812   1.325   2.262  0.5146 -1.3167  0.1673
  183MOL   H21644260   6.774   1.417   2.412  0.3905  1.1766 -2.3950
  183MOL   H21744261   6.805   1.244   2.413 -0.9173  0.7610  0.5503
  183MOL   C21844262   7.266   1.179   2.527  0.5914  0.0200 -0.5902
  183MOL   C21944263   7.194   1.056   2.592 -0.2457 -0.5782 -0.0506
  183MOL   C22044264   7.278   0.932   2.588  0.4385  0.2458  0.3276
  183MOL   O22144265   7.243   0.831   2.522  0.0884  0.5890 -0.3985
  183MOL   O22244266   7.392   0.951   2.639 -0.5317  0.2375 -0.0539
  183MOL   C22344267   7.487   0.843   2.638  0.1620 -0.1894 -0.2326
  183MOL   H22444268   7.312   1.139   2.436  0.2798  0.9557 -1.1610
  183MOL   H22544269   7.338   1.217   2.599 -1.1913 -0.3218  1.4279
  183MOL   H22644270   7.104   1.043   2.533 -0.7941 -0.1950  0.6935
  183MOL   H22744271   7.471   0.778   2.724  0.1793  0.0012 -0.0836
  183MOL   H22844272   7.582   0.893   2.654  1.1142 -1.6891 -1.0514
  183MOL   H22944273   7.494   0.788   2.545  0.3890 -0.3978 -0.0911
  183MOL   C23044274   7.147   1.082   2.742  0.0192  0.0853  0.4039
  183MOL   C23144275   7.054   0.981   2.801  0.7831  0.0879  0.2935
  183MOL   C23244276   6.907   1.001   2.747 -0.4276 -0.1678 -0.4434
  183MOL   O23344277   6.837   0.902   2.724  0.3132  0.7168  0.4222
  183MOL   O23444278   6.867   1.132   2.722  0.2975  0.3082 -0.6808
  183MOL   C23544279   6.741   1.161   2.663  0.3322 -0.0019 -0.6348
  183MOL   H23644280   7.237   1.083   2.804  0.1018 -3.0921  0.4233
  183MOL   H23744281   7.110   1.183   2.762  1.2876  0.6687 -0.1320
  183MOL   H23844282   7.034   1.002   2.906 -1.6233 -4.3711  0.8679
  183MOL   H23944283   6.662   1.117   2.723  0.4122 -1.5513 -1.6336
  183MOL   H24044284   6.727   1.123   2.562 -0.3903  0.6758 -0.7969
  183MOL   H24144285   6.743   1.270   2.650  0.3081  0.1443  0.6020
  183MOL   H24244286   7.090   0.878   2.802 -1.4742 -0.7499  1.8946
  184MOL     C144287   2.842   0.530   0.024 -0.6017 -0.1712  0.1597
  184MOL     C244288   2.737   0.428   0.058 -0.0394 -0.5217 -1.1222
  184MOL     C344289   2.659   0.395   7.866 -0.1958  0.7927 -0.8611
  184MOL     O444290   2.703   0.421   7.754 -0.1370  0.3265 -0.0397
  184MOL     O544291   2.539   0.333   7.896 -0.4811 -0.5336 -0.4565
  184MOL     C644292   2.432   0.319   7.806 -0.5129  0.0513  0.6640
  184MOL     H744293   2.910   0.538   0.108 -2.0177 -1.3663  1.4510
  184MOL     H844294   2.803   0.627   7.928  0.8456  0.1968 -0.6376
  184MOL     H944295   2.663   0.467   0.128 -0.4009 -1.7359 -0.8184
  184MOL    H1044296   2.442   0.256   7.717  1.9370 -1.5423  1.9980
  184MOL    H1144297   2.410   0.414   7.757  2.9300  0.3674 -0.4360
  184MOL    H1244298   2.343   0.282   7.857  0.9830 -1.4760  2.2217
  184MOL    H1344299   2.906   0.493   7.876  0.2520  0.5240  0.5087
  184MOL    C1444300   2.793   0.308   0.133  0.1107  0.0590  0.3650
  184MOL    C1544301   2.906   0.223   0.067 -0.2985 -0.1615 -0.1223
  184MOL    C1644302   3.048   0.264   0.104 -0.1028 -0.4514 -0.0298
  184MOL    O1744303   3.093   0.359   0.044  0.5849 -0.0697  0.0699
  184MOL    O1844304   3.105   0.188   0.194  0.6354 -0.4019  0.0770
  184MOL    C1944305   3.237   0.202   0.244 -0.0141 -0.4383 -0.6092
  184MOL    H2044306   2.821   0.335   0.235 -1.9887 -2.0735  1.5900
  184MOL    H2144307   2.701   0.253   0.155 -0.8301  1.3436 -0.2255
  184MOL    H2244308   2.900   0.239   7.892 -0.2305 -0.7437 -0.2126
  184MOL    H2344309   3.308   0.150   0.180 -1.0503 -0.3997 -1.7966
  184MOL    H2444310   3.230   0.166   0.347 -2.1428 -0.6560 -0.8002
  184MOL    H2544311   3.249   0.310   0.253  1.0396 -0.5106 -1.0866
  184MOL    C2644312   2.878   0.069   0.091  0.2392 -0.6409 -0.6988
  184MOL    C2744313   2.963   7.897   0.010 -0.7798 -0.1706  0.1442
  184MOL    C2844314   2.947   7.757   0.067  0.6201 -1.2042  0.0888
  184MOL    O2944315   3.033   7.703   0.135  0.2402 -0.7796 -0.4153
  184MOL    O3044316   2.829   7.708   0.043  0.2072  0.6600 -0.7886
  184MOL    C3144317   2.805   7.571   0.068 -0.5638 -0.6524 -0.5434
  184MOL    H3244318   2.886   0.052   0.198  1.2943 -0.2450 -0.7169
  184MOL    H3344319   2.773   0.051   0.066  0.0475  0.1462 -0.4791
  184MOL    H3444320   3.066   7.920   0.038  0.6187 -2.2302 -3.0458
  184MOL    H3544321   2.872   7.502   0.019 -2.5439 -2.4247 -0.8235
  184MOL    H3644322   2.702   7.552   0.038 -0.2890  2.7718 -4.0259
  184MOL    H3744323   2.811   7.543   0.173 -0.3944 -1.9835 -0.9001
  184MOL    C3844324   2.950   7.906   7.781  0.2243  0.2064 -0.1798
  184MOL    C3944325   2.820   7.869   7.700  0.4649  0.2915 -0.0574
  184MOL    C4044326   2.773   0.040   7.594 -0.6587  0.4418  0.6724
  184MOL    O4144327   2.651   0.070   7.580  0.2766 -0.3078 -0.0694
  184MOL    O4244328   2.869   0.090   7.521 -0.2609 -0.3419  0.2512
  184MOL    C4344329   2.831   0.184   7.423 -0.0391 -0.7817 -0.3013
  184MOL    H4444330   2.975   0.077   7.759 -2.2586  1.2843  1.7549
  184MOL    H4544331   3.032   7.848   7.740 -0.9276 -0.7270 -1.2084
  184MOL    H4644332   2.750   7.878   7.784  1.0338 -1.6947  0.6565
  184MOL    H4744333   2.854   0.277   7.475  1.6016  0.4791 -3.1884
  184MOL    H4844334   2.731   0.189   7.380  0.8874 -0.8951 -2.5291
  184MOL    H4944335   2.900   0.181   7.339  0.3363 -0.3687 -0.0049
  184MOL    C5044336   2.834   7.738   7.628  0.2856  0.6357  0.0940
  184MOL    C5144337   2.712   7.658   7.566 -0.0458  0.3532 -0.4972
  184MOL    C5244338   2.766   7.525   7.503 -0.2770 -0.0114  0.7991
  184MOL    O5344339   2.793   7.521   7.388  0.0809 -0.3791 -0.0584
  184MOL    O5444340   2.780   7.428   7.594 -0.4504 -0.2025  0.4197
  184MOL    C5544341   2.821   7.299   7.553  0.5539  0.0223  0.5026
  184MOL    H5644342   2.905   7.763   7.549  0.0069  3.3164  0.6562
  184MOL    H5744343   2.894   7.671   7.691 -0.2019 -0.3721 -0.5097
  184MOL    H5844344   2.680   7.719   7.481 -1.1962  1.3875  0.6631
  184MOL    H5944345   2.853   7.235   7.636 -1.0867  0.1931  1.3003
  184MOL    H6044346   2.906   7.319   7.488  0.2170  2.6954  0.8136
  184MOL    H6144347   2.746   7.241   7.499 -0.1056  1.1067  0.2244
  184MOL    C6244348   2.587   7.634   7.669  0.3416 -0.0222  0.4530
  184MOL    C6344349   2.446   7.599   7.607 -0.4657 -0.5916 -0.1690
  184MOL    C6444350   2.444   7.458   7.541  0.3234  0.1780 -0.3431
  184MOL    O6544351   2.405   7.440   7.425 -0.1403 -0.2442  0.5160
  184MOL    O6644352   2.474   7.359   7.619 -0.1484  0.2777  0.0410
  184MOL    C6744353   2.450   7.224   7.576 -0.1042 -0.2232  1.2352
  184MOL    H6844354   2.614   7.577   7.758 -0.1709 -0.8915  0.0539
  184MOL    H6944355   2.578   7.733   7.715 -3.1836 -0.0111 -0.1432
  184MOL    H7044356   2.437   7.658   7.516  2.7743 -0.1443 -0.2853
  184MOL    H7144357   2.520   7.205   7.495  0.4721  1.4002  1.3234
  184MOL    H7244358   2.347   7.211   7.543  0.9975  0.1713 -2.6549
  184MOL    H7344359   2.449   7.148   7.654  1.6471 -0.8784  0.6560
  184MOL    C7444360   2.329   7.627   7.705  0.4111  0.2982  0.2675
  184MOL    C7544361   2.314   7.774   7.763 -0.3013  1.2086  0.2496
  184MOL    C7644362   2.283   7.866   7.648  0.4696  0.4620  0.2039
  184MOL    O7744363   2.369   7.932   7.588  0.4395 -0.2558  0.0574
  184MOL    O7844364   2.157   7.873   7.612 -0.8561 -0.1637  0.2687
  184MOL    C7944365   2.121   0.027   7.499 -0.3179 -0.1180  0.8119
  184MOL    H8044366   2.236   7.587   7.664  0.6597  0.4033 -0.4053
  184MOL    H8144367   2.341   7.560   7.790  0.5898  0.6307  0.5028
  184MOL    H8244368   2.415   7.793   7.801 -0.9215 -0.3264  2.7777
  184MOL    H8344369   2.013   0.015   7.495 -0.2500 -0.6839  0.5942
  184MOL    H8444370   2.161   7.916   7.408 -2.6486 -0.8221  0.1083
  184MOL    H8544371   2.149   0.133   7.503  0.3224 -0.1030 -2.4763
  184MOL    C8644372   2.223   7.780   7.883  0.2147 -0.0363  0.4744
  184MOL    C8744373   2.295   7.796   0.085 -0.1844  0.6855  0.0726
  184MOL    C8844374   2.382   7.673   0.117 -0.5309  0.3702 -0.9304
  184MOL    O8944375   2.505   7.670   0.111  0.5395 -0.3783  0.4120
  184MOL    O9044376   2.301   7.576   0.153 -0.0092 -0.9781 -0.1414
  184MOL    C9144377   2.360   7.454   0.186 -1.1248  0.8383 -0.0079
  184MOL    H9244378   2.163   7.870   7.865  1.1229  0.4524 -0.1410
  184MOL    H9344379   2.161   7.691   7.879  2.7167 -1.7907 -0.2054
  184MOL    H9444380   2.212   7.779   0.154 -1.3813  0.7696 -1.3293
  184MOL    H9544381   2.421   7.477   0.274  1.7668 -3.1646 -0.8115
  184MOL    H9644382   2.423   7.410   0.108 -0.0993  1.7422  0.2951
  184MOL    H9744383   2.286   7.379   0.212  0.1562 -0.0853  1.0611
  184MOL    C9844384   2.368   0.001   0.103  0.2432  0.2689  0.4092
  184MOL    C9944385   2.377   0.052   0.248  0.7310  0.6545 -0.4932
  184MOL   C10044386   2.480   7.907   0.330  0.3534  0.7520 -0.6197
  184MOL   O10144387   2.441   7.813   0.403  0.5524  0.5403 -0.1148
  184MOL   O10244388   2.603   0.015   0.311  0.2815  0.6433 -0.0611
  184MOL   C10344389   2.706   7.868   0.370 -0.2795 -0.0273 -0.1481
  184MOL   H10444390   2.468   0.012   0.062  0.0766  1.6831  0.3632
  184MOL   H10544391   2.307   0.066   0.040 -1.0756 -1.9943 -0.7293
  184MOL   H10644392   2.287   0.034   0.306 -0.8226  1.5970 -2.5610
  184MOL   H10744393   2.682   7.851   0.475  0.5133 -2.5035 -0.3250
  184MOL   H10844394   2.808   7.906   0.378  0.1565 -1.2896  0.4711
  184MOL   H10944395   2.710   7.767   0.329  1.9262 -0.2755  0.5988
  184MOL   C11044396   2.408   0.205   0.249 -0.5081 -0.0412 -0.3445
  184MOL   C11144397   2.376   0.285   0.378 -0.3033 -0.2401 -0.4632
  184MOL   C11244398   2.474   0.263   0.495  0.3234 -0.3403 -0.6663
  184MOL   O11344399   2.437   0.227   0.610 -0.2943  0.0696  0.0583
  184MOL   O11444400   2.596   0.286   0.456 -0.2268  0.1897  0.8722
  184MOL   C11544401   2.704   0.264   0.548  0.2855 -0.2817 -0.6272
  184MOL   H11644402   2.506   0.226   0.207 -1.2181  1.9782 -1.0339
  184MOL   H11744403   2.342   0.247   0.173  0.2547  0.7198 -0.5933
  184MOL   H11844404   2.288   0.238   0.421  0.0391 -0.0641  0.4263
  184MOL   H11944405   2.686   0.315   0.643 -1.1060  2.0806 -2.0936
  184MOL   H12044406   2.802   0.288   0.508 -0.7535  1.2451 -2.3601
  184MOL   H12144407   2.702   0.157   0.565  2.2105 -0.0276  1.4386
  184MOL   C12244408   2.347   0.440   0.355  0.3294  0.1838  0.3299
  184MOL   C12344409   2.204   0.482   0.308 -0.6432 -0.9251 -0.5293
  184MOL   C12444410   2.109   0.419   0.410 -0.2544  0.3101 -0.1385
  184MOL   O12544411   2.071   0.482   0.505  0.1000  0.4281  0.2431
  184MOL   O12644412   2.059   0.293   0.378  0.3985 -0.3457  0.2286
  184MOL   C12744413   1.967   0.237   0.467  0.4326 -0.2038 -0.2265
  184MOL   H12844414   2.382   0.493   0.444 -1.1687 -0.9280  1.6162
  184MOL   H12944415   2.414   0.467   0.274  3.6789 -1.2536  2.4902
  184MOL   H13044416   2.194   0.435   0.211 -0.6004  2.3952 -2.1822
  184MOL   H13144417   2.022   0.213   0.558  1.7590  1.9610 -0.4111
  184MOL   H13244418   1.913   0.160   0.412 -4.0135  2.7858 -0.3297
  184MOL   H13344419   1.889   0.307   0.497 -0.1538 -0.6346 -0.7678
  184MOL   C13444420   2.200   0.630   0.286  0.6113 -0.0719  0.0146
  184MOL   C13544421   2.245   0.669   0.139 -0.3053  0.2498  0.1128
  184MOL   C13644422   2.159   0.602   0.029  0.2849 -0.2810  0.0756
  184MOL   O13744423   2.201   0.521   7.879  0.1025  0.1862 -0.3348
  184MOL   O13844424   2.028   0.647   0.035 -0.3347 -0.1627 -0.6686
  184MOL   C13944425   1.941   0.618   7.861  0.1704  0.3972  0.4852
  184MOL   H14044426   2.098   0.660   0.311 -0.6780 -3.4027 -0.9389
  184MOL   H14144427   2.275   0.681   0.347  2.4532 -0.6105 -1.7512
  184MOL   H14244428   2.340   0.616   0.136  1.2595  2.8881  0.7549
  184MOL   H14344429   1.921   0.511   7.857  0.4441  0.4079 -1.3875
  184MOL   H14444430   1.982   0.655   7.767  1.4425 -2.4445 -0.1168
  184MOL   H14544431   1.844   0.661   7.886 -0.7044 -2.6697  2.7276
  184MOL   C14644432   2.255   0.817   0.105 -0.6959 -0.0733 -0.2220
  184MOL   C14744433   2.394   0.876   0.105 -0.8102 -0.1008  0.2012
  184MOL   C14844434   2.499   0.789   0.031  0.0315 -0.2890  0.1618
  184MOL   O14944435   2.578   0.721   0.088  0.0243  0.2931 -0.1113
  184MOL   O15044436   2.489   0.803   7.825 -0.3615 -0.6461 -0.6696
  184MOL   C15144437   2.591   0.751   7.742 -0.2607  0.2195 -0.1698
  184MOL   H15244438   2.212   0.840   0.007 -0.9243 -0.6266 -0.2531
  184MOL   H15344439   2.187   0.877   0.166 -0.6511 -2.2544  2.0317
  184MOL   H15444440   2.426   0.869   0.210  0.4492  1.0752 -0.0796
  184MOL   H15544441   2.691   0.786   7.767 -0.1764  0.2890 -0.6110
  184MOL   H15644442   2.577   0.787   7.640 -0.9768  0.6715  0.0840
  184MOL   H15744443   2.591   0.642   7.740 -0.4074  0.2319 -0.8714
  184MOL   C15844444   2.399   1.024   0.056  0.0978  0.0326  0.6562
  184MOL   C15944445   2.445   1.124   0.165 -0.2472  0.2080  0.5399
  184MOL   C16044446   2.599   1.133   0.177 -0.1274 -0.0491 -0.1794
  184MOL   O16144447   2.662   1.153   0.281 -0.7883 -0.2211  0.3929
  184MOL   O16244448   2.656   1.133   0.058  0.4824  0.0475 -0.1850
  184MOL   C16344449   2.786   1.168   0.034  1.1745  0.4564 -0.8101
  184MOL   H16444450   2.471   1.039   7.908 -1.3390  2.1059 -0.2806
  184MOL   H16544451   2.305   1.047   0.006  0.1252  2.5514  1.6795
  184MOL   H16644452   2.418   1.085   0.263 -2.7276 -0.3104 -0.3129
  184MOL   H16744453   2.800   1.218   7.871  0.1991  0.5451 -0.9136
  184MOL   H16844454   2.857   1.088   0.053  2.1481  1.6436  0.6739
  184MOL   H16944455   2.801   1.256   0.098 -1.9988 -0.7305  1.7141
  184MOL   C17044456   2.380   1.264   0.148 -0.5739  1.0604 -0.6531
  184MOL   C17144457   2.225   1.271   0.152 -0.2878  0.0226 -0.2909
  184MOL   C17244458   2.163   1.276   0.293 -0.2902 -0.3278 -0.7221
  184MOL   O17344459   2.098   1.180   0.334  0.3524 -0.3211  0.2759
  184MOL   O17444460   2.183   1.388   0.357 -0.0115 -0.0232 -0.9638
  184MOL   C17544461   2.147   1.394   0.491  0.3120 -0.5005  0.4598
  184MOL   H17644462   2.437   1.329   0.214  1.9915 -3.7692  2.2456
  184MOL   H17744463   2.413   1.300   0.051 -0.0212 -1.4918 -1.4581
  184MOL   H17844464   2.185   1.178   0.112 -0.5925  0.7053 -1.6014
  184MOL   H17944465   2.141   1.496   0.527  1.1414 -0.6462  1.0167
  184MOL   H18044466   2.226   1.343   0.546 -0.6424  0.3261  2.6461
  184MOL   H18144467   2.054   1.339   0.506 -0.3033  0.2944 -0.3573
  184MOL   C18244468   2.175   1.387   0.064 -0.5092 -0.2668 -0.0645
  184MOL   C18344469   2.031   1.377   0.029  0.7254  0.3342  0.9072
  184MOL   C18444470   1.949   1.498   0.075 -0.4866  0.0581 -0.3423
  184MOL   O18544471   1.864   1.471   0.162  0.0447  0.3675 -0.2800
  184MOL   O18644472   1.997   1.626   0.045  0.0008  0.2215  0.2362
  184MOL   C18744473   1.926   1.739   0.102 -0.4853 -0.0947 -0.5982
  184MOL   H18844474   2.210   1.479   0.111  0.5351 -0.0514 -1.2305
  184MOL   H18944475   2.233   1.387   7.905 -0.3241  0.6557  0.0389
  184MOL   H19044476   1.978   1.292   0.073  0.5485  0.0142  0.0796
  184MOL   H19144477   1.966   1.837   0.077  1.7118 -1.2293 -1.6683
  184MOL   H19244478   1.923   1.718   0.209 -1.0943  0.1245 -0.5664
  184MOL   H19344479   1.820   1.726   0.077 -0.8924  0.3145  0.8652
  184MOL   C19444480   1.998   1.346   7.812  0.5886 -0.0624 -0.3095
  184MOL   C19544481   2.049   1.211   7.752  0.1325 -0.0200 -0.3788
  184MOL   C19644482   1.968   1.092   7.812  0.2388 -0.3851 -0.1376
  184MOL   O19744483   2.011   1.003   7.887  0.2839 -0.6561  0.2127
  184MOL   O19844484   1.841   1.100   7.769 -0.1461  0.0962  0.7051
  184MOL   C19944485   1.745   1.015   7.835  0.2143 -0.8224  0.0241
  184MOL   H20044486   1.892   1.343   7.786  0.8688 -1.8421 -1.3019
  184MOL   H20144487   2.055   1.423   7.760  0.0709  0.8565  0.4632
  184MOL   H20244488   2.149   1.193   7.791  0.2431 -1.2101 -1.1842
  184MOL   H20344489   1.699   1.077   7.912 -0.6175 -1.1108 -0.2302
  184MOL   H20444490   1.803   0.936   7.882 -2.3827 -2.3791  0.6924
  184MOL   H20544491   1.663   0.977   7.774 -0.5762  0.4367  0.2944
  184MOL   C20644492   2.048   1.225   7.603 -0.4645 -0.4399  0.2859
  184MOL   C20744493   2.083   1.114   7.501 -0.1754 -0.4108 -0.2930
  184MOL   C20844494   2.079   1.172   7.363  0.6306  0.0886  0.3959
  184MOL   O20944495   2.132   1.279   7.340 -0.4375  0.0216 -0.0054
  184MOL   O21044496   2.023   1.102   7.273  0.4043  0.0617 -0.3451
  184MOL   C21144497   2.029   1.128   7.137 -0.1121 -0.5272  0.4516
  184MOL   H21244498   1.949   1.259   7.575  0.4495  0.8501 -1.5350
  184MOL   H21344499   2.109   1.312   7.577 -2.2811  0.7373 -0.1432
  184MOL   H21444500   1.993   1.052   7.501 -0.1325 -0.5290 -3.0718
  184MOL   H21544501   2.126   1.107   7.093  0.4780  2.5017  0.1636
  184MOL   H21644502   2.028   1.237   7.128 -0.3920 -0.7496 -2.6465
  184MOL   H21744503   1.951   1.092   7.069  1.0853 -0.9037 -0.7455
  184MOL   C21844504   2.214   1.051   7.539  0.5364  0.7536  0.0297
  184MOL   C21944505   2.246   0.918   7.471  0.3452 -0.1550 -0.3823
  184MOL   C22044506   2.371   0.928   7.380  0.3846 -0.0822 -0.2784
  184MOL   O22144507   2.359   0.958   7.263 -0.3597 -0.1497 -0.3064
  184MOL   O22244508   2.491   0.916   7.444 -0.0169  0.3999  0.4702
  184MOL   C22344509   2.614   0.924   7.375 -0.3654 -0.2036 -0.6529
  184MOL   H22444510   2.295   1.123   7.522  0.6053  1.2948  2.3469
  184MOL   H22544511   2.224   1.039   7.647 -3.2232  1.8157  0.5573
  184MOL   H22644512   2.166   0.891   7.402 -0.0636  0.9898 -0.3652
  184MOL   H22744513   2.705   0.931   7.436 -0.7985  1.0853 -0.1259
  184MOL   H22844514   2.597   1.010   7.311  0.6793  0.5641  0.0734
  184MOL   H22944515   2.621   0.841   7.305  0.7909 -0.4228 -0.2864
  184MOL   C23044516   2.252   0.804   7.570  0.4998  0.2222 -0.7801
  184MOL   C23144517   2.297   0.662   7.536 -0.1178 -0.0715 -0.0473
  184MOL   C23244518   2.177   0.598   7.473  0.0922  0.0349  0.9012
  184MOL   O23344519   2.155   0.614   7.355 -0.0026  0.1895  0.2061
  184MOL   O23444520   2.112   0.513   7.554 -0.2564 -0.5391 -0.3271
  184MOL   C23544521   2.018   0.423   7.502 -0.3371 -0.5853  0.2676
  184MOL   H23644522   2.321   0.840   7.646 -1.5365  3.6764 -0.4772
  184MOL   H23744523   2.161   0.791   7.630  1.5893 -0.9826  0.6501
  184MOL   H23844524   2.327   0.610   7.627 -1.0769  0.0569  0.3483
  184MOL   H23944525   1.941   0.481   7.452  0.4081 -0.3977 -0.6711
  184MOL   H24044526   1.973   0.356   7.575 -1.2139 -0.1449  0.1312
  184MOL   H24144527   2.060   0.359   7.425  0.2152 -1.0048  0.9082
  184MOL   H24244528   2.383   0.661   7.468 -0.6030 -2.3928 -0.6728
  185MOL     C144529   5.344   0.468   6.416  0.1820  0.4332  0.2423
  185MOL     C244530   5.479   0.542   6.444  0.4595  0.0451 -0.2279
  185MOL     C344531   5.581   0.516   6.332 -0.5510 -0.0416  0.8239
  185MOL     O444532   5.565   0.423   6.251 -0.0233  0.1360  0.3944
  185MOL     O544533   5.691   0.596   6.338  0.7362  0.6484  0.0831
  185MOL     C644534   5.801   0.579   6.252  0.8043  0.5448 -0.3730
  185MOL     H744535   5.263   0.485   6.487 -0.8176 -0.3608 -0.6929
  185MOL     H844536   5.377   0.364   6.422 -0.1221  0.2770 -0.8460
  185MOL     H944537   5.530   0.492   6.526 -1.3401 -0.8299  0.3821
  185MOL    H1044538   5.831   0.475   6.261  0.0872  0.4738  1.3475
  185MOL    H1144539   5.880   0.652   6.273  1.8068 -0.5170 -0.3894
  185MOL    H1244540   5.771   0.601   6.150 -0.3146  2.8952  0.4102
  185MOL    H1344541   5.297   0.470   6.318  1.8549  0.2970 -0.5798
  185MOL    C1444542   5.452   0.690   6.474 -0.2106 -0.4624 -0.4119
  185MOL    C1544543   5.451   0.740   6.613 -0.0855  0.8797  0.0576
  185MOL    C1644544   5.337   0.683   6.692  0.1563  0.5533 -0.1847
  185MOL    O1744545   5.356   0.584   6.766  0.3196 -0.8347  0.8614
  185MOL    O1844546   5.225   0.745   6.677  0.1594  1.1621 -0.5178
  185MOL    C1944547   5.102   0.679   6.734 -0.0767  0.8135 -0.7106
  185MOL    H2044548   5.531   0.748   6.425 -1.3896  1.4964 -0.0692
  185MOL    H2144549   5.371   0.731   6.413  1.1680  0.5532 -1.5903
  185MOL    H2244550   5.432   0.848   6.608  1.5456  1.1050 -1.9166
  185MOL    H2344551   5.111   0.682   6.843  0.8694 -1.9255 -0.6729
  185MOL    H2444552   5.098   0.576   6.700  6.1965  0.2598 -0.3267
  185MOL    H2544553   5.020   0.743   6.702  0.4121  1.7779 -0.0766
  185MOL    C2644554   5.595   0.718   6.687  0.5434  0.3146 -0.1636
  185MOL    C2744555   5.645   0.834   6.777 -0.8657  0.6166 -0.9299
  185MOL    C2844556   5.550   0.850   6.897  0.1700  0.1214 -0.0196
  185MOL    O2944557   5.486   0.954   6.919  1.0210 -0.1528 -0.0964
  185MOL    O3044558   5.557   0.757   6.979  0.1672  0.8413  0.4668
  185MOL    C3144559   5.496   0.770   7.107  0.5730  0.6727  0.7522
  185MOL    H3244560   5.597   0.626   6.745 -0.5780 -0.4381 -1.2620
  185MOL    H3344561   5.681   0.682   6.630  1.2221  1.4619  0.1286
  185MOL    H3444562   5.636   0.928   6.721 -0.1576  1.4092  0.2684
  185MOL    H3544563   5.489   0.670   7.150  0.1376  0.2447 -0.2904
  185MOL    H3644564   5.396   0.814   7.102  0.7832  1.2690  1.5715
  185MOL    H3744565   5.556   0.833   7.173  1.9683  1.3729 -1.1661
  185MOL    C3844566   5.797   0.797   6.816  0.5548  0.1047 -0.2015
  185MOL    C3944567   5.862   0.911   6.899 -0.2743  0.1796  0.0447
  185MOL    C4044568   6.003   0.877   6.949 -0.5949  0.4571 -0.5320
  185MOL    O4144569   6.045   0.763   6.943  0.3224 -0.1632 -0.1607
  185MOL    O4244570   6.071   0.981   7.004  0.0155 -0.4891  0.8242
  185MOL    C4344571   6.199   0.961   7.055 -0.0513 -0.0600 -0.0058
  185MOL    H4444572   5.795   0.709   6.880 -0.5979  0.2037 -0.1057
  185MOL    H4544573   5.864   0.774   6.733 -2.0202  1.5965 -2.8089
  185MOL    H4644574   5.802   0.920   6.989 -2.1646 -2.1569 -0.9333
  185MOL    H4744575   6.253   1.053   7.080  1.0746 -0.5212 -0.7104
  185MOL    H4844576   6.262   0.911   6.980  0.2563  2.0232 -1.1821
  185MOL    H4944577   6.207   0.906   7.148  0.4887 -1.8586 -1.0930
  185MOL    C5044578   5.859   1.054   6.835 -0.9345  0.7211  0.4531
  185MOL    C5144579   5.957   1.081   6.718 -0.1006 -0.0812 -0.2126
  185MOL    C5244580   5.951   0.985   6.600  0.4547 -0.2150 -0.2699
  185MOL    O5344581   6.052   0.944   6.551 -0.1182 -0.1920 -0.4099
  185MOL    O5444582   5.828   0.968   6.553 -0.1940  0.2775  0.1874
  185MOL    C5544583   5.796   0.877   6.450 -0.5679 -0.2809  0.4197
  185MOL    H5644584   5.765   1.104   6.815  0.0197  3.1234  1.8008
  185MOL    H5744585   5.894   1.120   6.914  1.6734  0.7946 -0.6987
  185MOL    H5844586   6.060   1.075   6.753  0.1329 -1.2019 -1.0468
  185MOL    H5944587   5.689   0.883   6.429 -0.0814 -2.3576 -3.1018
  185MOL    H6044588   5.820   0.777   6.484  3.8178  0.3830 -0.3936
  185MOL    H6144589   5.846   0.911   6.358 -1.1112 -1.9197 -0.4980
  185MOL    C6244590   5.942   1.230   6.677 -0.7403  0.1559  0.0302
  185MOL    C6344591   6.048   1.309   6.598 -0.5458 -0.8582 -0.4137
  185MOL    C6444592   6.180   1.316   6.669  0.0742  0.1914  0.0222
  185MOL    O6544593   6.198   1.253   6.771 -0.0053  0.1506 -0.2462
  185MOL    O6644594   6.269   1.415   6.635 -0.3036  0.7462  0.3484
  185MOL    C6744595   6.382   1.436   6.713  0.1149 -0.4542 -0.5949
  185MOL    H6844596   5.850   1.230   6.619 -0.8731  2.0958  0.2129
  185MOL    H6944597   5.923   1.288   6.767  0.8084 -0.5504  0.8193
  185MOL    H7044598   6.025   1.416   6.595 -0.2390 -0.8000 -0.7758
  185MOL    H7144599   6.358   1.475   6.812 -0.6823  0.1159 -1.0100
  185MOL    H7244600   6.444   1.504   6.655 -2.0179  1.2881 -0.9103
  185MOL    H7344601   6.435   1.345   6.739  1.9608  1.1351  1.3952
  185MOL    C7444602   6.065   1.279   6.452 -0.0758 -0.5839  0.2965
  185MOL    C7544603   5.949   1.331   6.364  0.1692 -0.5643 -0.3324
  185MOL    C7644604   6.013   1.417   6.247 -0.3253 -0.5205 -0.1689
  185MOL    O7744605   6.094   1.373   6.167 -0.3606 -0.4951 -0.0010
  185MOL    O7844606   5.966   1.544   6.238 -0.4219 -0.0933  0.0397
  185MOL    C7944607   6.032   1.654   6.169  0.0408  0.5701  0.1023
  185MOL    H8044608   6.157   1.332   6.428 -0.8403  0.4717 -0.3570
  185MOL    H8144609   6.084   1.174   6.433 -2.1101 -0.6090 -1.7374
  185MOL    H8244610   5.890   1.405   6.418  0.8428 -1.1876  1.2985
  185MOL    H8344611   6.048   1.736   6.240 -1.7792  0.1561  1.0107
  185MOL    H8444612   5.975   1.681   6.081 -1.9945 -0.2321  1.1636
  185MOL    H8544613   6.125   1.619   6.124 -1.4824 -3.2338 -0.2620
  185MOL    C8644614   5.849   1.226   6.316 -0.9594  0.1446 -0.3938
  185MOL    C8744615   5.739   1.277   6.215  0.1070 -0.4103 -0.2605
  185MOL    C8844616   5.675   1.144   6.153 -0.0419 -0.0621  0.4157
  185MOL    O8944617   5.557   1.121   6.156  0.3674 -0.2579  0.3988
  185MOL    O9044618   5.769   1.065   6.093 -0.1846  0.1211  0.8244
  185MOL    C9144619   5.718   0.936   6.053 -0.0334 -0.2484  0.1337
  185MOL    H9244620   5.916   1.149   6.276  0.9509  1.7681 -0.4051
  185MOL    H9344621   5.794   1.184   6.399  2.9435 -3.3500  0.6159
  185MOL    H9444622   5.791   1.327   6.133  3.1481 -1.0866  1.1571
  185MOL    H9544623   5.664   0.947   5.959 -1.4022 -0.1012  0.9323
  185MOL    H9644624   5.642   0.892   6.117 -1.1152 -0.2337 -1.1062
  185MOL    H9744625   5.799   0.866   6.033  0.2182 -0.0568  0.4863
  185MOL    C9844626   5.640   1.371   6.281  0.2111  0.4749 -0.1046
  185MOL    C9944627   5.547   1.451   6.182  0.2719  0.6128 -0.1592
  185MOL   C10044628   5.407   1.464   6.235 -0.6725 -0.0098 -0.5185
  185MOL   O10144629   5.313   1.474   6.153  0.1584  0.8026  0.5088
  185MOL   O10244630   5.394   1.491   6.371  0.4513  0.1315 -0.2286
  185MOL   C10344631   5.268   1.523   6.433 -0.2611 -0.1864 -0.1461
  185MOL   H10444632   5.579   1.312   6.349  1.6034 -1.0152 -0.1176
  185MOL   H10544633   5.695   1.438   6.346 -1.3017  1.6593 -0.0258
  185MOL   H10644634   5.529   1.385   6.097  2.3373  0.0180 -0.1408
  185MOL   H10744635   5.255   1.630   6.414  0.1897  0.2940  2.0544
  185MOL   H10844636   5.263   1.506   6.541  0.8184 -0.8305 -0.1845
  185MOL   H10944637   5.184   1.474   6.384  0.4687  0.2469 -1.8538
  185MOL   C11044638   5.620   1.581   6.138 -0.3245 -0.1593 -0.0404
  185MOL   C11144639   5.568   1.677   6.033  0.1361 -0.0217  0.4492
  185MOL   C11244640   5.654   1.800   6.032 -0.3788  0.6446  0.9475
  185MOL   O11344641   5.740   1.826   6.122 -0.1261 -0.3328 -0.1595
  185MOL   O11444642   5.626   1.877   5.930  0.0328  0.2142 -0.0428
  185MOL   C11544643   5.690   2.003   5.911 -0.2319 -0.0669 -0.2414
  185MOL   H11644644   5.624   1.642   6.227 -0.4735  0.5263 -0.4989
  185MOL   H11744645   5.723   1.556   6.112 -0.6488 -1.3310 -0.2356
  185MOL   H11844646   5.474   1.719   6.070  1.3020  2.1071  1.0870
  185MOL   H11944647   5.673   2.032   5.807 -1.2054  1.7539  0.3898
  185MOL   H12044648   5.798   1.993   5.923 -0.4376  0.9354  2.9865
  185MOL   H12144649   5.649   2.081   5.976 -0.7893 -0.4643 -0.1173
  185MOL   C12244650   5.535   1.606   5.901  0.0480 -0.7592  0.4671
  185MOL   C12344651   5.654   1.548   5.822 -0.4028  0.5309 -0.8453
  185MOL   C12444652   5.654   1.395   5.838 -0.2135  0.1409 -0.6966
  185MOL   O12544653   5.742   1.331   5.897  0.0780  0.3655  0.0429
  185MOL   O12644654   5.545   1.337   5.784  0.2468 -0.2348  0.3230
  185MOL   C12744655   5.526   1.192   5.811  0.1779 -0.4508 -1.1181
  185MOL   H12844656   5.458   1.534   5.925  0.7134 -2.0205 -1.0716
  185MOL   H12944657   5.487   1.680   5.837  2.7615 -1.9152 -3.1395
  185MOL   H13044658   5.748   1.581   5.868 -1.0384  1.7763 -0.4081
  185MOL   H13144659   5.425   1.164   5.843 -0.0016 -0.1273 -1.3943
  185MOL   H13244660   5.600   1.150   5.879 -0.3102 -0.3012 -0.4899
  185MOL   H13344661   5.541   1.138   5.717 -2.7908 -3.1299 -0.1649
  185MOL   C13444662   5.650   1.589   5.676  0.5682 -0.3578  0.3159
  185MOL   C13544663   5.705   1.727   5.638  0.1072  0.1585  0.0297
  185MOL   C13644664   5.864   1.732   5.647  0.6006 -0.2262  0.0482
  185MOL   O13744665   5.922   1.808   5.727  0.2480 -0.1263 -0.3807
  185MOL   O13844666   5.925   1.655   5.546  0.1793 -0.1270 -0.3751
  185MOL   C13944667   6.065   1.639   5.544 -0.4080 -0.4174  0.4271
  185MOL   H14044668   5.713   1.517   5.623  0.1268 -2.1862  2.2303
  185MOL   H14144669   5.555   1.575   5.626  1.3378  2.0923 -1.9686
  185MOL   H14244670   5.669   1.792   5.719  0.9421 -0.2086  0.7023
  185MOL   H14344671   6.123   1.728   5.521 -0.0159 -0.9822 -0.7982
  185MOL   H14444672   6.106   1.565   5.475 -0.0776  0.7589 -0.6591
  185MOL   H14544673   6.097   1.612   5.644 -0.3635  0.1377  0.5666
  185MOL   C14644674   5.654   1.767   5.500  0.3854  0.4214  0.2877
  185MOL   C14744675   5.506   1.799   5.473 -0.1666 -0.0927 -0.4232
  185MOL   C14844676   5.447   1.915   5.563 -0.0560  0.5131  0.0376
  185MOL   O14944677   5.511   2.006   5.615  0.0133  0.3959  0.3343
  185MOL   O15044678   5.311   1.903   5.566  0.6498  0.3486 -1.0632
  185MOL   C15144679   5.251   1.989   5.658 -0.1684 -0.3217  0.0709
  185MOL   H15244680   5.723   1.849   5.477  2.0697 -0.4727  2.0088
  185MOL   H15344681   5.683   1.679   5.442  3.9792  1.0050  1.1065
  185MOL   H15444682   5.454   1.713   5.515 -0.6157 -0.3345 -1.4720
  185MOL   H15544683   5.242   2.091   5.623  1.2258  0.0349  0.7099
  185MOL   H15644684   5.316   2.008   5.744  0.6028 -0.0758 -0.5608
  185MOL   H15744685   5.160   1.951   5.706 -0.0757 -1.5092 -0.6804
  185MOL   C15844686   5.479   1.843   5.321 -0.3620 -0.6835  0.7047
  185MOL   C15944687   5.504   1.730   5.213 -0.7817 -0.3422 -0.4153
  185MOL   C16044688   5.383   1.647   5.181 -0.7064  0.3535 -0.0107
  185MOL   O16144689   5.321   1.657   5.070  0.0183  0.1838  0.0419
  185MOL   O16244690   5.356   1.556   5.276 -0.0700 -0.7138 -0.1913
  185MOL   C16344691   5.241   1.471   5.254 -0.2226 -0.0146  0.1263
  185MOL   H16444692   5.375   1.874   5.317 -0.1119 -0.1080 -2.3273
  185MOL   H16544693   5.533   1.936   5.304 -2.5245  0.7308  1.3890
  185MOL   H16644694   5.581   1.664   5.254 -0.2865  0.6892  0.3501
  185MOL   H16744695   5.167   1.489   5.331  0.0341 -0.9066  0.5937
  185MOL   H16844696   5.273   1.368   5.272  0.0380  0.2554  1.2597
  185MOL   H16944697   5.201   1.486   5.154 -0.6391 -0.5462  0.2142
  185MOL   C17044698   5.568   1.791   5.083 -0.0726 -0.3398 -0.1683
  185MOL   C17144699   5.702   1.884   5.100 -0.1546  0.0823 -0.0607
  185MOL   C17244700   5.815   1.785   5.129 -0.3962 -0.3913  0.2887
  185MOL   O17344701   5.865   1.779   5.242  0.3621  0.0893  0.3516
  185MOL   O17444702   5.846   1.701   5.026  0.0936 -0.6794  0.6186
  185MOL   C17544703   5.922   1.584   5.063 -0.0491 -0.4075  0.1611
  185MOL   H17644704   5.590   1.712   5.011  0.6125 -2.1043  1.9201
  185MOL   H17744705   5.485   1.843   5.035 -0.1754 -0.3358  0.0138
  185MOL   H17844706   5.693   1.945   5.190  1.7496 -1.9359  1.5288
  185MOL   H17944707   5.938   1.546   5.164  0.0920 -0.9538 -0.0656
  185MOL   H18044708   6.020   1.620   5.031  0.6851 -1.5517  1.0618
  185MOL   H18144709   5.897   1.503   4.994 -0.5657 -1.0113  1.0543
  185MOL   C18244710   5.732   1.962   4.971  0.4241 -0.8645  0.1828
  185MOL   C18344711   5.865   2.035   4.970 -0.4400 -0.6922 -0.0611
  185MOL   C18444712   5.902   2.084   4.835  0.3862  0.2372 -0.1184
  185MOL   O18544713   5.977   2.016   4.766 -0.5884  0.6229 -0.1110
  185MOL   O18644714   5.847   2.196   4.796 -0.1536  0.5266 -0.5462
  185MOL   C18744715   5.870   2.231   4.660 -0.1747 -0.3280 -0.6412
  185MOL   H18844716   5.732   1.903   4.880  2.0111  0.6473 -0.8341
  185MOL   H18944717   5.655   2.039   4.973  1.6313  0.3168  2.1913
  185MOL   H19044718   5.947   1.969   4.999 -0.2658 -0.8158 -0.8123
  185MOL   H19144719   5.891   2.163   4.577 -2.5247 -0.8638 -0.8219
  185MOL   H19244720   5.937   2.317   4.661 -0.5341 -0.0379 -1.4225
  185MOL   H19344721   5.778   2.277   4.625 -0.5071  0.3509  1.0595
  185MOL   C19444722   5.863   2.151   5.076 -0.2186  0.0534  0.5105
  185MOL   C19544723   6.000   2.204   5.124 -0.0876 -0.3661 -0.0184
  185MOL   C19644724   6.088   2.095   5.186  0.4322 -0.5856 -0.1973
  185MOL   O19744725   6.200   2.064   5.144 -0.3696 -0.1356 -0.2036
  185MOL   O19844726   6.051   2.073   5.317 -1.0284  0.2493 -0.2849
  185MOL   C19944727   6.111   1.968   5.388 -0.0436 -0.1495 -0.0819
  185MOL   H20044728   5.792   2.228   5.045 -1.7830 -1.0233  1.3970
  185MOL   H20144729   5.811   2.110   5.162 -0.4715 -1.2895 -0.2743
  185MOL   H20244730   5.973   2.262   5.212 -1.5538  0.4080 -0.9594
  185MOL   H20344731   6.062   1.958   5.485  1.5248 -3.0382  0.4459
  185MOL   H20444732   6.212   2.000   5.415 -1.0469  1.9502  1.3576
  185MOL   H20544733   6.111   1.881   5.323  1.9076 -0.5930  0.4703
  185MOL   C20644734   6.061   2.309   5.028  0.0454 -0.4107 -0.1454
  185MOL   C20744735   6.182   2.385   5.086 -0.0533 -0.4077 -0.1766
  185MOL   C20844736   6.251   2.471   4.983  0.4838 -0.0970  0.0766
  185MOL   O20944737   6.208   2.578   4.945 -0.4455  0.7091  0.0891
  185MOL   O21044738   6.361   2.411   4.947  0.6677 -0.2776  0.3220
  185MOL   C21144739   6.438   2.454   4.838  0.4386  0.1277 -0.1876
  185MOL   H21244740   6.082   2.271   4.928  3.1312  0.0588  0.2922
  185MOL   H21344741   5.977   2.377   5.011 -1.1401 -1.9038 -0.4147
  185MOL   H21444742   6.250   2.306   5.119 -0.5367 -0.4785  0.6703
  185MOL   H21544743   6.539   2.414   4.848  0.1058 -1.0214 -1.4160
  185MOL   H21644744   6.430   2.563   4.830  1.4094  0.2394  0.2180
  185MOL   H21744745   6.400   2.412   4.745 -1.0947 -1.2024  1.0079
  185MOL   C21844746   6.141   2.482   5.205 -0.0171  0.3448 -0.9015
  185MOL   C21944747   6.245   2.545   5.294 -0.5574 -0.5027 -0.5008
  185MOL   C22044748   6.338   2.444   5.372 -0.5608  0.2868  0.4233
  185MOL   O22144749   6.454   2.428   5.331 -0.1204  0.3254  0.5354
  185MOL   O22244750   6.277   2.377   5.465  0.0004  0.5084 -0.3999
  185MOL   C22344751   6.324   2.252   5.486 -0.3653  0.0096  0.1040
  185MOL   H22444752   6.066   2.554   5.172 -1.1797  0.8140  2.5107
  185MOL   H22544753   6.080   2.424   5.274 -0.2991  0.9611 -0.6236
  185MOL   H22644754   6.189   2.587   5.377  0.4268 -1.6920  0.7904
  185MOL   H22744755   6.345   2.181   5.406  0.4808 -0.3919  0.6800
  185MOL   H22844756   6.262   2.200   5.559  0.9435  2.4403  3.0363
  185MOL   H22944757   6.419   2.262   5.538 -0.9745 -1.4810  1.5426
  185MOL   C23044758   6.329   2.656   5.234  0.7159 -0.5737  0.2316
  185MOL   C23144759   6.253   2.787   5.209  0.2288  0.7652  0.2430
  185MOL   C23244760   6.209   2.863   5.335 -0.1439  0.7520 -0.8871
  185MOL   O23344761   6.088   2.883   5.370  0.1356  0.7322  0.3892
  185MOL   O23444762   6.312   2.883   5.416  0.0532 -0.3262  0.2031
  185MOL   C23544763   6.293   2.955   5.536 -0.2312 -0.1824 -0.2746
  185MOL   H23644764   6.414   2.679   5.298  1.0445 -0.2610 -0.3191
  185MOL   H23744765   6.380   2.632   5.141 -0.2327 -1.6626 -0.0202
  185MOL   H23844766   6.165   2.770   5.147 -1.3657  1.3733  2.2538
  185MOL   H23944767   6.383   2.966   5.597  0.0379 -1.0107 -0.5181
  185MOL   H24044768   6.230   2.889   5.596 -1.2794 -1.2425 -2.4761
  185MOL   H24144769   6.247   3.052   5.519 -0.6376 -0.4982 -0.9849
  185MOL   H24244770   6.321   2.856   5.160 -1.7537  1.1440 -2.0716
  186MOL     C144771   1.633   0.106   5.240  0.3632 -0.3015  0.2539
  186MOL     C244772   1.694   0.249   5.259 -0.2534  0.6914  0.5050
  186MOL     C344773   1.600   0.356   5.194 -0.2416 -0.1496 -0.1785
  186MOL     O444774   1.487   0.376   5.233 -0.5806 -0.3710  0.2912
  186MOL     O544775   1.644   0.412   5.079  0.2847 -0.2672  0.4668
  186MOL     C644776   1.573   0.522   5.017  0.8781  0.2836 -0.1726
  186MOL     H744777   1.672   0.027   5.303  0.4833  0.0497  0.6276
  186MOL     H844778   1.636   0.068   5.138 -0.9675 -0.4673  0.2600
  186MOL     H944779   1.794   0.247   5.216  1.0672 -0.1463  3.4928
  186MOL    H1044780   1.629   0.564   4.933  0.4829  0.4668 -0.3431
  186MOL    H1144781   1.566   0.608   5.082  0.9619 -0.0212  0.2431
  186MOL    H1244782   1.473   0.513   4.974  1.2105 -1.2272 -0.6762
  186MOL    H1344783   1.525   0.109   5.257  0.4794 -1.6537  1.2869
  186MOL    C1444784   1.708   0.275   5.410  0.0817  0.0646 -0.3824
  186MOL    C1544785   1.807   0.177   5.489 -0.0015  0.4747  0.2525
  186MOL    C1644786   1.949   0.163   5.422 -0.4180  0.4256 -0.0296
  186MOL    O1744787   2.049   0.226   5.452  0.0762 -0.1990 -0.3074
  186MOL    O1844788   1.956   0.058   5.342 -0.0777 -0.0865 -0.2970
  186MOL    C1944789   2.082   0.002   5.302 -0.1076  0.0383  0.2120
  186MOL    H2044790   1.747   0.373   5.435  2.6997 -1.4492  1.7865
  186MOL    H2144791   1.610   0.276   5.459  0.2606  0.2803 -0.0266
  186MOL    H2244792   1.747   0.086   5.478 -0.2651  0.7104 -0.2822
  186MOL    H2344793   2.063   7.865   5.220 -0.2136 -0.4532  0.6536
  186MOL    H2444794   2.132   7.890   5.388  1.1484  1.1432  0.0682
  186MOL    H2544795   2.136   0.087   5.262  1.9982 -1.7204 -0.7898
  186MOL    C2644796   1.808   0.221   5.633 -0.2972 -0.0081  0.1958
  186MOL    C2744797   1.742   0.119   5.728  0.4371 -0.8103  0.2858
  186MOL    C2844798   1.800   7.906   5.710 -0.2866 -0.1336 -0.1968
  186MOL    O2944799   1.727   7.807   5.701  0.1022  0.6147 -0.3443
  186MOL    O3044800   1.930   7.900   5.694  0.1152 -0.0403 -0.5628
  186MOL    C3144801   1.974   7.778   5.643 -0.2358 -0.5035 -0.1523
  186MOL    H3244802   1.911   0.239   5.661 -0.6559 -1.4275  2.5365
  186MOL    H3344803   1.749   0.311   5.653 -0.5162  0.0026 -0.4841
  186MOL    H3444804   1.638   0.101   5.702 -0.1191 -0.3599  2.1665
  186MOL    H3544805   2.078   7.784   5.611 -0.6253  2.2220 -1.0854
  186MOL    H3644806   1.922   7.759   5.549 -2.0207 -0.2902  0.7725
  186MOL    H3744807   1.971   7.717   5.733  1.6099  1.7118  1.4930
  186MOL    C3844808   1.761   0.166   5.875 -0.2016  0.1586  1.2417
  186MOL    C3944809   1.669   0.099   5.970 -0.3024 -0.5695 -0.2397
  186MOL    C4044810   1.751   0.030   6.076 -0.0715  0.1477  0.3531
  186MOL    O4144811   1.785   0.087   6.178 -0.2406 -0.8244  0.5175
  186MOL    O4244812   1.794   7.843   6.029  0.4834 -0.1203 -0.4636
  186MOL    C4344813   1.898   7.785   6.101 -0.0425  0.1880 -0.3510
  186MOL    H4444814   1.862   0.142   5.907 -1.1804 -2.4196  2.5832
  186MOL    H4544815   1.747   0.274   5.881 -2.0204 -0.0385  0.9280
  186MOL    H4644816   1.612   0.018   5.925 -2.9125  1.4368 -0.7174
  186MOL    H4744817   1.867   7.761   6.203 -1.3429  0.3297 -0.7098
  186MOL    H4844818   1.980   7.857   6.102 -0.3465  0.5476 -1.1792
  186MOL    H4944819   1.939   7.696   6.051  0.3259  1.2381 -1.9388
  186MOL    C5044820   1.580   0.196   6.053  0.7230 -0.0669 -0.0747
  186MOL    C5144821   1.483   0.285   5.981  0.4527 -0.1416  0.2932
  186MOL    C5244822   1.413   0.211   5.868  0.8201 -0.4764 -0.1116
  186MOL    O5344823   1.435   0.244   5.750 -0.0519 -0.1172 -0.4316
  186MOL    O5444824   1.323   0.120   5.910  0.1171  0.4459 -0.3055
  186MOL    C5544825   1.246   0.062   5.816  0.4117  1.0571  1.0620
  186MOL    H5644826   1.513   0.126   6.103  1.4213  0.4207  1.5844
  186MOL    H5744827   1.633   0.255   6.127  0.5825  0.4420 -0.3825
  186MOL    H5844828   1.537   0.371   5.941  2.5898 -0.7799  1.6965
  186MOL    H5944829   1.303   7.929   5.750  0.6435  0.8692  1.4478
  186MOL    H6044830   1.202   0.133   5.746 -3.4854 -1.7023  0.4940
  186MOL    H6144831   1.166   0.007   5.866  0.5344  0.4035  0.5559
  186MOL    C6244832   1.387   0.351   6.083 -0.1370 -0.1157 -0.0291
  186MOL    C6344833   1.455   0.467   6.169  0.0226 -0.6608 -0.0244
  186MOL    C6444834   1.519   0.580   6.085 -0.1190 -0.5712  0.3498
  186MOL    O6544835   1.636   0.579   6.054  0.1566 -0.1816 -0.1866
  186MOL    O6644836   1.439   0.670   6.044  0.1215 -0.4842  0.2929
  186MOL    C6744837   1.471   0.780   5.960 -0.1336  0.1409 -0.0645
  186MOL    H6844838   1.308   0.403   6.030 -0.2856 -0.0444  0.2602
  186MOL    H6944839   1.332   0.280   6.145  2.3309 -1.8912  0.2273
  186MOL    H7044840   1.547   0.439   6.221  0.9049 -0.8316 -1.6742
  186MOL    H7144841   1.532   0.850   6.016 -1.0828  0.8062  0.1501
  186MOL    H7244842   1.376   0.828   5.934 -0.2955 -0.6162 -0.9126
  186MOL    H7344843   1.525   0.742   5.873  0.1847 -3.4768  1.6091
  186MOL    C7444844   1.365   0.515   6.281  0.8620  0.0315  0.1610
  186MOL    C7544845   1.408   0.485   6.423  0.1932 -0.0722  0.6332
  186MOL    C7644846   1.520   0.583   6.452  0.1411 -0.1452 -0.8896
  186MOL    O7744847   1.637   0.546   6.438  1.2141 -0.5185  0.3418
  186MOL    O7844848   1.476   0.717   6.470 -0.0630 -0.2415  0.5087
  186MOL    C7944849   1.568   0.825   6.474  0.0724 -0.1095  0.2157
  186MOL    H8044850   1.344   0.621   6.268  1.3977  0.1543  0.3007
  186MOL    H8144851   1.270   0.463   6.265  0.1647  1.4491 -0.3693
  186MOL    H8244852   1.445   0.384   6.440 -2.4469 -0.8431  2.0437
  186MOL    H8344853   1.586   0.886   6.385  2.9311 -1.8762 -0.4997
  186MOL    H8444854   1.672   0.800   6.497 -0.3048 -2.5581 -0.6312
  186MOL    H8544855   1.531   0.899   6.544  0.7154  1.2416 -0.8592
  186MOL    C8644856   1.287   0.507   6.522 -0.3648 -0.5358  0.9318
  186MOL    C8744857   1.162   0.415   6.522 -0.1078  0.3565 -0.8408
  186MOL    C8844858   1.199   0.292   6.600 -0.3414 -0.0528  0.0557
  186MOL    O8944859   1.255   0.301   6.714  0.1764  0.4886  0.2050
  186MOL    O9044860   1.159   0.185   6.540 -0.2850  0.4233 -0.1788
  186MOL    C9144861   1.155   0.069   6.622  0.2712  0.3033  0.2050
  186MOL    H9244862   1.319   0.528   6.624 -1.0017  3.1819  0.4500
  186MOL    H9344863   1.251   0.606   6.494  0.8907  0.1167  1.5930
  186MOL    H9444864   1.137   0.376   6.423 -1.6663 -0.3757 -0.1914
  186MOL    H9544865   1.102   7.922   6.570 -0.3030  0.4409  0.5705
  186MOL    H9644866   1.106   0.074   6.720  1.1968 -1.6280  0.7995
  186MOL    H9744867   1.257   0.037   6.643  0.1743  1.2461  2.2878
  186MOL    C9844868   1.033   0.496   6.576  0.0375 -0.2415  0.2032
  186MOL    C9944869   0.908   0.426   6.644 -0.7568 -0.3014 -0.3969
  186MOL   C10044870   0.847   0.311   6.569  0.1318 -0.1347 -0.6135
  186MOL   O10144871   0.884   0.271   6.455  0.3555  0.5628  0.1406
  186MOL   O10244872   0.734   0.265   6.631  0.0396 -0.9587 -0.1619
  186MOL   C10344873   0.658   0.152   6.577  0.7303 -0.5942  0.3263
  186MOL   H10444874   1.058   0.569   6.654  0.0177  2.4420 -2.2286
  186MOL   H10544875   1.003   0.558   6.491  2.2035  1.4552  0.5985
  186MOL   H10644876   0.829   0.500   6.638  0.2222  0.8756  0.8580
  186MOL   H10744877   0.723   0.064   6.572  0.1969 -0.9048 -1.0873
  186MOL   H10844878   0.639   0.180   6.474 -0.2258  0.5452  0.7956
  186MOL   H10944879   0.563   0.137   6.628  0.0612 -0.3692 -0.8517
  186MOL   C11044880   0.923   0.413   6.792 -0.1357  0.0475 -0.5126
  186MOL   C11144881   0.872   0.533   6.884 -0.7508  0.5039  0.1002
  186MOL   C11244882   0.727   0.570   6.857 -0.3112 -0.5625  0.0432
  186MOL   O11344883   0.698   0.672   6.797  0.0928 -0.2730 -0.1171
  186MOL   O11444884   0.651   0.476   6.903  0.5137  0.4775  0.5499
  186MOL   C11544885   0.513   0.469   6.878 -0.7449 -0.6001  0.2015
  186MOL   H11644886   0.860   0.329   6.820  0.7091 -0.9645 -1.6155
  186MOL   H11744887   1.026   0.395   6.822  0.1527  0.9241 -0.9472
  186MOL   H11844888   0.941   0.611   6.852  0.4304 -0.7293 -0.4103
  186MOL   H11944889   0.470   0.512   6.968 -0.0901  0.9822 -0.2110
  186MOL   H12044890   0.486   0.366   6.855 -0.1572 -0.4486 -1.2424
  186MOL   H12144891   0.474   0.540   6.805 -0.2810  0.8904  1.3649
  186MOL   C12244892   0.909   0.537   7.038 -0.6546 -0.1400 -0.2662
  186MOL   C12344893   0.852   0.438   7.139 -0.0198 -0.5553 -0.4284
  186MOL   C12444894   0.902   0.301   7.107 -0.3931  0.2830 -0.6879
  186MOL   O12544895   1.016   0.264   7.126  0.3564 -0.4523  0.5208
  186MOL   O12644896   0.803   0.231   7.047  0.4174 -0.7908 -0.1509
  186MOL   C12744897   0.839   0.102   6.995  0.3338  0.2329  0.4691
  186MOL   H12844898   1.018   0.538   7.034 -0.6055 -2.5535 -0.0840
  186MOL   H12944899   0.886   0.636   7.079 -2.4191 -0.1041 -1.2856
  186MOL   H13044900   0.746   0.436   7.115  0.5587  0.5275 -3.2090
  186MOL   H13144901   0.752   0.049   6.955  0.2475 -0.5764  1.6915
  186MOL   H13244902   0.876   0.039   7.076 -1.8259 -1.5000  0.1831
  186MOL   H13344903   0.910   0.109   6.913 -0.1899 -1.0875 -0.1105
  186MOL   C13444904   0.888   0.477   7.278 -0.3353 -0.4211 -0.3555
  186MOL   C13544905   0.766   0.525   7.360 -0.5644  0.1616 -0.2261
  186MOL   C13644906   0.712   0.660   7.317  0.0700 -0.2323  0.3643
  186MOL   O13744907   0.718   0.756   7.394 -0.3805  0.4508  0.0698
  186MOL   O13844908   0.655   0.662   7.189 -0.0443  0.1470  0.1776
  186MOL   C13944909   0.599   0.785   7.146 -0.1941  0.4974 -0.0146
  186MOL   H14044910   0.946   0.403   7.333 -0.6938  0.0674  0.6937
  186MOL   H14144911   0.964   0.556   7.284 -0.6742 -0.1032 -0.2427
  186MOL   H14244912   0.796   0.540   7.463  0.3620 -2.0990 -0.1300
  186MOL   H14344913   0.607   0.802   7.039 -0.5281 -2.1187 -0.4788
  186MOL   H14444914   0.653   0.865   7.197 -0.1082 -1.0080  2.3553
  186MOL   H14544915   0.494   0.790   7.173  0.0012 -1.4899  1.2057
  186MOL   C14644916   0.652   0.421   7.372 -0.7669  0.1609  0.6541
  186MOL   C14744917   0.642   0.343   7.503 -0.0271  0.4702  0.3324
  186MOL   C14844918   0.774   0.273   7.526  0.4385 -0.7112  0.5043
  186MOL   O14944919   0.865   0.324   7.590 -0.0894  0.4378 -0.1860
  186MOL   O15044920   0.777   0.151   7.466 -0.1209 -0.4770 -0.1492
  186MOL   C15144921   0.891   0.067   7.484  0.0728 -0.7736  0.6839
  186MOL   H15244922   0.553   0.467   7.366 -0.5347  0.4511 -1.3017
  186MOL   H15344923   0.651   0.355   7.286 -0.0550  1.2430 -0.2044
  186MOL   H15444924   0.574   0.258   7.496  2.8706 -1.7724 -1.7751
  186MOL   H15544925   0.984   0.122   7.469 -1.5647  1.7717 -0.4421
  186MOL   H15644926   0.890   7.920   7.410 -0.8153  0.7332 -0.9741
  186MOL   H15744927   0.890   0.026   7.585  1.6858 -0.9443  0.6343
  186MOL   C15844928   0.594   0.428   7.622  0.4094 -0.7953 -0.8744
  186MOL   C15944929   0.580   0.365   7.762 -0.0026 -0.0428  0.0377
  186MOL   C16044930   0.501   0.234   7.764 -1.4702  0.4983 -0.0118
  186MOL   O16144931   0.389   0.242   7.813 -0.3204 -0.2336  0.2949
  186MOL   O16244932   0.576   0.126   7.719  0.0658 -0.6558  0.0218
  186MOL   C16344933   0.520   0.004   7.677 -0.7649  0.4080  0.4020
  186MOL   H16444934   0.666   0.509   7.627  1.3057 -1.6055 -0.3471
  186MOL   H16544935   0.502   0.483   7.602  0.2301 -0.3650  0.9994
  186MOL   H16644936   0.514   0.438   7.808  0.5968  0.1323  0.6239
  186MOL   H16744937   0.413   7.918   7.682 -0.3387 -1.6405  2.2412
  186MOL   H16844938   0.572   7.858   7.731 -2.9688 -0.3748  1.4386
  186MOL   H16944939   0.555   7.922   7.575  2.9210  0.8721  1.5440
  186MOL   C17044940   0.711   0.361   7.842  0.1210  0.1841 -0.0607
  186MOL   C17144941   0.688   0.393   0.055  0.2547  0.0628  0.4775
  186MOL   C17244942   0.803   0.334   0.136  0.2553 -0.6392 -0.5455
  186MOL   O17344943   0.778   0.254   0.230 -0.5225 -0.0724 -0.0080
  186MOL   O17444944   0.919   0.400   0.113  0.0228  0.0315 -0.1339
  186MOL   C17544945   1.029   0.364   0.189 -0.4192 -0.7308  0.6829
  186MOL   H17644946   0.764   0.267   7.825  0.9553  0.7096 -0.3385
  186MOL   H17744947   0.780   0.437   7.807  0.9901 -0.7912 -0.4628
  186MOL   H17844948   0.601   0.340   0.094 -0.7907  1.3451 -0.0757
  186MOL   H17944949   0.998   0.354   0.293  1.3372 -1.4099  1.1571
  186MOL   H18044950   1.104   0.441   0.171 -0.7727 -0.5687 -0.1329
  186MOL   H18144951   1.071   0.269   0.158 -0.0809 -0.5256  0.5093
  186MOL   C18244952   0.682   0.546   0.077  0.2166  0.6215  0.1783
  186MOL   C18344953   0.649   0.589   0.221 -0.1366  0.1003 -0.4425
  186MOL   C18444954   0.741   0.700   0.276 -0.1171  0.4253  0.6236
  186MOL   O18544955   0.727   0.819   0.250 -0.5765 -0.7204  0.0191
  186MOL   O18644956   0.837   0.647   0.345 -0.3874  0.2956  0.3024
  186MOL   C18744957   0.915   0.739   0.414  0.5378  0.2989  0.5862
  186MOL   H18844958   0.783   0.574   0.046  0.1107  0.7392 -0.0658
  186MOL   H18944959   0.608   0.584   0.007  0.7339 -0.5202 -1.0153
  186MOL   H19044960   0.670   0.505   0.287 -1.8195  0.3139  0.3799
  186MOL   H19144961   0.850   0.805   0.472  0.1699 -1.0377  1.7348
  186MOL   H19244962   0.969   0.809   0.351  2.4082 -1.8085 -0.2315
  186MOL   H19344963   0.984   0.695   0.487  0.1389 -0.7332  0.3516
  186MOL   C19444964   0.501   0.623   0.238  0.6131 -0.2264  0.3674
  186MOL   C19544965   0.421   0.511   0.309  0.0229  0.4219 -0.2102
  186MOL   C19644966   0.359   0.568   0.438 -0.1118  0.4489  0.1040
  186MOL   O19744967   0.399   0.526   0.543  0.1524 -0.0556  0.2585
  186MOL   O19844968   0.271   0.677   0.427  0.0071 -0.2467  0.2049
  186MOL   C19944969   0.205   0.720   0.543 -0.4702 -0.6175 -0.2753
  186MOL   H20044970   0.488   0.715   0.296  0.6023  0.6261 -0.9801
  186MOL   H20144971   0.462   0.661   0.144  1.8471 -0.3454 -0.1899
  186MOL   H20244972   0.492   0.438   0.349  0.7839  0.6565 -1.0986
  186MOL   H20344973   0.119   0.778   0.510 -1.5172 -1.0534  1.5858
  186MOL   H20444974   0.270   0.789   0.597 -0.4901 -0.9926  0.2352
  186MOL   H20544975   0.177   0.644   0.616  0.7925  0.9593  1.9240
  186MOL   C20644976   0.319   0.440   0.215  0.6535 -0.3461 -0.3754
  186MOL   C20744977   0.251   0.307   0.262  0.3923  0.1618 -0.3620
  186MOL   C20844978   0.100   0.303   0.222 -0.7181 -0.3906  0.0057
  186MOL   O20944979   0.012   0.313   0.306 -0.6022  0.3329 -0.2391
  186MOL   O21044980   0.086   0.327   0.091  0.1907 -0.1622 -0.0059
  186MOL   C21144981   7.900   0.342   0.023  0.1994 -0.7306  0.3439
  186MOL   H21244982   0.237   0.509   0.193  0.2360 -1.5241 -2.7259
  186MOL   H21344983   0.374   0.424   0.122  1.5090 -1.0078  0.2434
  186MOL   H21444984   0.248   0.308   0.371 -0.8436 -1.3491 -0.3666
  186MOL   H21544985   7.883   0.448   0.005 -1.4921 -1.4295 -2.5174
  186MOL   H21644986   7.819   0.280   0.063 -0.1812 -0.1686  0.4437
  186MOL   H21744987   7.922   0.297   7.858 -0.9546  0.2728 -0.3846
  186MOL   C21844988   0.320   0.168   0.228 -0.3869  1.0403 -0.0860
  186MOL   C21944989   0.466   0.145   0.282  0.8313  0.2690  0.0132
  186MOL   C22044990   0.482   0.133   0.431 -0.4039  0.1816  0.2610
  186MOL   O22144991   0.385   0.126   0.508  0.2215  0.0901 -0.0183
  186MOL   O22244992   0.616   0.121   0.466  0.1207  0.2018 -0.4434
  186MOL   C22344993   0.650   0.114   0.601 -0.7989 -0.3726 -0.2362
  186MOL   H22444994   0.257   0.092   0.275 -0.7227  1.7819  0.6660
  186MOL   H22544995   0.309   0.142   0.122  2.6778 -1.5876  0.1480
  186MOL   H22644996   0.528   0.231   0.256  2.6009 -1.5762 -2.1641
  186MOL   H22744997   0.756   0.087   0.609 -0.5938 -0.1380 -1.9229
  186MOL   H22844998   0.595   0.024   0.631  1.1398 -0.5459  3.0093
  186MOL   H22944999   0.625   0.203   0.658 -0.6019 -0.6431  0.2811
  186MOL   C23045000   0.534   0.028   0.213  0.0923  0.6262 -0.0182
  186MOL   C23145001   0.455   7.826   0.212  0.3253  0.5576  0.1696
  186MOL   C23245002   0.491   7.745   0.089  0.5705 -0.3009  0.1393
  186MOL   O23345003   0.604   7.706   0.069 -0.2605  0.3159  0.0516
  186MOL   O23445004   0.386   7.724   0.010  0.1898  0.2444 -0.1580
  186MOL   C23545005   0.388   7.626   7.840  0.1369  0.4223  0.0176
  186MOL   H23645006   0.542   0.054   0.108 -0.1071 -0.3303 -0.2735
  186MOL   H23745007   0.636   0.008   0.246  0.3986  1.1167 -0.6564
  186MOL   H23845008   0.350   7.844   0.189  0.3220  0.1721 -0.1113
  186MOL   H23945009   0.430   7.677   7.753  0.5977 -0.1490 -0.0947
  186MOL   H24045010   0.284   7.596   7.825  0.9134 -2.5541  0.3804
  186MOL   H24145011   0.453   7.546   7.874  1.2640  1.2984 -0.0546
  186MOL   H24245012   0.456   7.773   0.308 -0.1068 -1.6076 -0.9867
  187MOL     C145013   1.342   3.289   3.778  0.4497 -0.7623 -0.1790
  187MOL     C245014   1.450   3.315   3.891  0.1321  0.5403  0.9006
  187MOL     C345015   1.415   3.435   3.974 -0.8213 -0.7666 -0.5468
  187MOL     O445016   1.507   3.517   3.992  0.5455 -0.6375 -0.2946
  187MOL     O545017   1.299   3.426   4.035  0.0410  0.4661 -0.0541
  187MOL     C645018   1.250   3.532   4.109 -0.4523  0.4417 -0.1997
  187MOL     H745019   1.380   3.221   3.701  0.2997  0.5414 -1.4324
  187MOL     H845020   1.312   3.376   3.720 -2.8494 -1.5600  0.2603
  187MOL     H945021   1.545   3.328   3.840 -0.1243  1.3495  0.6205
  187MOL    H1045022   1.265   3.636   4.083 -0.6774  0.2354 -1.1960
  187MOL    H1145023   1.305   3.520   4.202  0.0601  1.1784 -0.4035
  187MOL    H1245024   1.146   3.525   4.140  0.5625 -1.3262  2.9543
  187MOL    H1345025   1.254   3.245   3.824  0.5734 -1.6991 -0.8068
  187MOL    C1445026   1.458   3.185   3.970 -0.0858 -1.0521 -0.1317
  187MOL    C1545027   1.597   3.166   4.034 -0.6189  0.5647  0.1284
  187MOL    C1645028   1.595   3.155   4.187  1.5029  0.2280 -0.7051
  187MOL    O1745029   1.591   3.049   4.251  0.2831  0.0791 -0.2649
  187MOL    O1845030   1.571   3.274   4.237 -0.6406  0.0485  0.3201
  187MOL    C1945031   1.552   3.301   4.378  0.2403  0.0822  0.1017
  187MOL    H2045032   1.385   3.188   4.051  1.4625 -0.9434  1.2866
  187MOL    H2145033   1.440   3.099   3.906 -0.9627 -0.1795 -1.0960
  187MOL    H2245034   1.647   3.255   3.998  3.3313 -2.2937 -1.7925
  187MOL    H2345035   1.625   3.242   4.432  1.2397  1.7524  0.5941
  187MOL    H2445036   1.448   3.277   4.404  0.3201 -0.1512  0.2050
  187MOL    H2545037   1.578   3.403   4.405  0.8916  0.0089 -0.2446
  187MOL    C2645038   1.674   3.050   3.967 -0.1699  0.7033  0.4447
  187MOL    C2745039   1.742   3.089   3.837  0.4555 -0.4593 -0.0185
  187MOL    C2845040   1.864   3.183   3.854  0.8775  0.0051 -0.5025
  187MOL    O2945041   1.898   3.221   3.963  0.1620  0.4621 -0.1132
  187MOL    O3045042   1.915   3.233   3.733  0.2174 -0.1887 -0.0242
  187MOL    C3145043   2.040   3.303   3.739 -0.3287 -0.2077 -0.9197
  187MOL    H3245044   1.745   3.003   4.036 -0.5436  0.8410  0.9244
  187MOL    H3345045   1.601   2.974   3.938  1.1290  0.1645 -1.5020
  187MOL    H3445046   1.670   3.151   3.785 -1.5890 -1.9967  0.8878
  187MOL    H3545047   2.100   3.233   3.681 -0.2947 -1.8779  1.0675
  187MOL    H3645048   2.092   3.304   3.835 -0.5270 -0.9482 -0.8018
  187MOL    H3745049   2.042   3.397   3.684  0.6178  0.7746  0.7393
  187MOL    C3845050   1.774   2.970   3.749  0.3786  0.0410  0.9464
  187MOL    C3945051   1.651   2.898   3.685  0.0657 -0.0145 -0.0026
  187MOL    C4045052   1.583   2.975   3.576  0.4905 -0.5314  0.2800
  187MOL    O4145053   1.643   3.030   3.490 -0.5336  0.4703  0.0495
  187MOL    O4245054   1.449   2.964   3.583  0.0506 -0.3622  0.5193
  187MOL    C4345055   1.369   3.031   3.487 -0.2135 -0.0409  0.9926
  187MOL    H4445056   1.833   2.998   3.661  0.4288  1.9665  1.5692
  187MOL    H4545057   1.825   2.894   3.808  0.6432  0.3132  1.0721
  187MOL    H4645058   1.569   2.882   3.755 -1.6704 -1.7251 -2.3367
  187MOL    H4745059   1.261   3.023   3.497 -0.2169  0.6064  1.4764
  187MOL    H4845060   1.393   3.002   3.384  0.6950  1.1356  0.8693
  187MOL    H4945061   1.384   3.139   3.491 -2.2534  0.2627  0.8579
  187MOL    C5045062   1.691   2.756   3.643  0.1151  0.2068 -0.1584
  187MOL    C5145063   1.674   2.651   3.757 -0.2016  0.2246  0.2741
  187MOL    C5245064   1.528   2.633   3.800  0.3095 -0.8787  0.1618
  187MOL    O5345065   1.493   2.631   3.918  0.0288 -0.4380  0.6003
  187MOL    O5445066   1.450   2.606   3.699  0.2107  1.0046 -0.3898
  187MOL    C5545067   1.320   2.560   3.729  0.1105 -0.5162 -0.4083
  187MOL    H5645068   1.629   2.723   3.559  1.4560 -3.1619  0.1125
  187MOL    H5745069   1.794   2.755   3.606 -0.3878  0.0940 -1.5880
  187MOL    H5845070   1.724   2.704   3.839  3.1752 -0.8045 -1.0229
  187MOL    H5945071   1.318   2.510   3.826 -1.8500  0.3922  0.0340
  187MOL    H6045072   1.298   2.480   3.657  3.0828 -1.0879 -0.7730
  187MOL    H6145073   1.245   2.639   3.726  1.2274  0.5082 -2.3323
  187MOL    C6245074   1.748   2.522   3.734 -0.2034  0.7529  0.2011
  187MOL    C6345075   1.754   2.428   3.857  0.2009 -0.3274  0.5184
  187MOL    C6445076   1.719   2.290   3.817 -0.0107 -1.0377 -0.5827
  187MOL    O6545077   1.636   2.225   3.877  0.0645 -0.0006 -0.2480
  187MOL    O6645078   1.799   2.254   3.713 -0.2697 -0.3495 -0.2598
  187MOL    C6745079   1.792   2.115   3.670  0.1978  0.4900 -0.2342
  187MOL    H6845080   1.689   2.471   3.657 -0.4873  0.4211  0.6354
  187MOL    H6945081   1.848   2.555   3.707 -0.3635  1.0848  0.0154
  187MOL    H7045082   1.678   2.451   3.932 -1.1310 -2.0748 -0.2555
  187MOL    H7145083   1.867   2.091   3.594 -0.0760  0.0776 -0.3789
  187MOL    H7245084   1.699   2.085   3.623  1.2966  0.7849 -2.6795
  187MOL    H7345085   1.820   2.049   3.752  0.9636  0.7865 -0.2489
  187MOL    C7445086   1.889   2.430   3.935 -0.4781 -0.3090  0.0170
  187MOL    C7545087   1.909   2.553   4.024  0.1830 -0.0653 -0.0840
  187MOL    C7645088   1.818   2.569   4.154  0.4579  0.4630  0.3046
  187MOL    O7745089   1.780   2.460   4.209  0.7099  0.1666  0.3858
  187MOL    O7845090   1.796   2.693   4.195 -0.0668  0.4788 -0.3877
  187MOL    C7945091   1.705   2.714   4.303  0.6466 -0.5970 -0.3777
  187MOL    H8045092   1.890   2.343   4.001  1.2178 -0.2033  0.1707
  187MOL    H8145093   1.970   2.417   3.864 -0.0346  1.0425  0.2585
  187MOL    H8245094   1.883   2.641   3.964  0.9094  0.4242  0.3031
  187MOL    H8345095   1.632   2.790   4.274  0.1798 -0.2205  1.6851
  187MOL    H8445096   1.755   2.755   4.390 -3.5203  2.1867  0.8742
  187MOL    H8545097   1.651   2.624   4.332 -1.5435  0.5755 -0.6667
  187MOL    C8645098   2.055   2.573   4.073  0.1760 -0.1501 -0.2793
  187MOL    C8745099   2.163   2.604   3.964  0.7568  0.6833  0.4078
  187MOL    C8845100   2.129   2.729   3.888 -0.4348  0.1633 -0.0796
  187MOL    O8945101   2.061   2.817   3.936  0.1723  0.1274 -0.1988
  187MOL    O9045102   2.185   2.733   3.761  0.2288  0.0888  0.1269
  187MOL    C9145103   2.159   2.832   3.670 -1.0613  0.7847  0.8010
  187MOL    H9245104   2.056   2.654   4.146  0.7022  0.2565 -0.7332
  187MOL    H9345105   2.089   2.489   4.134 -1.6236 -0.2009  0.6734
  187MOL    H9445106   2.155   2.531   3.883  2.6222 -1.6657  2.2705
  187MOL    H9545107   2.059   2.813   3.632 -0.5358 -0.5550  0.0175
  187MOL    H9645108   2.234   2.824   3.591 -2.6028 -0.8199 -0.5403
  187MOL    H9745109   2.163   2.933   3.712  1.3248  0.0983  2.3181
  187MOL    C9845110   2.311   2.621   4.032 -0.1447 -0.1772 -0.4223
  187MOL    C9945111   2.433   2.632   3.939 -0.6428  0.2321 -0.4687
  187MOL   C10045112   2.544   2.716   4.011  0.2891 -0.0628  0.1503
  187MOL   O10145113   2.636   2.657   4.068  0.0858  0.3459 -0.2271
  187MOL   O10245114   2.528   2.843   4.009 -0.3606  0.0666 -0.5168
  187MOL   C10345115   2.629   2.930   4.063 -0.0919  0.3814  0.3521
  187MOL   H10445116   2.303   2.700   4.107  1.6326 -0.8234  0.4884
  187MOL   H10545117   2.326   2.532   4.093 -0.6024 -0.4959 -0.7665
  187MOL   H10645118   2.407   2.699   3.857  1.0812  0.3705 -0.9230
  187MOL   H10745119   2.724   2.879   4.080  0.0786  0.3190 -0.7318
  187MOL   H10845120   2.596   2.970   4.158 -1.0969  1.6521 -0.5171
  187MOL   H10945121   2.643   3.018   3.999  0.4028  1.7777  2.3371
  187MOL   C11045122   2.482   2.501   3.871  0.1658  0.1015 -0.1950
  187MOL   C11145123   2.523   2.523   3.723  0.4509 -0.6405 -0.9681
  187MOL   C11245124   2.657   2.592   3.699  0.7307 -0.3717 -0.6721
  187MOL   O11345125   2.674   2.695   3.636  0.0327  0.4176  0.1831
  187MOL   O11445126   2.755   2.531   3.755  0.0583  0.5321  0.4520
  187MOL   C11545127   2.890   2.574   3.735 -0.2852  0.5713 -0.6447
  187MOL   H11645128   2.560   2.462   3.935 -1.1150 -0.9890  0.7219
  187MOL   H11745129   2.394   2.437   3.868  0.0596  0.0730  2.6315
  187MOL   H11845130   2.454   2.598   3.682  0.7905 -0.4073 -1.1130
  187MOL   H11945131   2.911   2.666   3.791  1.0005 -0.4969  0.6635
  187MOL   H12045132   2.895   2.601   3.630 -0.3712 -1.6118 -1.2250
  187MOL   H12145133   2.962   2.495   3.753 -2.1492 -0.7952  1.0279
  187MOL   C12245134   2.515   2.395   3.644  0.0837  0.3960  0.6910
  187MOL   C12345135   2.465   2.406   3.496 -0.4084 -0.0398 -0.4578
  187MOL   C12445136   2.328   2.477   3.490  0.3951  0.6210  0.0301
  187MOL   O12545137   2.321   2.592   3.448 -0.0968 -0.5855  0.3864
  187MOL   O12645138   2.228   2.409   3.545  0.4926  0.6443 -0.5859
  187MOL   C12745139   2.097   2.446   3.512  0.3796  0.1500 -0.0046
  187MOL   H12845140   2.617   2.360   3.632  0.0961  0.9042 -0.6985
  187MOL   H12945141   2.454   2.317   3.692 -0.1913  1.0434  1.4149
  187MOL   H13045142   2.445   2.306   3.458 -1.0878  0.8714 -2.5690
  187MOL   H13145143   2.095   2.480   3.408 -1.7868  2.2315  0.6437
  187MOL   H13245144   2.054   2.509   3.590  2.7425 -1.1918  2.4212
  187MOL   H13345145   2.050   2.349   3.525  1.0925 -0.2931 -0.7277
  187MOL   C13445146   2.572   2.468   3.395  0.2381  0.2413  0.0355
  187MOL   C13545147   2.575   2.425   3.238 -0.2478 -0.6385 -0.1342
  187MOL   C13645148   2.601   2.275   3.215 -0.0178 -0.0295  0.5803
  187MOL   O13745149   2.719   2.242   3.196 -0.0811  0.2285 -0.5016
  187MOL   O13845150   2.491   2.201   3.229  0.0051 -0.8070 -0.1744
  187MOL   C13945151   2.495   2.070   3.195  0.3970 -0.8008 -0.4729
  187MOL   H14045152   2.577   2.577   3.391  0.1940  0.2283 -0.3348
  187MOL   H14145153   2.668   2.443   3.442  0.1930  1.4075  0.7695
  187MOL   H14245154   2.661   2.481   3.202 -0.4121  1.8520  3.0966
  187MOL   H14345155   2.513   2.060   3.088 -0.4486  1.4185 -0.8383
  187MOL   H14445156   2.394   2.035   3.218  0.7779 -1.1918  0.6283
  187MOL   H14545157   2.563   2.026   3.267  0.4380  1.4709  0.9142
  187MOL   C14645158   2.444   2.465   3.172  0.4829 -0.3001 -0.0434
  187MOL   C14745159   2.447   2.442   3.016  0.1514 -0.3669  0.5104
  187MOL   C14845160   2.308   2.457   2.956 -0.2503 -0.4878 -0.7097
  187MOL   O14945161   2.254   2.562   2.953 -0.0568 -0.0079 -0.0012
  187MOL   O15045162   2.263   2.351   2.890  0.1484 -0.7048  0.3234
  187MOL   C15145163   2.144   2.346   2.814  0.8178 -0.1436  0.3091
  187MOL   H15245164   2.361   2.416   3.223  0.3853 -1.7865 -1.5994
  187MOL   H15345165   2.411   2.568   3.187  0.1447 -0.1822 -1.5327
  187MOL   H15445166   2.474   2.337   3.000  2.9286  0.2372  1.0875
  187MOL   H15545167   2.149   2.254   2.756 -1.2694 -1.2130  1.7540
  187MOL   H15645168   2.143   2.434   2.751  1.1847  0.7586  1.5428
  187MOL   H15745169   2.060   2.357   2.883  0.0718 -1.0227 -0.4438
  187MOL   C15845170   2.556   2.516   2.936 -0.2962 -0.3040  0.6161
  187MOL   C15945171   2.542   2.664   2.893 -0.9353  0.4141 -0.3097
  187MOL   C16045172   2.511   2.765   3.000 -0.3921 -0.3272  0.4576
  187MOL   O16145173   2.439   2.868   2.981 -0.3527  0.1593  0.0025
  187MOL   O16245174   2.566   2.738   3.120 -1.1517  0.2800 -0.0068
  187MOL   C16345175   2.542   2.818   3.234 -0.0228 -0.7191  0.0651
  187MOL   H16445176   2.651   2.512   2.990 -0.4788  1.1981  1.0575
  187MOL   H16545177   2.574   2.457   2.846 -1.6739  0.1260  0.0418
  187MOL   H16645178   2.458   2.670   2.822 -1.2039  0.4050  0.0060
  187MOL   H16745179   2.453   2.784   3.288  0.0188  1.1292  1.3716
  187MOL   H16845180   2.512   2.918   3.201  1.7984 -0.6763 -1.5153
  187MOL   H16945181   2.630   2.827   3.297  0.8511 -1.4029 -1.0560
  187MOL   C17045182   2.662   2.709   2.809 -0.1831 -0.3549  0.3486
  187MOL   C17145183   2.679   2.670   2.663 -0.5052 -0.0976  0.7352
  187MOL   C17245184   2.563   2.723   2.586  1.2712  1.0000 -0.0630
  187MOL   O17345185   2.474   2.647   2.541 -0.4081 -0.0113 -0.1826
  187MOL   O17445186   2.564   2.853   2.574 -0.6413  0.3818 -0.3936
  187MOL   C17545187   2.461   2.909   2.494 -0.2137 -0.0543  0.6234
  187MOL   H17645188   2.683   2.816   2.820 -1.4811 -0.0831  0.2614
  187MOL   H17745189   2.749   2.678   2.867  0.2392  1.3788  0.6754
  187MOL   H17845190   2.675   2.561   2.661 -0.3515 -0.1450  2.1559
  187MOL   H17945191   2.461   2.880   2.389 -4.3318 -2.1410  1.0997
  187MOL   H18045192   2.465   3.018   2.503  2.9868 -0.1380  0.6438
  187MOL   H18145193   2.358   2.884   2.522 -0.6445 -1.3554 -1.9917
  187MOL   C18245194   2.820   2.723   2.609  0.0485  0.5526 -0.0566
  187MOL   C18345195   2.906   2.641   2.512  0.5283 -0.0472 -0.0152
  187MOL   C18445196   2.833   2.607   2.379  0.5688 -0.2726 -0.1846
  187MOL   O18545197   2.840   2.496   2.339 -0.2019  0.0053  0.0641
  187MOL   O18645198   2.768   2.713   2.325 -0.9422  0.6491 -0.1845
  187MOL   C18745199   2.700   2.703   2.203  0.3489  0.1764 -0.0319
  187MOL   H18845200   2.803   2.824   2.571 -1.5261  0.3905  0.1863
  187MOL   H18945201   2.889   2.743   2.691 -0.2995 -3.4855  1.3450
  187MOL   H19045202   2.911   2.544   2.561 -0.2399  0.4599  1.0857
  187MOL   H19145203   2.634   2.789   2.190 -0.8270 -0.5757  0.8554
  187MOL   H19245204   2.638   2.613   2.208  0.6064  0.0376  0.5629
  187MOL   H19345205   2.759   2.687   2.112  2.0886  0.0890  1.0972
  187MOL   C19445206   3.048   2.704   2.489 -0.2044  0.3215  0.1176
  187MOL   C19545207   3.168   2.621   2.550  0.2053 -0.2313 -0.1147
  187MOL   C19645208   3.191   2.497   2.462  0.2684 -0.7369  0.3555
  187MOL   O19745209   3.177   2.380   2.504  0.0706 -0.5204 -0.1529
  187MOL   O19845210   3.217   2.528   2.328 -0.1297 -0.4558 -0.1798
  187MOL   C19945211   3.219   2.429   2.234 -0.1555  0.2981 -0.2876
  187MOL   H20045212   3.079   2.727   2.386 -0.1535  1.0019  0.2790
  187MOL   H20145213   3.054   2.802   2.537 -1.4339  0.3361  0.2506
  187MOL   H20245214   3.139   2.583   2.648  2.1385 -0.9384  0.2175
  187MOL   H20345215   3.305   2.365   2.251 -0.4651 -0.5903 -1.9549
  187MOL   H20445216   3.217   2.452   2.127 -0.6259 -1.2545 -0.6236
  187MOL   H20545217   3.134   2.361   2.246  1.7568 -2.1404 -0.2502
  187MOL   C20645218   3.291   2.711   2.558  0.1048 -0.5388 -0.4671
  187MOL   C20745219   3.416   2.651   2.617  0.0596 -0.4833  0.3249
  187MOL   C20845220   3.520   2.638   2.508  0.0343  0.5785  0.0749
  187MOL   O20945221   3.534   2.532   2.443  0.3934  0.3629 -0.6813
  187MOL   O21045222   3.568   2.753   2.463  0.1533 -0.1358  0.1624
  187MOL   C21145223   3.642   2.762   2.340  0.0731  0.1341  0.4041
  187MOL   H21245224   3.309   2.750   2.458  0.0786  0.1357 -0.2107
  187MOL   H21345225   3.263   2.807   2.601  0.4632 -0.2775 -0.8121
  187MOL   H21445226   3.388   2.546   2.621 -3.5420  0.2552 -2.9729
  187MOL   H21545227   3.626   2.856   2.289  0.3776  0.6278  1.2170
  187MOL   H21645228   3.618   2.691   2.260 -1.1165 -0.4476  1.2644
  187MOL   H21745229   3.748   2.768   2.366  0.7354 -0.6760 -1.9508
  187MOL   C21845230   3.463   2.724   2.752 -0.1591  0.2744 -0.1853
  187MOL   C21945231   3.573   2.653   2.834  0.3102  0.1459  0.4901
  187MOL   C22045232   3.540   2.502   2.857  0.1748  0.2572 -0.4683
  187MOL   O22145233   3.592   2.413   2.792 -0.2350 -0.2302 -0.0610
  187MOL   O22245234   3.439   2.492   2.944 -0.0208  0.2145 -0.2622
  187MOL   C22345235   3.383   2.370   2.983 -0.0612  0.1713  0.1836
  187MOL   H22445236   3.495   2.825   2.726  3.4559 -0.5330  0.9845
  187MOL   H22545237   3.379   2.731   2.821  2.2364 -0.0860  2.8478
  187MOL   H22645238   3.572   2.701   2.931 -2.2653 -1.1213  1.1469
  187MOL   H22745239   3.444   2.321   3.059 -0.4090 -0.7570 -0.1247
  187MOL   H22845240   3.381   2.291   2.908 -3.2544 -2.3659  2.8033
  187MOL   H22945241   3.282   2.383   3.022 -0.6938  2.3578 -2.0538
  187MOL   C23045242   3.711   2.695   2.768  0.3622  0.3298 -0.2900
  187MOL   C23145243   3.838   2.681   2.858  0.5920  0.5915  0.3831
  187MOL   C23245244   3.954   2.771   2.822  0.0468  0.3966 -0.2717
  187MOL   O23345245   4.043   2.741   2.739  0.1901  0.0475 -0.0789
  187MOL   O23445246   3.961   2.886   2.902 -0.2825  0.1109  0.0362
  187MOL   C23545247   4.068   2.982   2.896 -0.6485 -0.5572  0.0283
  187MOL   H23645248   3.731   2.629   2.682  2.1021  0.6903 -0.1836
  187MOL   H23745249   3.711   2.787   2.710  2.2698 -0.1444 -1.0768
  187MOL   H23845250   3.864   2.575   2.864 -2.4407 -0.1364  1.9149
  187MOL   H23945251   4.131   2.982   2.985 -0.6971  0.6296  0.0624
  187MOL   H24045252   4.024   3.079   2.873 -2.8456 -1.4714  0.2355
  187MOL   H24145253   4.122   2.966   2.803 -1.1821  1.1046 -0.5797
  187MOL   H24245254   3.813   2.705   2.961 -0.0261 -0.1953  0.4265
  188MOL     C145255   5.798   0.472   2.486 -0.2221 -0.5596 -0.4294
  188MOL     C245256   5.772   0.448   2.638 -0.8222  0.2305  0.1826
  188MOL     C345257   5.767   0.583   2.713  0.4286  0.1489  0.2702
  188MOL     O445258   5.734   0.689   2.652 -0.0226  0.4782  0.5146
  188MOL     O545259   5.794   0.576   2.854  0.3603  0.1866 -0.2334
  188MOL     C645260   5.778   0.694   2.933  1.0136  0.3993  0.6287
  188MOL     H745261   5.711   0.513   2.435  0.8247  0.8666 -1.1096
  188MOL     H845262   5.826   0.385   2.426  1.0913 -0.1783 -0.3701
  188MOL     H945263   5.860   0.394   2.673  0.8298  2.6462 -0.0916
  188MOL    H1045264   5.776   0.671   3.039  1.1887  2.7784  1.1611
  188MOL    H1145265   5.681   0.734   2.903  0.9148  0.8221  1.4964
  188MOL    H1245266   5.853   0.763   2.895  0.9504 -0.9254 -2.0659
  188MOL    H1345267   5.868   0.555   2.475 -0.2238 -0.4334  0.4867
  188MOL    C1445268   5.654   0.362   2.671  0.3413  0.3431  1.0200
  188MOL    C1545269   5.659   0.216   2.605 -0.1900  0.5239 -0.0564
  188MOL    C1645270   5.791   0.143   2.631  0.3219  0.2650 -0.5446
  188MOL    O1745271   5.853   0.087   2.540 -0.9340  0.4641  0.6320
  188MOL    O1845272   5.832   0.148   2.759  0.7220  0.5738 -0.1992
  188MOL    C1945273   5.968   0.106   2.781 -1.0372 -0.1209  0.3362
  188MOL    H2045274   5.651   0.336   2.777 -1.8114 -3.5481  0.0973
  188MOL    H2145275   5.556   0.404   2.651 -0.6109 -1.5852  1.5728
  188MOL    H2245276   5.657   0.237   2.498 -1.3650  1.2186  0.0988
  188MOL    H2345277   5.994   0.010   2.736 -0.3026 -0.7025  1.9787
  188MOL    H2445278   5.991   0.084   2.885 -1.7860 -3.6124 -0.1669
  188MOL    H2545279   6.039   0.185   2.757 -1.1748 -0.1527 -0.1945
  188MOL    C2645280   5.538   0.126   2.629 -0.3048  0.5515 -0.6073
  188MOL    C2745281   5.392   0.175   2.605 -0.1107 -0.0298  0.6248
  188MOL    C2845282   5.380   0.256   2.475 -1.2007  0.0713 -0.2577
  188MOL    O2945283   5.332   0.366   2.473 -0.0254  0.1046 -0.6579
  188MOL    O3045284   5.427   0.190   2.374  0.1854  0.2019  0.0329
  188MOL    C3145285   5.443   0.255   2.252  0.2658 -0.7665  0.1672
  188MOL    H3245286   5.561   0.037   2.570  0.0237 -0.1556  0.5687
  188MOL    H3345287   5.547   0.076   2.725  0.9295 -1.3749 -1.6801
  188MOL    H3445288   5.365   0.249   2.680 -0.2678 -0.9429  1.4848
  188MOL    H3545289   5.350   0.290   2.208  0.4979  1.0050  1.0570
  188MOL    H3645290   5.489   0.192   2.176 -0.0987 -0.0821 -0.6248
  188MOL    H3745291   5.501   0.346   2.263  0.9728 -1.4535  2.2844
  188MOL    C3845292   5.293   0.053   2.613 -0.5570  0.2799  0.3202
  188MOL    C3945293   5.148   0.086   2.665 -0.1902  0.6004 -0.3048
  188MOL    C4045294   5.062   7.887   2.646  0.1927 -0.2238  0.3785
  188MOL    O4145295   4.976   7.888   2.569 -0.1754 -0.0926  0.1186
  188MOL    O4245296   5.101   7.785   2.724 -0.4886  0.0320  0.1685
  188MOL    C4345297   5.020   7.669   2.723  0.4918 -0.6057 -0.1047
  188MOL    H4445298   5.291   7.932   2.518 -2.1253  0.4411  0.2511
  188MOL    H4545299   5.337   7.917   2.685  2.3527 -0.1096 -1.7166
  188MOL    H4645300   5.107   0.159   2.596  1.9564  2.8734  0.7639
  188MOL    H4745301   4.932   7.694   2.783  0.1717 -1.8756 -0.0265
  188MOL    H4845302   5.064   7.582   2.773  1.5975  0.8339  1.4703
  188MOL    H4945303   4.968   7.643   2.631  0.9988  0.8151 -0.8012
  188MOL    C5045304   5.148   0.140   2.806 -0.1813 -0.0326  0.4870
  188MOL    C5145305   5.123   0.294   2.809 -0.2608 -0.2888 -0.7406
  188MOL    C5245306   4.976   0.319   2.770  0.0548 -0.3421 -0.2205
  188MOL    O5345307   4.892   0.327   2.862 -0.2154  0.3354 -0.0774
  188MOL    O5445308   4.960   0.331   2.639 -0.1809  0.3535 -0.3265
  188MOL    C5545309   4.835   0.376   2.589  0.0864 -0.2364  0.7830
  188MOL    H5645310   5.073   0.101   2.874  1.0677 -1.7963  0.8630
  188MOL    H5745311   5.242   0.124   2.858 -1.1699 -0.0335  2.3220
  188MOL    H5845312   5.181   0.350   2.735  0.6322  0.9893  0.8891
  188MOL    H5945313   4.829   0.341   2.486  0.2062 -0.8230  0.9692
  188MOL    H6045314   4.827   0.484   2.597  0.5848 -0.2279  1.1843
  188MOL    H6145315   4.753   0.335   2.649  0.7063 -0.2928  1.6022
  188MOL    C6245316   5.154   0.358   2.949  0.0173 -0.6019 -0.0202
  188MOL    C6345317   5.130   0.513   2.965  0.5187 -0.3084  0.6277
  188MOL    C6445318   5.094   0.556   3.107  1.0495 -0.3444 -0.4801
  188MOL    O6545319   5.167   0.549   3.207  0.2252 -0.1762  0.2601
  188MOL    O6645320   4.968   0.594   3.112 -0.0988 -0.6461  0.2074
  188MOL    C6745321   4.922   0.635   3.238 -0.5762  0.1233  0.0580
  188MOL    H6845322   5.103   0.296   3.022 -2.4565  1.5311  0.1132
  188MOL    H6945323   5.259   0.335   2.971 -0.0311 -1.3075 -0.5002
  188MOL    H7045324   5.038   0.540   2.914  1.3326  1.9130  0.2575
  188MOL    H7145325   4.822   0.679   3.240 -0.6859  0.0465 -2.4572
  188MOL    H7245326   4.981   0.713   3.286 -1.7821  1.3086 -0.3630
  188MOL    H7345327   4.898   0.564   3.317  1.4364 -1.4946 -0.7623
  188MOL    C7445328   5.261   0.581   2.914 -0.5716 -0.1647  0.1830
  188MOL    C7545329   5.264   0.728   2.871 -0.4175 -0.6784  0.9317
  188MOL    C7645330   5.288   0.826   2.987 -0.0938  0.0375 -0.0736
  188MOL    O7745331   5.198   0.885   3.041  0.2379 -0.2074 -0.5967
  188MOL    O7845332   5.416   0.828   3.036  0.3773 -0.2318 -0.0341
  188MOL    C7945333   5.446   0.914   3.142 -0.0640  0.3619 -0.0470
  188MOL    H8045334   5.340   0.560   2.987 -2.5951 -2.6929  1.7667
  188MOL    H8145335   5.306   0.522   2.834 -0.1491  1.7960 -1.0299
  188MOL    H8245336   5.166   0.748   2.827 -0.8702 -1.3108  1.6511
  188MOL    H8345337   5.376   0.884   3.220  0.3583 -1.9622 -0.5296
  188MOL    H8445338   5.441   1.019   3.114 -0.1837  0.5925  0.8167
  188MOL    H8545339   5.541   0.884   3.188 -0.3177 -1.0670 -0.4489
  188MOL    C8645340   5.360   0.748   2.749  0.9928 -0.1475 -0.6953
  188MOL    C8745341   5.364   0.886   2.687  0.1225 -1.3308  0.1664
  188MOL    C8845342   5.490   0.923   2.610 -0.0239  0.1430 -0.2131
  188MOL    O8945343   5.573   1.002   2.651 -0.4955  0.4283  0.2345
  188MOL    O9045344   5.500   0.868   2.491 -0.9030 -0.0673 -0.2046
  188MOL    C9145345   5.611   0.911   2.411  0.1637 -0.6986  0.1196
  188MOL    H9245346   5.461   0.725   2.783  0.3241 -1.0062  0.7482
  188MOL    H9345347   5.340   0.677   2.669 -1.1300 -0.6223  0.2469
  188MOL    H9445348   5.378   0.950   2.774  0.7964 -1.3571  0.0797
  188MOL    H9545349   5.595   0.861   2.316 -4.0165 -1.6908  1.2367
  188MOL    H9645350   5.706   0.877   2.451  0.1620 -1.8037 -0.7873
  188MOL    H9745351   5.618   1.019   2.395  1.7941 -0.6443  1.0706
  188MOL    C9845352   5.234   0.935   2.620 -0.7763 -0.0657 -0.2189
  188MOL    C9945353   5.160   1.036   2.707 -0.4468 -0.0809  0.0756
  188MOL   C10045354   5.251   1.161   2.721  0.1167  0.4752 -1.0629
  188MOL   O10145355   5.293   1.221   2.620 -0.2568  0.0460 -0.8017
  188MOL   O10245356   5.276   1.189   2.854 -0.4060 -0.7646  0.5661
  188MOL   C10345357   5.371   1.279   2.888 -0.2036 -0.6302  0.5822
  188MOL   H10445358   5.258   0.974   2.521  2.6032 -2.4704 -0.4592
  188MOL   H10545359   5.167   0.849   2.614 -0.2525 -0.5345  0.4910
  188MOL   H10645360   5.136   1.004   2.809 -0.0096  1.9169  0.8226
  188MOL   H10745361   5.473   1.241   2.880 -0.3236 -0.8491  0.0785
  188MOL   H10845362   5.349   1.313   2.990  1.0337 -0.1423  0.6889
  188MOL   H10945363   5.368   1.362   2.818 -0.9909 -1.4745 -0.3990
  188MOL   C11045364   5.021   1.073   2.645 -0.1545 -0.0675  0.0483
  188MOL   C11145365   4.925   0.943   2.619 -0.0902  0.8952 -1.3452
  188MOL   C11245366   4.899   0.868   2.751 -0.3226  0.0209 -0.0652
  188MOL   O11345367   4.922   0.746   2.760  0.0821  0.0996 -0.1982
  188MOL   O11445368   4.858   0.953   2.852 -0.7951  0.2978  0.3070
  188MOL   C11545369   4.825   0.896   2.977  0.4045  0.0351 -0.8528
  188MOL   H11645370   4.965   1.149   2.700 -0.4994  1.1587 -1.9488
  188MOL   H11745371   5.039   1.136   2.558 -0.8329  0.3934  0.2331
  188MOL   H11845372   4.976   0.877   2.549 -0.7397 -0.9869 -0.0905
  188MOL   H11945373   4.740   0.833   2.952 -1.6502  2.1155  0.6508
  188MOL   H12045374   4.796   0.967   3.055  1.5089  0.7108 -1.0439
  188MOL   H12145375   4.908   0.834   3.011  1.4095  2.1662  0.6985
  188MOL   C12245376   4.787   0.975   2.559  0.8360 -0.1418 -0.2154
  188MOL   C12345377   4.727   0.852   2.485 -0.0456  0.8856  0.1996
  188MOL   C12445378   4.606   0.786   2.559 -0.4136  0.5781 -0.9384
  188MOL   O12545379   4.514   0.845   2.619  0.1515 -0.6045  0.1769
  188MOL   O12645380   4.616   0.653   2.546  0.2054 -0.1945 -0.7768
  188MOL   C12745381   4.504   0.571   2.548  0.0547 -0.6314 -0.2158
  188MOL   H12845382   4.711   1.006   2.631  0.4146 -1.0244 -0.2774
  188MOL   H12945383   4.792   1.053   2.483 -0.0242 -0.4345 -0.5795
  188MOL   H13045384   4.798   0.770   2.477 -0.3962  0.7054 -1.2678
  188MOL   H13145385   4.416   0.616   2.501  0.0411  0.3502  0.7234
  188MOL   H13245386   4.490   0.547   2.653 -2.2067 -0.8712 -0.5525
  188MOL   H13345387   4.521   0.479   2.494 -1.3106 -1.1537  0.2103
  188MOL   C13445388   4.692   0.884   2.336  0.0378  0.2381 -0.4222
  188MOL   C13545389   4.681   0.764   2.237 -0.1072  0.0065 -0.0133
  188MOL   C13645390   4.544   0.761   2.172 -0.0668  0.5126  0.8287
  188MOL   O13745391   4.474   0.661   2.188 -0.1657 -0.2561  0.1763
  188MOL   O13845392   4.520   0.865   2.094 -0.0356 -0.6117  0.3960
  188MOL   C13945393   4.394   0.887   2.021 -0.2623  0.1616  0.3119
  188MOL   H14045394   4.593   0.927   2.327 -0.9799 -1.9124  0.0941
  188MOL   H14145395   4.759   0.963   2.302  0.2648 -0.2050 -1.0166
  188MOL   H14245396   4.690   0.680   2.305  0.2425  3.2937  4.2254
  188MOL   H14345397   4.369   0.813   1.945 -1.3012  0.5621  0.2536
  188MOL   H14445398   4.390   0.976   1.957 -0.4064  0.4494  0.7167
  188MOL   H14545399   4.307   0.889   2.086  0.1951 -0.7442  0.9593
  188MOL   C14645400   4.800   0.763   2.134  0.4691 -0.2062  0.0748
  188MOL   C14745401   4.935   0.772   2.208  0.1566  0.2432  0.4364
  188MOL   C14845402   4.960   0.665   2.314 -0.2795  0.5294 -0.7593
  188MOL   O14945403   4.894   0.562   2.321  0.4272  0.2717 -0.1980
  188MOL   O15045404   5.049   0.703   2.408 -0.1557  0.0743  0.5742
  188MOL   C15145405   5.088   0.599   2.494  0.0921 -0.5466 -0.2135
  188MOL   H15245406   4.797   0.677   2.068 -1.0565  0.5126 -0.8348
  188MOL   H15345407   4.780   0.845   2.065  1.3949  1.0387  1.2658
  188MOL   H15445408   4.938   0.862   2.270  0.6360 -0.0479  0.8383
  188MOL   H15545409   4.994   0.572   2.541 -0.4796 -1.0033 -1.5949
  188MOL   H15645410   5.164   0.633   2.565 -1.6921  1.9358  0.5638
  188MOL   H15745411   5.132   0.511   2.446  1.2745 -1.0122  1.6417
  188MOL   C15845412   5.046   0.781   2.107 -0.7536 -0.8838 -0.4373
  188MOL   C15945413   5.157   0.884   2.158 -0.1995 -0.1754 -0.0861
  188MOL   C16045414   5.297   0.820   2.171 -0.1663  0.0431 -0.3256
  188MOL   O16145415   5.397   0.862   2.107  0.2334 -0.1618 -0.5501
  188MOL   O16245416   5.303   0.723   2.254 -0.1543  0.2386 -0.4590
  188MOL   C16345417   5.422   0.640   2.266  0.0731 -0.5242 -0.3685
  188MOL   H16445418   5.089   0.681   2.099 -0.8174 -0.8788 -0.8533
  188MOL   H16545419   5.008   0.805   2.008 -1.6792  0.9674  0.3400
  188MOL   H16645420   5.126   0.896   2.262  1.0484 -0.6425  0.3446
  188MOL   H16745421   5.442   0.604   2.367 -0.2585 -1.5752 -0.6674
  188MOL   H16845422   5.509   0.688   2.223  0.9984 -0.5411  1.4231
  188MOL   H16945423   5.410   0.546   2.211 -2.2367  0.0382 -0.8800
  188MOL   C17045424   5.153   1.015   2.074 -0.5083 -0.4687 -0.1207
  188MOL   C17145425   5.189   1.140   2.161  0.3991 -0.2846 -0.6101
  188MOL   C17245426   5.332   1.134   2.206 -0.4537  0.2502  0.4430
  188MOL   O17345427   5.356   1.116   2.322  0.2491 -0.0305  0.3796
  188MOL   O17445428   5.424   1.156   2.109  0.1960  0.6524 -0.0366
  188MOL   C17545429   5.566   1.147   2.141 -0.4971 -0.1486  1.2688
  188MOL   H17645430   5.222   1.014   1.990  0.7280 -3.1086  0.8680
  188MOL   H17745431   5.047   1.027   2.051 -0.4373  3.0567  1.0212
  188MOL   H17845432   5.131   1.133   2.253 -0.0472 -0.2080 -0.8824
  188MOL   H17945433   5.621   1.168   2.049 -1.1185 -1.2290  0.6419
  188MOL   H18045434   5.593   1.052   2.186  0.8507 -0.3011  0.1551
  188MOL   H18145435   5.594   1.230   2.206 -0.5044  2.6230 -2.1241
  188MOL   C18245436   5.144   1.283   2.100 -0.4970 -0.2112  0.3961
  188MOL   C18345437   5.068   1.374   2.189  0.3733  0.1453 -0.8264
  188MOL   C18445438   4.929   1.315   2.237  0.1116  0.1242  0.0364
  188MOL   O18545439   4.907   1.197   2.247  0.2723 -0.4686  0.2664
  188MOL   O18645440   4.833   1.409   2.278 -0.0862 -0.0227  0.3271
  188MOL   C18745441   4.724   1.360   2.359 -0.6222 -0.0137 -0.0594
  188MOL   H18845442   5.234   1.332   2.062 -0.0963 -1.5074 -0.3684
  188MOL   H18945443   5.087   1.252   2.012  2.2985 -1.0031 -1.2029
  188MOL   H19045444   5.041   1.457   2.124  0.4441  2.4184  1.9420
  188MOL   H19145445   4.708   1.426   2.445 -0.5235  0.0817 -0.1140
  188MOL   H19245446   4.738   1.258   2.394  2.2125  0.4575  0.3304
  188MOL   H19345447   4.627   1.375   2.312 -0.6563  0.5269  0.1800
  188MOL   C19445448   5.147   1.437   2.308 -0.3297  0.4618 -0.5483
  188MOL   C19545449   5.217   1.574   2.288 -0.5609 -0.2169  0.3535
  188MOL   C19645450   5.117   1.683   2.258 -0.6295 -0.0016 -0.0967
  188MOL   O19745451   5.085   1.707   2.140  0.2590 -0.1497 -0.2542
  188MOL   O19845452   5.048   1.721   2.371 -0.8396 -0.7371  0.2639
  188MOL   C19945453   4.939   1.798   2.339  0.4575  0.1677  0.1175
  188MOL   H20045454   5.093   1.435   2.403 -0.3579 -0.5811 -0.5781
  188MOL   H20145455   5.227   1.368   2.333 -1.0174 -0.2695 -0.3228
  188MOL   H20245456   5.279   1.566   2.199  1.4498  1.0400  1.6094
  188MOL   H20345457   4.855   1.735   2.311  1.0963 -0.3016 -0.7774
  188MOL   H20445458   4.954   1.880   2.269 -0.4528 -0.5470 -0.9266
  188MOL   H20545459   4.920   1.846   2.435  0.7479 -0.9928  0.7746
  188MOL   C20645460   5.302   1.620   2.406  0.2047 -0.6992 -0.0494
  188MOL   C20745461   5.438   1.543   2.423  0.4107 -0.4453  0.3092
  188MOL   C20845462   5.543   1.582   2.318  0.1281  0.4386  0.3038
  188MOL   O20945463   5.624   1.674   2.335  0.4419 -0.0645 -0.3520
  188MOL   O21045464   5.535   1.515   2.201  0.6914 -0.2411 -0.0224
  188MOL   C21145465   5.618   1.548   2.091 -0.8147 -0.4619 -0.2131
  188MOL   H21245466   5.308   1.728   2.419 -2.3216 -0.7895  2.5149
  188MOL   H21345467   5.237   1.598   2.491 -1.5283  1.0525 -0.8826
  188MOL   H21445468   5.417   1.436   2.416 -1.7635  0.1077 -3.0675
  188MOL   H21545469   5.585   1.505   1.996  1.0360 -1.1428 -0.5671
  188MOL   H21645470   5.719   1.527   2.127 -0.4606  0.5357 -0.6178
  188MOL   H21745471   5.616   1.655   2.068  2.3354 -0.6463 -1.5911
  188MOL   C21845472   5.488   1.558   2.570  0.1297 -0.7831 -0.5396
  188MOL   C21945473   5.612   1.486   2.608 -0.1217 -0.0473 -0.8273
  188MOL   C22045474   5.639   1.522   2.755  0.1694  0.3761  0.0370
  188MOL   O22145475   5.555   1.539   2.847 -0.6993 -0.2425  0.2566
  188MOL   O22245476   5.769   1.536   2.767 -0.2725  0.3681  0.0797
  188MOL   C22345477   5.828   1.550   2.892  0.2486 -0.2474  0.1008
  188MOL   H22445478   5.498   1.665   2.586 -1.7581 -1.1274  3.5846
  188MOL   H22545479   5.406   1.511   2.625 -0.7766  0.2387 -1.0006
  188MOL   H22645480   5.695   1.539   2.562  0.6987 -0.8799 -0.3140
  188MOL   H22745481   5.817   1.460   2.952 -0.5651 -1.0600 -1.2444
  188MOL   H22845482   5.769   1.628   2.941 -2.1091 -1.8108 -0.1326
  188MOL   H22945483   5.932   1.576   2.878  0.6255 -0.9163  1.5968
  188MOL   C23045484   5.620   1.334   2.578  1.2431 -0.3094  0.1661
  188MOL   C23145485   5.748   1.265   2.603 -0.8165  0.5250 -0.0009
  188MOL   C23245486   5.854   1.270   2.491 -0.2878  0.3809  0.3559
  188MOL   O23345487   5.970   1.261   2.525 -0.0772  0.3509  0.3292
  188MOL   O23445488   5.806   1.290   2.364 -0.4927  0.8163  0.0384
  188MOL   C23545489   5.901   1.271   2.261 -0.8061 -0.3460  0.4970
  188MOL   H23645490   5.545   1.290   2.644 -1.0801  0.0942 -2.1141
  188MOL   H23745491   5.585   1.306   2.479 -0.5982 -2.6744  1.4461
  188MOL   H23845492   5.728   1.158   2.604 -0.7969  0.5009 -1.6725
  188MOL   H23945493   5.993   1.330   2.260 -0.4206 -0.9376  0.8149
  188MOL   H24045494   5.870   1.286   2.157 -0.4075  1.2410  0.5927
  188MOL   H24145495   5.938   1.169   2.264  0.9973  0.2839  0.2012
  188MOL   H24245496   5.798   1.291   2.697  1.7467 -2.6304 -0.4150
  189MOL     C145497   5.758   0.981   4.480  0.7390  0.1327  0.2393
  189MOL     C245498   5.825   0.898   4.370  0.1313 -0.4638 -0.0244
  189MOL     C345499   5.827   0.747   4.408 -0.2962 -0.3625 -0.2287
  189MOL     O445500   5.755   0.663   4.353  0.4186 -0.4363  0.0584
  189MOL     O545501   5.926   0.721   4.495 -0.7715 -0.4164  0.1133
  189MOL     C645502   5.957   0.585   4.538  0.9168  0.2988 -0.5840
  189MOL     H745503   5.781   0.936   4.577  1.3242 -2.0237 -0.8564
  189MOL     H845504   5.650   0.986   4.469  0.6230 -2.2255  0.0250
  189MOL     H945505   5.930   0.924   4.384  0.9772 -3.3249 -0.6771
  189MOL    H1045506   6.005   0.588   4.636 -0.0267  1.1870 -0.1388
  189MOL    H1145507   6.006   0.520   4.466 -1.1899 -2.8624  0.7696
  189MOL    H1245508   5.860   0.539   4.557  1.6911 -0.6170  1.2055
  189MOL    H1345509   5.800   1.081   4.469  0.6871 -0.2218 -3.5421
  189MOL    C1445510   5.789   0.928   4.227  0.7247 -0.6604 -0.5906
  189MOL    C1545511   5.736   1.068   4.197  0.3856  0.5504  0.2545
  189MOL    C1645512   5.852   1.160   4.169 -0.1839  0.1264  0.3788
  189MOL    O1745513   5.914   1.212   4.260  0.6192 -0.1044 -0.7521
  189MOL    O1845514   5.902   1.166   4.044  0.1374  0.2361  0.1198
  189MOL    C1945515   6.026   1.232   4.019  0.1220  0.0010  0.3989
  189MOL    H2045516   5.871   0.902   4.161  0.8485  0.8485 -1.0572
  189MOL    H2145517   5.713   0.861   4.188  0.1114  0.5918 -1.5840
  189MOL    H2245518   5.682   1.109   4.282  1.2611 -0.4317  1.2908
  189MOL    H2345519   6.026   1.338   4.044 -1.2752  0.3140 -0.9002
  189MOL    H2445520   6.060   1.214   3.917  1.7274  0.1634  0.8862
  189MOL    H2545521   6.101   1.182   4.080  1.1927  0.1685 -0.7496
  189MOL    C2645522   5.635   1.077   4.088  0.3068 -0.0935 -0.4185
  189MOL    C2745523   5.499   1.006   4.114 -0.0479  0.0718  0.6385
  189MOL    C2845524   5.444   1.025   4.257  0.0136 -0.0030  0.3622
  189MOL    O2945525   5.419   0.931   4.333  0.0770 -0.1042 -0.2155
  189MOL    O3045526   5.417   1.164   4.297  0.2514  0.2857 -0.2055
  189MOL    C3145527   5.346   1.203   4.416  0.4892 -0.5380  0.0630
  189MOL    H3245528   5.620   1.184   4.075 -0.9545  0.0241  1.7525
  189MOL    H3345529   5.669   1.029   3.996 -0.3312 -2.5870  0.5956
  189MOL    H3445530   5.501   0.898   4.100 -1.3300  0.4681 -3.1950
  189MOL    H3545531   5.393   1.293   4.457 -1.9208 -0.0212  1.8059
  189MOL    H3645532   5.364   1.127   4.492 -0.8390 -0.2782  0.6561
  189MOL    H3745533   5.240   1.224   4.403  0.2976 -2.0353 -0.8232
  189MOL    C3845534   5.390   1.047   4.011 -0.0244  0.1069  0.1318
  189MOL    C3945535   5.271   0.942   3.999  0.2945 -0.5011 -0.5755
  189MOL    C4045536   5.133   1.002   4.020 -0.5365  0.2010 -0.4038
  189MOL    O4145537   5.042   0.999   3.936  0.2393 -0.0411  0.2417
  189MOL    O4245538   5.119   1.063   4.141 -0.5349 -0.6071  1.1436
  189MOL    C4345539   5.014   1.145   4.178  0.1216  0.3042 -0.7964
  189MOL    H4445540   5.353   1.147   4.031 -0.8008  0.0371 -0.9044
  189MOL    H4545541   5.435   1.068   3.913 -1.2623 -0.1593 -0.4997
  189MOL    H4645542   5.275   0.876   4.086  0.6301  0.0188 -0.1937
  189MOL    H4745543   4.914   1.100   4.172  0.4833 -0.6401  0.2269
  189MOL    H4845544   5.007   1.231   4.111 -1.8797  0.9734  0.2338
  189MOL    H4945545   5.049   1.188   4.271  0.0876  1.3985 -1.2822
  189MOL    C5045546   5.304   0.864   3.869 -0.3755  0.1344 -0.5152
  189MOL    C5145547   5.288   0.710   3.879  0.5541  0.6315  0.1381
  189MOL    C5245548   5.391   0.654   3.976 -0.0218 -0.4230  0.1120
  189MOL    O5345549   5.500   0.608   3.949  0.2212 -0.2156  0.6157
  189MOL    O5445550   5.345   0.664   4.105 -0.2793 -0.2093 -0.1483
  189MOL    C5545551   5.418   0.597   4.211 -0.2732 -0.2860  0.3003
  189MOL    H5645552   5.241   0.907   3.791 -0.6464 -0.0270 -0.3860
  189MOL    H5745553   5.405   0.892   3.838  0.3177 -0.9976  0.6732
  189MOL    H5845554   5.314   0.670   3.781 -1.1446 -1.0368  0.3396
  189MOL    H5945555   5.354   0.579   4.297 -0.7814 -0.9804 -0.2124
  189MOL    H6045556   5.510   0.653   4.228  0.5811 -1.3417 -0.6825
  189MOL    H6145557   5.452   0.503   4.165 -2.4365 -0.1788 -1.6397
  189MOL    C6245558   5.142   0.658   3.910 -0.0999  0.0884 -0.4788
  189MOL    C6345559   5.099   0.520   3.854 -0.3257 -0.9628  0.4780
  189MOL    C6445560   5.035   0.429   3.968 -0.1021 -0.4839  0.2699
  189MOL    O6545561   4.987   0.460   4.079  0.0547 -0.7047  0.0668
  189MOL    O6645562   5.041   0.299   3.930  0.5142  0.1162 -0.1894
  189MOL    C6745563   5.000   0.201   4.020 -0.0867  0.5043  0.0036
  189MOL    H6845564   5.118   0.681   4.014  1.4538  1.9705 -0.5319
  189MOL    H6945565   5.074   0.724   3.856 -1.3367 -1.1814 -0.5189
  189MOL    H7045566   5.192   0.471   3.825  0.0104  0.4560 -0.8867
  189MOL    H7145567   5.022   0.109   3.966 -0.2356  0.5380 -0.1118
  189MOL    H7245568   4.893   0.206   4.041 -0.1022  4.1996 -0.7030
  189MOL    H7345569   5.052   0.194   4.116  0.3215 -1.3430 -0.3271
  189MOL    C7445570   5.006   0.529   3.731  0.0927 -0.0873 -0.1745
  189MOL    C7545571   5.055   0.573   3.587 -0.0635 -0.8816  0.1909
  189MOL    C7645572   5.075   0.724   3.572  0.1446 -0.6793 -0.2307
  189MOL    O7745573   5.177   0.779   3.539  0.0614  0.4615  0.0280
  189MOL    O7845574   4.965   0.796   3.583  0.2673 -0.2124 -0.0120
  189MOL    C7945575   4.967   0.933   3.538  0.3544  0.6130 -1.2485
  189MOL    H8045576   4.965   0.431   3.709  0.1345  0.3951 -2.5254
  189MOL    H8145577   4.924   0.598   3.753 -0.4123 -0.3280 -1.2967
  189MOL    H8245578   4.972   0.560   3.517  1.7595 -0.4189 -2.0673
  189MOL    H8345579   5.033   0.987   3.605 -1.2078  0.4234  0.4846
  189MOL    H8445580   4.864   0.968   3.544 -0.1846 -1.3702  2.8855
  189MOL    H8545581   4.994   0.925   3.432 -1.0269 -0.3485 -1.5374
  189MOL    C8645582   5.182   0.511   3.541 -0.5356  0.4078 -0.0338
  189MOL    C8745583   5.197   0.357   3.564 -0.4549  0.1706 -0.5199
  189MOL    C8845584   5.085   0.270   3.502  0.5137 -0.0947 -0.3934
  189MOL    O8945585   5.016   0.200   3.577 -0.6176 -0.1446  0.0075
  189MOL    O9045586   5.080   0.293   3.367 -0.3010 -0.5059 -0.2960
  189MOL    C9145587   4.956   0.254   3.296 -1.0256 -0.2876  0.8924
  189MOL    H9245588   5.199   0.527   3.434 -0.5621 -0.6672 -0.2061
  189MOL    H9345589   5.260   0.561   3.597 -1.0463  0.1352  0.9425
  189MOL    H9445590   5.207   0.337   3.670  3.4153  2.4932 -0.3549
  189MOL    H9545591   4.872   0.324   3.295 -0.5677  0.2591 -0.4028
  189MOL    H9645592   4.916   0.173   3.357  0.4439  1.3886  4.2042
  189MOL    H9745593   4.978   0.219   3.195 -1.0894  0.9067  0.4492
  189MOL    C9845594   5.336   0.306   3.516 -0.6048  0.1098  0.3983
  189MOL    C9945595   5.442   0.329   3.617 -0.6224  0.4162  0.2418
  189MOL   C10045596   5.424   0.244   3.745 -0.0382 -0.5143  0.3086
  189MOL   O10145597   5.428   0.121   3.747  0.2504  0.2523  0.3355
  189MOL   O10245598   5.395   0.325   3.853  0.0549 -0.1952 -0.1986
  189MOL   C10345599   5.383   0.258   3.986  0.5549 -0.3255 -0.8805
  189MOL   H10445600   5.327   0.201   3.491  1.6146  0.3103 -1.3894
  189MOL   H10545601   5.362   0.352   3.421 -0.0821 -1.9994 -0.5000
  189MOL   H10645602   5.438   0.432   3.651 -1.3166  1.0692 -1.7678
  189MOL   H10745603   5.391   0.336   4.062 -2.4070 -1.5605  0.8022
  189MOL   H10845604   5.459   0.181   4.001  0.1773 -0.5311  0.0104
  189MOL   H10945605   5.287   0.215   4.016  0.3023  0.0819 -1.1041
  189MOL   C11045606   5.586   0.293   3.567 -0.5689 -0.2292  0.2290
  189MOL   C11145607   5.662   0.416   3.528 -0.6681  0.1223  0.1683
  189MOL   C11245608   5.584   0.522   3.440 -0.3671  0.5437 -0.4362
  189MOL   O11345609   5.507   0.600   3.487 -0.0149 -0.0124 -0.0868
  189MOL   O11445610   5.591   0.492   3.311  0.3306 -0.2342  0.0837
  189MOL   C11545611   5.504   0.560   3.216  0.2295  0.1271 -0.0546
  189MOL   H11645612   5.646   0.241   3.642 -2.8102  0.5780  2.6663
  189MOL   H11745613   5.582   0.237   3.474 -0.9994  2.0619 -1.1724
  189MOL   H11845614   5.745   0.375   3.472 -0.0667 -1.2007  1.9934
  189MOL   H11945615   5.568   0.639   3.177 -1.6245  0.6156 -2.1955
  189MOL   H12045616   5.432   0.622   3.271  0.1129  2.0844 -2.3303
  189MOL   H12145617   5.465   0.492   3.141  0.1064 -0.4596  0.5405
  189MOL   C12245618   5.702   0.498   3.652  0.2686 -0.4357  0.3450
  189MOL   C12345619   5.800   0.617   3.640 -0.5355 -0.2023  0.0086
  189MOL   C12445620   5.820   0.687   3.771 -0.4591 -0.0692 -0.1390
  189MOL   O12545621   5.828   0.811   3.767 -0.6144  0.2096 -0.2644
  189MOL   O12645622   5.828   0.603   3.876  0.2439  0.5250  0.0297
  189MOL   C12745623   5.826   0.668   4.003  0.2432  0.3798 -0.5361
  189MOL   H12845624   5.616   0.527   3.713  0.3194  0.7125 -0.1066
  189MOL   H12945625   5.757   0.427   3.714 -0.1694 -0.7374  0.3909
  189MOL   H13045626   5.763   0.691   3.570  0.3622  0.4828  0.2518
  189MOL   H13145627   5.732   0.720   4.021  0.6034  0.7034  0.4626
  189MOL   H13245628   5.904   0.744   4.012  1.0142 -0.5069  0.5145
  189MOL   H13345629   5.836   0.593   4.082  3.1000  1.4795  0.2347
  189MOL   C13445630   5.936   0.589   3.570  0.7149  0.4750 -0.1384
  189MOL   C13545631   5.952   0.588   3.414 -0.4292 -0.3064 -0.7968
  189MOL   C13645632   5.901   0.714   3.347  0.8768  0.0176 -0.3277
  189MOL   O13745633   5.786   0.719   3.298 -0.1099 -0.4620 -0.0232
  189MOL   O13845634   5.993   0.810   3.345  0.0089 -0.3381  0.4317
  189MOL   C13945635   5.983   0.919   3.262 -0.1054  0.6028 -0.0027
  189MOL   H14045636   6.003   0.671   3.596 -0.4324  1.8884 -1.5721
  189MOL   H14145637   5.973   0.490   3.596 -0.1378 -0.1249 -1.1965
  189MOL   H14245638   5.878   0.515   3.382 -0.6109 -0.4614 -0.0356
  189MOL   H14345639   5.889   0.968   3.291  0.3430 -1.2647  5.1515
  189MOL   H14445640   5.981   0.883   3.159  2.4093 -0.8945  0.4420
  189MOL   H14545641   6.059   0.992   3.289 -0.3403  0.7131  0.3620
  189MOL   C14645642   6.092   0.546   3.368  0.3743 -0.1926  0.1747
  189MOL   C14745643   6.114   0.493   3.219  0.5301  0.7016  0.1790
  189MOL   C14845644   6.016   0.381   3.184 -0.0827 -1.2473 -0.7969
  189MOL   O14945645   6.032   0.267   3.226 -0.9439  0.1737 -0.1000
  189MOL   O15045646   5.904   0.429   3.114 -0.5510  0.1432 -0.4778
  189MOL   C15145647   5.801   0.340   3.079 -0.0986 -0.0985 -0.1114
  189MOL   H15245648   6.163   0.622   3.399  0.5290 -0.8609  1.5338
  189MOL   H15345649   6.125   0.457   3.422 -1.8906 -0.5963  0.9629
  189MOL   H15445650   6.215   0.452   3.217  0.3329  0.1362  1.4871
  189MOL   H15545651   5.840   0.244   3.048  1.1371 -0.0826  1.3606
  189MOL   H15645652   5.728   0.368   3.002  0.7902 -2.6893 -1.9391
  189MOL   H15745653   5.737   0.321   3.165 -2.1364  2.1628 -1.0267
  189MOL   C15845654   6.119   0.604   3.111  0.2750  0.2262  0.0647
  189MOL   C15945655   6.159   0.565   2.964  0.0669  0.1120  0.1369
  189MOL   C16045656   6.136   0.687   2.871  0.1269 -0.8212  0.0796
  189MOL   O16145657   6.084   0.672   2.759  0.1618 -0.0119 -0.0210
  189MOL   O16245658   6.152   0.809   2.930 -0.0311  0.3919 -0.8954
  189MOL   C16345659   6.118   0.928   2.856  0.0526 -0.3202  0.2740
  189MOL   H16445660   6.019   0.646   3.105 -0.0270 -0.0580  2.6564
  189MOL   H16545661   6.192   0.675   3.151 -0.1923  0.2799  0.8340
  189MOL   H16645662   6.093   0.484   2.935  1.0373 -1.1287  1.3392
  189MOL   H16745663   6.124   1.014   2.922 -4.1031  0.1940  0.1004
  189MOL   H16845664   6.017   0.923   2.816 -0.3851 -0.2684  1.3776
  189MOL   H16945665   6.188   0.950   2.775 -0.0206  1.2120  0.6102
  189MOL   C17045666   6.297   0.507   2.957  0.1735 -0.7623 -0.3735
  189MOL   C17145667   6.316   0.398   2.858  0.4352  0.1148 -0.0876
  189MOL   C17245668   6.289   0.445   2.715 -0.2702 -0.3546 -0.2520
  189MOL   O17345669   6.201   0.393   2.644 -0.0775 -1.0626  0.1792
  189MOL   O17445670   6.372   0.543   2.669  0.2947 -0.4754  0.2100
  189MOL   C17545671   6.348   0.608   2.544  0.1152  0.2329 -0.2973
  189MOL   H17645672   6.369   0.588   2.944 -2.1949  1.1386 -2.0346
  189MOL   H17745673   6.324   0.468   3.055  3.0821  1.7389 -0.0754
  189MOL   H17845674   6.238   0.327   2.887  0.4588  0.4662  0.8580
  189MOL   H17945675   6.240   0.627   2.542 -0.0629 -0.4840  1.4141
  189MOL   H18045676   6.374   0.538   2.465  0.6147  0.1162 -0.0278
  189MOL   H18145677   6.403   0.699   2.522  0.2939  0.0075 -0.7733
  189MOL   C18245678   6.452   0.324   2.874  0.2265  0.2549 -0.2692
  189MOL   C18345679   6.470   0.181   2.828  0.2927 -0.0895 -0.4754
  189MOL   C18445680   6.387   0.076   2.914 -0.0469 -0.9955 -0.0098
  189MOL   O18545681   6.276   0.036   2.883 -0.3056 -0.4808 -0.9198
  189MOL   O18645682   6.441   0.047   3.027 -0.2012  0.4771  0.3831
  189MOL   C18745683   6.378   7.885   3.111  0.5788  0.0140 -0.0191
  189MOL   H18845684   6.523   0.381   2.814 -0.1561  1.0034 -0.0241
  189MOL   H18945685   6.488   0.317   2.977 -0.4846 -0.7811 -0.0811
  189MOL   H19045686   6.573   0.165   2.859  0.9379  1.9765 -1.4278
  189MOL   H19145687   6.345   7.793   3.061 -0.8858  0.1272  0.7280
  189MOL   H19245688   6.286   7.928   3.150  1.6171  1.8876  0.3922
  189MOL   H19345689   6.438   7.861   3.199 -0.4608 -1.5531  0.2981
  189MOL   C19445690   6.443   0.153   2.679 -0.4681  0.0260 -0.2124
  189MOL   C19545691   6.508   0.023   2.624  0.0852  0.0695  0.1896
  189MOL   C19645692   6.437   7.912   2.489 -0.3048  0.2544  0.1093
  189MOL   O19745693   6.356   7.822   2.483  0.1378  0.3407  0.0159
  189MOL   O19845694   6.463   0.064   2.388  0.3133  0.3736  0.1473
  189MOL   C19945695   6.413   0.038   2.252  0.0488 -1.0059 -0.3823
  189MOL   H20045696   6.338   0.155   2.652 -0.9571  1.4336  1.7258
  189MOL   H20145697   6.481   0.235   2.619 -1.2036  0.4044 -0.1629
  189MOL   H20245698   6.486   7.876   2.695  1.2064 -0.7833 -0.4059
  189MOL   H20345699   6.488   7.918   2.195  1.2681  0.2712  0.0021
  189MOL   H20445700   6.417   0.131   2.195 -2.0614 -0.0702  0.9267
  189MOL   H20545701   6.311   0.003   2.239 -0.4706  0.8280 -1.3718
  189MOL   C20645702   6.663   0.034   2.608  0.4994  0.6672  0.4985
  189MOL   C20745703   6.727   7.825   2.601  0.4960 -0.2145 -0.8690
  189MOL   C20845704   6.805   7.797   2.473  0.0024 -0.0433 -0.0255
  189MOL   O20945705   6.921   7.760   2.475  0.2603  0.4241  0.3077
  189MOL   O21045706   6.738   7.810   2.366  0.1037  0.3594  0.0564
  189MOL   C21145707   6.788   7.821   2.235 -0.8217  0.2718  0.1081
  189MOL   H21245708   6.686   0.091   2.518 -0.1196  0.5039  0.2284
  189MOL   H21345709   6.708   0.091   2.690  0.9300 -0.5614  1.1246
  189MOL   H21445710   6.639   7.760   2.592 -0.7613  1.3267 -0.0119
  189MOL   H21545711   6.868   7.752   2.207 -1.5573 -0.7858  0.5582
  189MOL   H21645712   6.823   7.922   2.218 -2.0015  0.3324 -2.2046
  189MOL   H21745713   6.708   7.819   2.161 -0.9721  0.6186  0.2659
  189MOL   C21845714   6.819   7.797   2.732  0.1654 -0.0807 -0.5154
  189MOL   C21945715   6.742   7.741   2.854 -0.1277 -0.6831  0.2700
  189MOL   C22045716   6.651   7.622   2.821  0.4052 -0.2868 -0.4709
  189MOL   O22145717   6.536   7.621   2.862  0.2011  0.2028 -0.1376
  189MOL   O22245718   6.713   7.520   2.762  0.0770 -0.2971 -0.6091
  189MOL   C22345719   6.637   7.400   2.738  0.7239  0.2216  0.2533
  189MOL   H22445720   6.901   7.729   2.708 -0.7062 -0.8801 -1.2845
  189MOL   H22545721   6.867   7.890   2.761  3.0427 -1.5909 -0.2324
  189MOL   H22645722   6.679   7.829   2.866 -1.6090 -1.7244  0.2474
  189MOL   H22745723   6.694   7.307   2.730  0.4054  0.0992 -0.6768
  189MOL   H22845724   6.559   7.412   2.662  1.0526 -0.6951 -0.2415
  189MOL   H22945725   6.573   7.379   2.824  0.2066  0.8931  0.0334
  189MOL   C23045726   6.825   7.714   2.975  0.0906 -0.4936 -0.2624
  189MOL   C23145727   6.791   7.820   3.093 -0.3154  0.0678  0.2730
  189MOL   C23245728   6.855   0.028   3.073  0.3794 -0.0001  0.0103
  189MOL   O23345729   6.951   0.056   3.147  0.6032 -0.0521  0.0341
  189MOL   O23445730   6.796   0.100   2.979 -0.1029 -0.0979  0.2973
  189MOL   C23545731   6.847   0.231   2.964  0.0038 -0.1608 -1.0325
  189MOL   H23645732   6.797   7.616   3.013  1.1078 -0.4504  0.6302
  189MOL   H23745733   6.932   7.709   2.952  0.3462 -2.7167  1.3127
  189MOL   H23845734   6.832   7.774   3.183  2.3684  0.4439 -0.7242
  189MOL   H23945735   6.777   0.273   2.892 -1.2496 -1.7524 -0.7758
  189MOL   H24045736   6.949   0.224   2.926  0.2166 -0.9676 -0.3337
  189MOL   H24145737   6.854   0.290   3.055 -1.0012 -1.5898 -0.0064
  189MOL   H24245738   6.682   7.831   3.091 -0.4674 -1.3707 -1.4856
  190MOL     C145739   2.429   2.376   0.491  0.0192  0.2994  1.0111
  190MOL     C245740   2.444   2.314   0.633 -0.0761 -0.3455 -0.6797
  190MOL     C345741   2.589   2.341   0.689 -0.7853  0.0939 -0.5324
  190MOL     O445742   2.612   2.417   0.784  0.2378  0.0824 -0.4284
  190MOL     O545743   2.683   2.267   0.628 -0.7725  0.1531 -0.1943
  190MOL     C645744   2.820   2.273   0.651 -0.1331 -0.6741 -0.1018
  190MOL     H745745   2.436   2.485   0.491  1.4221  0.2241  0.5542
  190MOL     H845746   2.347   2.347   0.424 -0.0950 -0.7353  1.5932
  190MOL     H945747   2.434   2.207   0.613 -2.3076 -0.0721 -1.1804
  190MOL    H1045748   2.834   2.311   0.752 -1.6907  0.6124 -0.3529
  190MOL    H1145749   2.851   2.358   0.590 -1.9045  0.7172  0.8952
  190MOL    H1245750   2.864   2.176   0.628  1.0337 -1.0326  3.3511
  190MOL    H1345751   2.514   2.339   0.433 -1.1406 -1.6540  0.5268
  190MOL    C1445752   2.335   2.362   0.732 -0.6586  0.3784 -0.9771
  190MOL    C1545753   2.191   2.348   0.676 -0.2275  0.0333  0.6469
  190MOL    C1645754   2.118   2.213   0.719  0.1615  0.1755  0.7913
  190MOL    O1745755   2.034   2.204   0.806  0.1102 -0.6786  0.2519
  190MOL    O1845756   2.168   2.108   0.656 -0.2573 -0.3417  0.0495
  190MOL    C1945757   2.114   1.977   0.674  0.0176  0.1189 -0.0630
  190MOL    H2045758   2.332   2.312   0.829 -1.0760  0.9535 -0.6853
  190MOL    H2145759   2.357   2.466   0.755  1.4054 -0.8728  3.2079
  190MOL    H2245760   2.200   2.336   0.568 -1.0956  0.5501  0.5060
  190MOL    H2345761   2.166   1.908   0.607 -2.1083  0.8711 -2.5739
  190MOL    H2445762   2.009   1.956   0.656  0.0959 -2.9158  2.4905
  190MOL    H2545763   2.137   1.943   0.775  1.3780  1.2954  0.0336
  190MOL    C2645764   2.099   2.465   0.713 -0.3525  0.1221  0.1540
  190MOL    C2745765   2.144   2.602   0.637 -0.0578  0.1199 -0.5855
  190MOL    C2845766   2.108   2.592   0.496  0.6541 -0.3848  0.9065
  190MOL    O2945767   2.189   2.629   0.408  0.0755  0.5094  0.2181
  190MOL    O3045768   1.982   2.540   0.472  0.2270  0.0445  0.6172
  190MOL    C3145769   1.924   2.528   0.339 -0.7115  0.1489  0.2179
  190MOL    H3245770   1.993   2.442   0.699 -0.3553  1.2688 -1.8747
  190MOL    H3345771   2.106   2.476   0.821  2.9004 -0.5321  0.0574
  190MOL    H3445772   2.253   2.610   0.646 -0.1943 -1.2043  2.8847
  190MOL    H3545773   1.837   2.462   0.339  0.9462 -2.1202  1.4156
  190MOL    H3645774   1.998   2.476   0.277  0.1846  3.3506 -1.5134
  190MOL    H3745775   1.907   2.625   0.293 -0.3598  1.0216  1.9074
  190MOL    C3845776   2.088   2.732   0.698 -0.1511 -0.2387  0.1054
  190MOL    C3945777   2.135   2.741   0.847 -0.4462 -0.5880 -0.4332
  190MOL    C4045778   2.288   2.775   0.855 -0.2885  0.7739  0.9954
  190MOL    O4145779   2.360   2.713   0.931 -0.4319  0.8721  0.2926
  190MOL    O4245780   2.322   2.879   0.786 -0.1841 -0.1201  0.6656
  190MOL    C4345781   2.452   2.938   0.814  0.9864  0.1718 -0.1463
  190MOL    H4445782   2.123   2.818   0.641  3.0730 -1.2936  0.3998
  190MOL    H4545783   1.981   2.726   0.680  0.3490 -1.5237 -2.7053
  190MOL    H4645784   2.131   2.650   0.908 -2.5505  2.4945  4.4107
  190MOL    H4745785   2.466   2.962   0.919 -1.6941 -0.9668  0.5042
  190MOL    H4845786   2.468   3.029   0.756  2.2192  0.3483  0.4422
  190MOL    H4945787   2.530   2.867   0.786 -1.2441 -2.1140 -0.7727
  190MOL    C5045788   2.057   2.851   0.921  0.5101 -0.3268 -0.2302
  190MOL    C5145789   1.924   2.816   0.986  0.4341  0.4214  0.1500
  190MOL    C5245790   1.812   2.786   0.880  0.1296 -0.0464  0.4554
  190MOL    O5345791   1.782   2.670   0.858 -0.2286 -0.0880  0.4915
  190MOL    O5445792   1.753   2.891   0.818  0.0876 -0.6076 -0.1869
  190MOL    C5545793   1.655   2.865   0.719 -0.1361 -0.0545 -0.1324
  190MOL    H5645794   2.116   2.881   1.008 -0.7534  2.3473 -0.2404
  190MOL    H5745795   2.037   2.942   0.864  2.5207  0.0125 -0.4338
  190MOL    H5845796   1.876   2.904   1.029  1.2467 -0.3122  2.6181
  190MOL    H5945797   1.604   2.961   0.719  0.3500  0.2023  0.8702
  190MOL    H6045798   1.581   2.789   0.746 -1.0556  0.7546 -0.3522
  190MOL    H6145799   1.691   2.837   0.620 -0.1864 -0.0982 -0.1389
  190MOL    C6245800   1.939   2.703   1.090 -0.6075 -0.0328 -0.2541
  190MOL    C6345801   1.813   2.668   1.173  0.8511 -0.3714  0.6089
  190MOL    C6445802   1.831   2.536   1.254 -0.0537  0.7145  0.2520
  190MOL    O6545803   1.834   2.537   1.374 -0.0127  0.1281 -0.2806
  190MOL    O6645804   1.837   2.426   1.175 -0.4057  0.6579 -0.6008
  190MOL    C6745805   1.873   2.308   1.239 -0.1583  0.6403 -0.2705
  190MOL    H6845806   1.992   2.620   1.044 -0.1240  0.3191 -0.3388
  190MOL    H6945807   2.015   2.732   1.163 -0.3840  1.5252 -1.1007
  190MOL    H7045808   1.735   2.646   1.101  0.0676  0.0759  1.3082
  190MOL    H7145809   1.854   2.230   1.165  2.4974 -2.3253  2.0396
  190MOL    H7245810   1.805   2.294   1.322 -1.5691 -2.7162 -1.8952
  190MOL    H7345811   1.980   2.301   1.261  0.1754  1.1083 -1.6877
  190MOL    C7445812   1.779   2.783   1.271 -0.2452  0.4353  0.1201
  190MOL    C7545813   1.634   2.818   1.278 -0.2945  0.3782 -0.4411
  190MOL    C7645814   1.609   2.893   1.409  0.2038 -0.0424  0.5203
  190MOL    O7745815   1.534   2.847   1.494 -0.1979 -0.1543  0.0996
  190MOL    O7845816   1.669   3.008   1.421  0.5824  0.0498  0.3924
  190MOL    C7945817   1.616   3.103   1.519  0.2058  0.4685  0.3447
  190MOL    H8045818   1.809   2.767   1.375 -0.2310  1.2919  0.2578
  190MOL    H8145819   1.844   2.866   1.246  0.2598 -0.0363 -0.1250
  190MOL    H8245820   1.583   2.721   1.279 -0.3641  0.4272  1.0491
  190MOL    H8345821   1.609   3.056   1.617 -1.2963  0.2620  0.1575
  190MOL    H8445822   1.521   3.141   1.481  0.3186  1.8293  1.3700
  190MOL    H8545823   1.677   3.189   1.544 -0.9456  1.4379 -0.1293
  190MOL    C8645824   1.591   2.903   1.155  0.8199  0.5129 -0.2009
  190MOL    C8745825   1.441   2.934   1.152 -0.0264 -0.0673 -0.0587
  190MOL    C8845826   1.422   3.035   1.030  0.4850 -0.2894  0.2252
  190MOL    O8945827   1.504   3.049   0.937  0.5275  0.3809 -0.0944
  190MOL    O9045828   1.314   3.103   1.042 -0.5910 -0.6462 -0.5040
  190MOL    C9145829   1.291   3.203   0.940 -0.2120 -0.3554 -0.0691
  190MOL    H9245830   1.646   2.997   1.165 -0.1534  1.0045  0.6536
  190MOL    H9345831   1.635   2.865   1.063 -0.0004  0.4295 -0.5661
  190MOL    H9445832   1.412   2.982   1.246  0.6576 -1.1814  0.7352
  190MOL    H9545833   1.198   3.256   0.962 -0.3544  0.1674 -1.8871
  190MOL    H9645834   1.286   3.157   0.842 -1.1261 -1.4776  0.4896
  190MOL    H9745835   1.374   3.273   0.933  1.9684 -2.9558 -0.9258
  190MOL    C9845836   1.347   2.810   1.139  0.4531  0.1075  0.3138
  190MOL    C9945837   1.361   2.732   0.999  0.3246  0.2747 -0.3234
  190MOL   C10045838   1.393   2.585   1.013  0.1620  0.5853 -0.1266
  190MOL   O10145839   1.325   2.500   0.956 -0.2777  0.5383 -0.4616
  190MOL   O10245840   1.506   2.557   1.084  0.3903  0.0112 -1.1160
  190MOL   C10345841   1.553   2.422   1.080  0.2933  0.1616 -0.1652
  190MOL   H10445842   1.367   2.740   1.221  2.7989 -0.8960 -1.0782
  190MOL   H10545843   1.247   2.848   1.159  0.0647 -1.1482  0.8076
  190MOL   H10645844   1.451   2.769   0.950  0.9625 -1.5315 -0.5397
  190MOL   H10745845   1.492   2.354   1.020  1.3778 -0.0083 -1.1094
  190MOL   H10845846   1.554   2.390   1.184  0.1413  0.0662 -0.1929
  190MOL   H10945847   1.652   2.423   1.035 -0.3811 -0.4839 -1.7021
  190MOL   C11045848   1.241   2.762   0.908  0.7184 -0.2491 -0.9960
  190MOL   C11145849   1.277   2.799   0.757  0.7939  0.2162  0.1566
  190MOL   C11245850   1.310   2.687   0.666  0.2418  0.2075  0.0158
  190MOL   O11345851   1.410   2.693   0.593  0.1596 -0.4850  0.5620
  190MOL   O11445852   1.210   2.596   0.656  0.4529  0.0127  0.1978
  190MOL   C11545853   1.222   2.493   0.555 -0.2594 -0.3450  0.2863
  190MOL   H11645854   1.180   2.672   0.907  1.2687 -0.7058  2.2048
  190MOL   H11745855   1.176   2.842   0.944  1.6922 -1.8507  4.8280
  190MOL   H11845856   1.368   2.859   0.763  1.0229 -0.2345  1.1308
  190MOL   H11945857   1.308   2.434   0.587 -0.4304 -0.4077  0.6322
  190MOL   H12045858   1.229   2.542   0.458  0.8294 -1.7313 -0.3543
  190MOL   H12145859   1.136   2.428   0.569 -1.2201  0.9083  0.3030
  190MOL   C12245860   1.158   2.890   0.696 -0.0027 -0.0660  0.1743
  190MOL   C12345861   1.148   2.932   0.547  0.3223 -0.2345 -0.2539
  190MOL   C12445862   1.271   3.013   0.506  0.5042  0.2966 -0.4724
  190MOL   O12545863   1.342   2.982   0.411 -0.5627  0.4181 -0.2582
  190MOL   O12645864   1.292   3.121   0.586  0.1624 -0.3097 -0.2588
  190MOL   C12745865   1.417   3.182   0.563 -0.2419 -0.5917  0.7464
  190MOL   H12845866   1.064   2.843   0.724 -0.1575 -1.1832 -2.1006
  190MOL   H12945867   1.171   2.982   0.754  0.9858 -0.1733  0.1268
  190MOL   H13045868   1.069   3.008   0.545  0.3271 -0.2437 -1.2958
  190MOL   H13145869   1.451   3.240   0.649  1.4877  1.2743 -1.1769
  190MOL   H13245870   1.418   3.252   0.480 -1.6261 -1.6715 -0.2277
  190MOL   H13345871   1.495   3.107   0.547 -0.5170 -0.5282 -0.9379
  190MOL   C13445872   1.100   2.822   0.453 -0.5291  0.2169 -0.4092
  190MOL   C13545873   1.083   2.864   0.309 -0.9874 -0.3702  0.6670
  190MOL   C13645874   1.048   2.732   0.228  0.1943 -0.1538  0.1746
  190MOL   O13745875   1.108   2.631   0.248 -0.2349  0.2963  0.0389
  190MOL   O13845876   0.945   2.745   0.142 -0.5622 -0.3375  0.1149
  190MOL   C13945877   0.902   2.635   0.063 -0.2787  0.3166 -0.6431
  190MOL   H14045878   1.178   2.746   0.440 -0.9118 -0.0714 -1.0643
  190MOL   H14145879   1.013   2.763   0.483 -0.1453 -0.8664 -1.4002
  190MOL   H14245880   1.177   2.904   0.271 -2.1469  1.8829  0.0837
  190MOL   H14345881   0.846   2.567   0.127  0.6399  0.0313 -0.1335
  190MOL   H14445882   0.986   2.577   0.024 -1.9103 -1.3337 -1.7951
  190MOL   H14545883   0.833   2.665   7.916 -2.3451 -0.4507  0.8131
  190MOL   C14645884   0.977   2.973   0.293 -0.4955 -0.2681 -0.9572
  190MOL   C14745885   0.824   2.940   0.337  0.3713  0.3546 -1.1942
  190MOL   C14845886   0.794   2.929   0.490 -0.4927 -0.4313  0.1520
  190MOL   O14945887   0.751   2.822   0.542 -0.3344  0.0332  0.3759
  190MOL   O15045888   0.823   3.041   0.555  0.2205 -0.3471  0.4977
  190MOL   C15145889   0.827   3.034   0.696  0.2842 -0.2451 -0.7797
  190MOL   H15245890   1.016   3.056   0.351  1.0579 -1.4779 -0.2311
  190MOL   H15345891   0.979   3.002   0.188  3.0003  1.9214 -0.3542
  190MOL   H15445892   0.793   2.839   0.309  4.0126  0.1556 -4.9022
  190MOL   H15545893   0.781   2.947   0.743 -0.4459  1.2935  1.4386
  190MOL   H15645894   0.769   3.118   0.734  1.3068 -0.2531  0.8184
  190MOL   H15745895   0.921   3.047   0.749 -0.2782 -1.5436  0.5614
  190MOL   C15845896   0.721   3.033   0.276  0.1695 -0.0490  0.5069
  190MOL   C15945897   0.593   2.961   0.216  0.0017  0.1783  0.1121
  190MOL   C16045898   0.629   2.893   0.083  0.7402  0.2449  1.1883
  190MOL   O16145899   0.610   2.775   0.068  0.0272 -0.0305  0.0504
  190MOL   O16245900   0.653   2.979   7.918 -0.2183 -0.3747  0.0744
  190MOL   C16345901   0.655   2.930   7.785  0.1266 -0.8074  0.5095
  190MOL   H16445902   0.692   3.109   0.349  0.9419  0.8406 -0.0996
  190MOL   H16545903   0.770   3.086   0.194 -1.0762  1.5386  0.7479
  190MOL   H16645904   0.521   3.038   0.189  0.6661  0.0972 -1.9868
  190MOL   H16745905   0.552   2.938   7.748  0.2278  0.1686  0.4210
  190MOL   H16845906   0.684   2.826   7.795  1.3944 -0.5307 -0.2549
  190MOL   H16945907   0.729   2.988   7.731 -0.0692 -1.3091 -0.3030
  190MOL   C17045908   0.510   2.861   0.307  0.3459  0.4278 -0.2654
  190MOL   C17145909   0.457   2.917   0.444 -0.9694  0.5360 -0.6901
  190MOL   C17245910   0.354   3.023   0.408 -0.5603 -0.8509  0.6856
  190MOL   O17345911   0.363   3.140   0.445 -0.3673 -0.8973  0.3962
  190MOL   O17445912   0.260   2.971   0.338  0.5441 -0.5100  0.2167
  190MOL   C17545913   0.148   3.052   0.308 -0.2688  0.0196  0.6333
  190MOL   H17645914   0.423   2.821   0.254 -0.3702 -0.8501  1.7873
  190MOL   H17745915   0.574   2.776   0.333  3.4397  2.7155 -0.2020
  190MOL   H17845916   0.545   2.955   0.495  0.5630 -3.1613 -0.4596
  190MOL   H17945917   0.168   3.125   0.230  0.0059  0.1029  0.7807
  190MOL   H18045918   0.096   3.087   0.397 -0.4539  1.5752 -0.0704
  190MOL   H18145919   0.071   2.987   0.267 -0.0163 -1.7896  2.9413
  190MOL   C18245920   0.405   2.804   0.532  0.6972  0.9070 -0.2639
  190MOL   C18345921   0.347   2.850   0.668 -0.1917 -0.3005 -0.1899
  190MOL   C18445922   0.254   2.739   0.721  0.5602  0.0295 -0.1130
  190MOL   O18545923   0.131   2.755   0.734 -0.4097  0.0335  0.1092
  190MOL   O18645924   0.323   2.638   0.760 -0.5905  0.3061  0.0310
  190MOL   C18745925   0.250   2.538   0.831 -0.3231  0.2131  0.7870
  190MOL   H18845926   0.329   2.756   0.470  0.8120  0.8477 -0.3574
  190MOL   H18945927   0.486   2.731   0.537 -1.9978 -2.1900  0.0264
  190MOL   H19045928   0.288   2.941   0.666  2.2859  1.5004  3.4354
  190MOL   H19145929   0.192   2.558   0.921  0.7587 -0.8136  1.7290
  190MOL   H19245930   0.327   2.468   0.863 -0.1030 -1.0983 -2.4894
  190MOL   H19345931   0.186   2.482   0.763  0.2355  0.4411  0.0692
  190MOL   C19445932   0.451   2.897   0.768 -0.5549  0.2054 -0.1225
  190MOL   C19545933   0.408   2.910   0.919 -0.3269 -0.3594 -0.5147
  190MOL   C19645934   0.523   2.918   1.023  0.9635  1.1200  0.4774
  190MOL   O19745935   0.570   2.816   1.073 -0.5962 -0.2179 -0.2862
  190MOL   O19845936   0.582   3.038   1.032 -0.0343 -0.5265  0.5385
  190MOL   C19945937   0.679   3.058   1.129 -0.5751 -0.1518 -0.6230
  190MOL   H20045938   0.530   2.822   0.765 -0.1663  0.6023  0.0634
  190MOL   H20145939   0.492   2.994   0.739 -0.1321  0.2558  0.6102
  190MOL   H20245940   0.373   2.811   0.948  2.3515 -1.9469 -2.4654
  190MOL   H20345941   0.633   3.069   1.227  2.3113 -0.8118  0.8594
  190MOL   H20445942   0.720   3.152   1.093  2.5692 -0.2151  2.5415
  190MOL   H20545943   0.765   2.993   1.147 -0.3665  0.8031  1.9365
  190MOL   C20645944   0.290   3.004   0.942 -0.1662 -0.1943  0.0081
  190MOL   C20745945   0.221   3.006   1.082  0.5164 -0.2282  0.1917
  190MOL   C20845946   0.149   2.870   1.110  0.0900 -0.5915  0.1507
  190MOL   O20945947   0.200   2.782   1.181  0.2423  0.3736 -0.2586
  190MOL   O21045948   0.038   2.850   1.033 -0.6794 -0.3200 -0.0613
  190MOL   C21145949   7.907   2.725   1.052 -0.3283 -0.3392  0.2938
  190MOL   H21245950   0.312   3.109   0.920  2.4601 -0.8262 -0.5522
  190MOL   H21345951   0.225   2.974   0.859  1.6113 -1.1450 -1.0550
  190MOL   H21445952   0.133   3.069   1.064 -0.3951 -0.1982  4.3371
  190MOL   H21545953   7.886   2.713   1.158  0.7131 -0.2974  0.5110
  190MOL   H21645954   0.045   2.643   1.036 -0.2279 -0.0168 -0.9839
  190MOL   H21745955   7.827   2.703   0.982 -0.5369  0.6715  0.2162
  190MOL   C21845956   0.298   3.067   1.211 -0.4736  0.3595 -0.2083
  190MOL   C21945957   0.220   3.153   1.308 -0.7334 -0.3244 -0.1492
  190MOL   C22045958   0.103   3.080   1.375 -0.0898 -0.5075 -0.0196
  190MOL   O22145959   7.919   3.106   1.344 -0.8688  0.2189  0.1051
  190MOL   O22245960   0.131   2.980   1.468 -0.6293 -0.0984 -0.3499
  190MOL   C22345961   0.030   2.885   1.505  0.3217 -0.1002  0.0254
  190MOL   H22445962   0.343   2.986   1.268 -1.8283  0.2934  0.7925
  190MOL   H22545963   0.387   3.121   1.177 -0.6136  0.4505 -0.4351
  190MOL   H22645964   0.169   3.229   1.248  0.1122  0.0683 -0.3809
  190MOL   H22745965   0.021   2.821   1.417  2.2371 -1.0286  0.4616
  190MOL   H22845966   7.867   2.931   1.530  0.6420  0.4955  0.1702
  190MOL   H22945967   0.060   2.806   1.574  1.2252 -0.5159 -0.8262
  190MOL   C23045968   0.327   3.223   1.412 -0.4228  0.3731 -0.1215
  190MOL   C23145969   0.261   3.329   1.501 -0.1042 -0.4386 -0.1030
  190MOL   C23245970   0.260   3.467   1.441 -0.8045 -0.1780  0.1345
  190MOL   O23345971   0.270   3.481   1.319  0.1094  0.0026 -0.1644
  190MOL   O23445972   0.262   3.558   1.542  0.0826  0.5066  0.1104
  190MOL   C23545973   0.282   3.692   1.513 -0.0188 -0.0857 -0.0171
  190MOL   H23645974   0.373   3.146   1.474 -1.0084 -2.0333 -2.5919
  190MOL   H23745975   0.410   3.255   1.348  0.3259 -1.0108  0.1461
  190MOL   H23845976   0.332   3.346   1.583 -0.5289 -0.6518  0.3131
  190MOL   H23945977   0.359   3.711   1.438 -0.8305  0.7415 -0.6532
  190MOL   H24045978   0.323   3.732   1.606  1.1203 -0.6693 -0.2544
  190MOL   H24145979   0.196   3.754   1.488 -0.1532 -1.0093 -1.8756
  190MOL   H24245980   0.166   3.291   1.540 -0.1564 -1.4073 -1.1680
  191MOL     C145981   4.579   7.528   1.074  0.2863 -0.2106 -0.2579
  191MOL     C245982   4.651   7.639   0.995 -0.3895  0.1935 -0.3918
  191MOL     C345983   4.548   7.757   0.989 -0.2063 -0.4763 -0.7680
  191MOL     O445984   4.561   7.860   1.061  0.4046  0.1796  0.5113
  191MOL     O545985   4.440   7.735   0.912  0.1317 -0.4589 -0.7169
  191MOL     C645986   4.349   7.842   0.907  0.0600 -0.1265  0.2142
  191MOL     H745987   4.545   7.569   1.170 -0.5076  1.1411 -1.1045
  191MOL     H845988   4.646   7.447   1.101 -0.4824 -0.5348  0.7288
  191MOL     H945989   4.660   7.609   0.891  0.8377 -1.5584  0.1928
  191MOL    H1045990   4.393   7.919   0.843  0.5382 -0.9454 -0.4518
  191MOL    H1145991   4.311   7.890   0.998  1.1046 -1.2157  1.2487
  191MOL    H1245992   4.260   7.817   0.851 -1.2401  0.2653  2.0667
  191MOL    H1345993   4.498   7.491   1.012  1.2332  0.7454 -2.0822
  191MOL    C1445994   4.790   7.676   1.057  0.3594  0.1290 -0.4102
  191MOL    C1545995   4.902   7.589   1.011 -1.2895  0.1960  0.8854
  191MOL    C1645996   4.939   7.603   0.863 -0.4272 -0.4335 -0.1315
  191MOL    O1745997   5.028   7.676   0.822 -0.0341  0.2641 -0.5034
  191MOL    O1845998   4.853   7.541   0.778 -0.0175 -0.1937  0.5270
  191MOL    C1945999   4.895   7.514   0.647 -0.1279 -0.6675 -0.0762
  191MOL    H2046000   4.803   7.784   1.048 -0.9892  0.2568 -0.8398
  191MOL    H2146001   4.773   7.672   1.165 -0.9561 -2.0287 -0.6614
  191MOL    H2246002   4.883   7.483   1.027  0.7917 -0.4298 -0.5233
  191MOL    H2346003   4.860   7.592   0.580 -1.1004  0.0105  1.1814
  191MOL    H2446004   4.849   7.422   0.609  0.5569 -0.8997 -0.3339
  191MOL    H2546005   5.000   7.497   0.628 -0.4296 -0.0970 -2.2922
  191MOL    C2646006   5.030   7.604   1.098 -0.1708  0.3727  0.3740
  191MOL    C2746007   5.022   7.570   1.247  0.1122 -0.3489  0.0018
  191MOL    C2846008   4.952   7.437   1.268  0.8140  0.1671 -0.4308
  191MOL    O2946009   4.850   7.429   1.338  0.0336  0.3142  0.4921
  191MOL    O3046010   5.010   7.340   1.195 -0.2433  0.2904  0.8754
  191MOL    C3146011   4.954   7.209   1.203 -0.0147 -0.0021 -0.3593
  191MOL    H3246012   5.100   7.534   1.052  1.6118  1.6756  1.0514
  191MOL    H3346013   5.082   7.700   1.092  0.9725 -0.1280  1.9850
  191MOL    H3446014   4.965   7.649   1.294 -0.9946 -1.6189  0.8268
  191MOL    H3546015   4.998   7.130   1.141  2.2456  1.9095 -1.2879
  191MOL    H3646016   4.849   7.207   1.173 -0.4840 -0.3659  1.2966
  191MOL    H3746017   4.942   7.167   1.303 -1.7324  0.1763 -0.4862
  191MOL    C3846018   5.159   7.562   1.303 -0.1884 -0.1941 -0.8317
  191MOL    C3946019   5.163   7.544   1.456  0.6480  0.5084  0.0487
  191MOL    C4046020   5.304   7.497   1.497 -0.0474 -0.1488  0.5412
  191MOL    O4146021   5.405   7.574   1.503  0.2157 -0.5093 -0.4121
  191MOL    O4246022   5.307   7.366   1.524 -0.5087 -0.4070  0.1441
  191MOL    C4346023   5.431   7.319   1.587 -0.4770 -0.2194 -0.0134
  191MOL    H4446024   5.204   7.477   1.252  0.1492 -0.1224 -0.6593
  191MOL    H4546025   5.222   7.649   1.283 -1.2801  0.7272 -0.3218
  191MOL    H4646026   5.089   7.466   1.476  0.1522  0.8434 -0.4678
  191MOL    H4746027   5.420   7.220   1.631  1.6648  0.3052  1.7981
  191MOL    H4846028   5.467   7.384   1.667 -0.1913  0.4626 -0.6920
  191MOL    H4946029   5.513   7.312   1.517 -0.4813  0.0251 -0.0436
  191MOL    C5046030   5.119   7.673   1.533  0.3892  0.3053 -0.3115
  191MOL    C5146031   5.040   7.649   1.664 -0.7839  0.7024  0.1472
  191MOL    C5246032   5.125   7.597   1.782 -0.2541 -0.3568 -1.0405
  191MOL    O5346033   5.241   7.638   1.794 -0.1013  0.7115 -0.0560
  191MOL    O5446034   5.057   7.504   1.855  0.1268 -0.2867 -0.3159
  191MOL    C5546035   5.131   7.415   1.936 -0.2662 -0.2228  0.3342
  191MOL    H5646036   5.212   7.727   1.548  0.4059 -0.4052  2.5440
  191MOL    H5746037   5.060   7.746   1.478 -0.2362 -0.1566 -0.2594
  191MOL    H5846038   4.957   7.579   1.648  1.2413 -1.5642 -0.6885
  191MOL    H5946039   5.081   7.373   2.023  1.4456 -2.7893  0.1574
  191MOL    H6046040   5.222   7.458   1.978  1.4156 -1.5859 -1.8025
  191MOL    H6146041   5.170   7.335   1.872  0.2648 -1.1379  1.7791
  191MOL    C6246042   4.956   7.778   1.694  0.2063  0.5623  0.1345
  191MOL    C6346043   4.842   7.752   1.797  0.1314 -0.1366 -0.7315
  191MOL    C6446044   4.788   7.886   1.866 -0.6916 -0.5874  0.0075
  191MOL    O6546045   4.853   0.057   1.845  0.5021 -0.1723  0.0104
  191MOL    O6646046   4.679   7.870   1.945  0.4147 -0.7639  0.0500
  191MOL    C6746047   4.649   0.035   2.044  0.3490 -0.4294 -0.7961
  191MOL    H6846048   5.022   7.854   1.737 -0.1876  0.4225  1.0115
  191MOL    H6946049   4.901   7.810   1.606  0.1703 -1.1445 -0.4681
  191MOL    H7046050   4.880   7.697   1.883 -0.2925 -0.9277 -1.0561
  191MOL    H7146051   4.589   0.121   2.015 -0.8961 -0.5644  1.2232
  191MOL    H7246052   4.743   0.070   2.087 -0.1796 -0.1543  0.1401
  191MOL    H7346053   4.592   7.915   2.121 -1.5039  2.8265  0.1566
  191MOL    C7446054   4.723   7.663   1.742 -0.0246 -0.8020 -0.2266
  191MOL    C7546055   4.613   7.723   1.647  0.1197  0.0415  0.3046
  191MOL    C7646056   4.661   7.778   1.515  0.1538  0.1643 -0.3348
  191MOL    O7746057   4.704   7.699   1.432  0.5221  0.0277  0.2995
  191MOL    O7846058   4.638   7.912   1.496 -0.4305  0.4728 -0.1496
  191MOL    C7946059   4.692   0.046   1.382  1.0565  0.7755 -0.3332
  191MOL    H8046060   4.769   7.577   1.695  0.2557 -1.9909  2.1176
  191MOL    H8146061   4.678   7.617   1.831 -0.3564 -1.8171 -0.9063
  191MOL    H8246062   4.566   7.809   1.694  0.1598  1.4935 -2.2159
  191MOL    H8346063   4.667   7.932   1.287 -1.2101 -1.5576  1.3565
  191MOL    H8446064   4.800   0.053   1.393  1.0454 -1.1643  1.3099
  191MOL    H8546065   4.636   0.140   1.385 -0.8595 -0.3485  0.8260
  191MOL    C8646066   4.489   7.634   1.623 -0.5676  0.3969  0.1457
  191MOL    C8746067   4.420   7.559   1.745 -0.2372 -0.7696 -0.8569
  191MOL    C8846068   4.376   7.669   1.848 -0.2020  0.6021 -0.4531
  191MOL    O8946069   4.420   7.674   1.965 -0.4395  0.4766  0.0080
  191MOL    O9046070   4.282   7.758   1.793 -0.2506  0.2701 -0.3475
  191MOL    C9146071   4.241   7.872   1.858 -0.3664 -0.8020 -0.0232
  191MOL    H9246072   4.414   7.687   1.565  1.4099  1.3445 -1.5777
  191MOL    H9346073   4.513   7.562   1.545  0.8244  0.5184  0.4564
  191MOL    H9446074   4.491   7.494   1.794  0.6847  0.4478 -0.5534
  191MOL    H9546075   4.239   7.853   1.965 -0.2644  1.9598  0.4955
  191MOL    H9646076   4.140   7.897   1.826  0.8477  2.0366 -1.8021
  191MOL    H9746077   4.304   0.021   1.824 -0.3171 -1.0992 -0.6682
  191MOL    C9846078   4.294   7.479   1.711  0.5423 -0.0746 -0.5803
  191MOL    C9946079   4.333   7.357   1.637  0.6808  0.3041 -0.0106
  191MOL   C10046080   4.416   7.258   1.715 -0.0502 -0.3105  0.0026
  191MOL   O10146081   4.519   7.208   1.664  0.0697 -0.1557 -0.9167
  191MOL   O10246082   4.367   7.221   1.839 -0.5171  0.0562 -0.0469
  191MOL   C10346083   4.437   7.135   1.927 -0.5904  0.2896  0.1072
  191MOL   H10446084   4.241   7.454   1.803 -1.7140 -1.0608 -2.1103
  191MOL   H10546085   4.220   7.540   1.658  1.3760  0.7920 -0.7583
  191MOL   H10646086   4.398   7.380   1.553  2.6378 -1.6135  0.9133
  191MOL   H10746087   4.448   7.038   1.879 -2.5710 -0.4646  1.0915
  191MOL   H10846088   4.384   7.107   2.018 -0.2919 -0.4711  0.0509
  191MOL   H10946089   4.535   7.179   1.946  0.5909 -2.8328  1.6306
  191MOL   C11046090   4.215   7.290   1.558  0.5346 -0.1165 -0.5080
  191MOL   C11146091   4.234   7.281   1.403 -0.4842 -0.6246 -0.3154
  191MOL   C11246092   4.337   7.179   1.368 -0.5560  0.0505  0.0677
  191MOL   O11346093   4.302   7.061   1.339 -0.0869 -0.2912  0.6188
  191MOL   O11446094   4.458   7.226   1.363 -0.6945  0.2609 -0.0319
  191MOL   C11546095   4.563   7.146   1.323  0.4988 -0.4064  0.7451
  191MOL   H11646096   4.203   7.193   1.607  2.5195 -0.2426 -0.2082
  191MOL   H11746097   4.121   7.337   1.585 -0.1658 -0.8882 -1.5926
  191MOL   H11846098   4.266   7.382   1.378  1.1533 -0.6015  1.7478
  191MOL   H11946099   4.575   7.068   1.398 -4.5137 -2.1973 -0.1038
  191MOL   H12046100   4.652   7.208   1.328  1.7789 -2.1934  0.5779
  191MOL   H12146101   4.553   7.119   1.217 -0.2672  0.8643  0.4769
  191MOL   C12246102   4.096   7.249   1.343  0.3323 -0.5533  0.6819
  191MOL   C12346103   4.082   7.260   1.186 -0.5124 -0.1440  0.3817
  191MOL   C12446104   3.952   7.202   1.129  0.0584 -0.0500 -0.0923
  191MOL   O12546105   3.874   7.277   1.081  0.2196 -1.1440  0.1524
  191MOL   O12646106   3.924   7.073   1.153 -0.0946 -0.3166  0.5303
  191MOL   C12746107   3.826   7.014   1.074 -0.0279  0.3735 -0.4665
  191MOL   H12846108   4.069   7.149   1.376  1.0856 -1.1146 -0.3682
  191MOL   H12946109   4.019   7.307   1.393 -0.5060 -0.9494 -0.1226
  191MOL   H13046110   4.157   7.198   1.138 -0.3665 -0.2311  0.7229
  191MOL   H13146111   3.727   7.059   1.085  0.2952  0.5512  1.9554
  191MOL   H13246112   3.822   6.907   1.093 -0.8229  0.2371 -1.3396
  191MOL   H13346113   3.849   7.022   0.968 -0.4561  1.5536 -0.4819
  191MOL   C13446114   4.122   7.395   1.123 -0.6279  0.3255 -0.0940
  191MOL   C13546115   4.042   7.513   1.176 -0.7394  0.1318 -0.0921
  191MOL   C13646116   4.119   7.609   1.265  0.1060 -0.0900 -0.2566
  191MOL   O13746117   4.113   7.594   1.387  0.1129 -0.0433 -0.3018
  191MOL   O13846118   4.202   7.698   1.204  0.2478  0.1351  0.4526
  191MOL   C13946119   4.307   7.765   1.277  0.2778 -0.1738 -0.8494
  191MOL   H14046120   4.228   7.417   1.130 -0.2021 -1.2700 -1.3358
  191MOL   H14146121   4.120   7.382   1.015  2.5362  1.0065 -0.2750
  191MOL   H14246122   3.960   7.469   1.232  0.0270 -1.2100  0.0013
  191MOL   H14346123   4.362   7.684   1.324 -2.4384 -2.0235 -0.7244
  191MOL   H14446124   4.258   7.829   1.351 -0.1878 -1.6450  0.1305
  191MOL   H14546125   4.372   7.819   1.208  1.1129  0.4659  0.4196
  191MOL   C14646126   3.984   7.595   1.053  0.0993 -0.2593 -0.3343
  191MOL   C14746127   3.909   7.720   1.097  0.3819 -0.0468 -0.2569
  191MOL   C14846128   3.889   7.808   0.967 -0.2415  0.2635  0.3199
  191MOL   O14946129   3.817   7.762   0.875 -0.6272  0.3370 -0.8203
  191MOL   O15046130   3.966   7.921   0.954 -0.0433 -0.2326 -0.2248
  191MOL   C15146131   3.958   0.063   0.829  0.9408  0.6214  0.4321
  191MOL   H15246132   4.053   7.637   0.980  0.4348  2.3310  1.4027
  191MOL   H15346133   3.914   7.534   0.996  1.4191 -2.0685 -0.0899
  191MOL   H15446134   3.971   7.781   1.162 -0.0746 -0.3163  0.4322
  191MOL   H15546135   3.870   0.046   0.766  0.1826  0.7646  1.4279
  191MOL   H15646136   4.049   0.035   0.777  1.2338  0.4329  1.0425
  191MOL   H15746137   3.957   0.172   0.838 -1.1711  1.0595 -3.7595
  191MOL   C15846138   3.779   7.682   1.172 -0.2939 -0.4415 -0.6048
  191MOL   C15946139   3.791   7.680   1.326  1.2335  0.3644 -0.0449
  191MOL   C16046140   3.831   7.804   1.392  0.4773 -0.5643  0.1847
  191MOL   O16146141   3.851   7.904   1.329 -0.6436  0.6633  0.2549
  191MOL   O16246142   3.850   7.796   1.530  0.0536  0.1078  0.5539
  191MOL   C16346143   3.912   7.909   1.598  0.6398 -0.5161 -0.0334
  191MOL   H16446144   3.707   7.762   1.155 -0.4949 -0.6384 -0.6713
  191MOL   H16546145   3.739   7.587   1.136 -1.3082  0.2782 -1.4068
  191MOL   H16646146   3.870   7.609   1.349  1.3194  0.9829  1.6694
  191MOL   H16746147   3.860   0.070   1.578  2.0920  0.3433  0.1553
  191MOL   H16846148   4.013   7.927   1.562  0.5237  0.3046  0.0285
  191MOL   H16946149   3.915   7.889   1.705  1.2084 -0.0836  0.0373
  191MOL   C17046150   3.664   7.626   1.395  0.5424  0.3044  0.3126
  191MOL   C17146151   3.673   7.477   1.432  0.1279 -0.1443  0.6104
  191MOL   C17246152   3.733   7.468   1.580 -0.3170  0.3139 -0.5442
  191MOL   O17346153   3.689   7.538   1.670  0.4911 -0.6388  0.3759
  191MOL   O17446154   3.830   7.372   1.587  0.4924 -0.2767  0.6129
  191MOL   C17546155   3.899   7.340   1.709 -0.3052 -0.2535  0.2439
  191MOL   H17646156   3.622   7.693   1.470 -2.1380  0.5294 -1.3124
  191MOL   H17746157   3.590   7.629   1.314  0.0110 -0.2383  0.7725
  191MOL   H17846158   3.738   7.427   1.360  0.4679  1.8764 -0.4964
  191MOL   H17946159   3.980   7.412   1.710 -0.4901 -0.0345 -0.2249
  191MOL   H18046160   3.942   7.240   1.701  0.6588  0.1526  0.4037
  191MOL   H18146161   3.847   7.346   1.804  1.3310  1.1073  1.0556
  191MOL   C18246162   3.526   7.423   1.419 -0.0437 -0.3984 -0.0812
  191MOL   C18346163   3.516   7.274   1.446  0.1000  0.2977  0.3247
  191MOL   C18446164   3.369   7.236   1.471 -0.3735 -0.0632  0.2827
  191MOL   O18546165   3.331   7.199   1.577 -0.5141  0.7623 -0.5080
  191MOL   O18646166   3.290   7.249   1.361  0.0605 -0.3418 -0.0638
  191MOL   C18746167   3.163   7.201   1.369 -0.1176 -0.1813 -0.1833
  191MOL   H18846168   3.455   7.471   1.486  2.0907  0.5228  1.6001
  191MOL   H18946169   3.485   7.431   1.318  2.8833  1.1420 -1.2090
  191MOL   H19046170   3.559   7.240   1.541  2.0029 -1.0236 -0.9755
  191MOL   H19146171   3.102   7.280   1.414 -0.4798  0.0853 -1.1345
  191MOL   H19246172   3.158   7.111   1.430  0.5718  0.0540  0.2331
  191MOL   H19346173   3.129   7.164   1.272 -0.9863 -0.9486  0.4019
  191MOL   C19446174   3.584   7.193   1.336  0.1657  0.3067  0.8517
  191MOL   C19546175   3.594   7.041   1.367 -0.3713  0.2167 -0.3572
  191MOL   C19646176   3.663   7.012   1.500 -0.4531 -0.4653  1.0455
  191MOL   O19746177   3.603   6.943   1.582  0.1779  0.0861  0.2884
  191MOL   O19846178   3.779   7.068   1.522 -0.4264  0.3091  0.3213
  191MOL   C19946179   3.845   7.023   1.644 -1.2103 -0.4663  0.2840
  191MOL   H20046180   3.533   7.205   1.240  2.9569 -3.3172 -1.1909
  191MOL   H20146181   3.689   7.221   1.331  0.0128  0.4321 -2.5064
  191MOL   H20246182   3.670   6.999   1.301 -0.4354 -0.0275 -0.2748
  191MOL   H20346183   3.949   7.054   1.637 -1.0259 -0.9618  0.7537
  191MOL   H20446184   3.859   6.915   1.651 -0.6169 -0.3511  0.8769
  191MOL   H20546185   3.805   7.070   1.735 -1.0452 -1.4954  0.8896
  191MOL   C20646186   3.469   6.952   1.332 -0.9326  0.3839  0.1228
  191MOL   C20746187   3.481   6.798   1.318 -0.0988  0.0228  0.2096
  191MOL   C20846188   3.377   6.719   1.395  0.7401 -0.0477 -0.1981
  191MOL   O20946189   3.402   6.637   1.489  0.0575 -0.5130  0.5112
  191MOL   O21046190   3.259   6.758   1.352  0.2997 -0.1163  0.5294
  191MOL   C21146191   3.146   6.730   1.427  0.8888  0.3419  0.0847
  191MOL   H21246192   3.391   6.977   1.404 -0.4504  0.0087  0.7762
  191MOL   H21346193   3.425   6.986   1.238 -1.3177 -0.9703 -0.1924
  191MOL   H21446194   3.577   6.756   1.348  0.7862  0.6092 -1.7768
  191MOL   H21546195   3.135   6.623   1.408 -2.0308  0.6241  0.0199
  191MOL   H21646196   3.063   6.785   1.384  0.9803  1.1757  0.9544
  191MOL   H21746197   3.160   6.742   1.535 -1.1387  1.4116  0.2484
  191MOL   C21846198   3.474   6.756   1.171  0.0493  0.1072 -0.7829
  191MOL   C21946199   3.471   6.604   1.132 -0.6084 -0.0044 -0.1386
  191MOL   C22046200   3.328   6.548   1.112  0.9034 -0.5115  0.1143
  191MOL   O22146201   3.269   6.476   1.195 -0.3805  0.1137  0.3679
  191MOL   O22246202   3.264   6.601   1.005  0.4310 -0.3160 -0.0796
  191MOL   C22346203   3.125   6.579   0.996  0.7570  0.2485  0.4632
  191MOL   H22446204   3.395   6.804   1.113  0.8814  0.3985 -1.6819
  191MOL   H22546205   3.551   6.813   1.120  0.6077  0.4613  0.4503
  191MOL   H22646206   3.517   6.541   1.208  0.1616  0.6172 -0.0862
  191MOL   H22746207   3.091   6.606   1.096  0.0814 -2.4110  0.9943
  191MOL   H22846208   3.104   6.474   0.973  0.3607 -0.0618  2.1421
  191MOL   H22946209   3.077   6.649   0.927  2.0060 -0.1795 -0.8591
  191MOL   C23046210   3.565   6.577   1.009  0.0840 -0.1022 -0.5677
  191MOL   C23146211   3.567   6.435   0.962  0.4354 -0.2634  1.1420
  191MOL   C23246212   3.652   6.408   0.847 -0.1119 -0.3726  0.1780
  191MOL   O23346213   3.715   6.302   0.844 -0.3203 -0.3123 -0.3873
  191MOL   O23446214   3.664   6.516   0.756 -0.6795  1.1013  0.0794
  191MOL   C23546215   3.720   6.495   0.627  0.6895  0.3342 -0.9418
  191MOL   H23646216   3.539   6.656   0.938  0.2800 -0.2081 -0.7587
  191MOL   H23746217   3.667   6.607   1.030  0.3249 -0.6267 -0.9794
  191MOL   H23846218   3.466   6.420   0.925 -0.2057  2.3802  1.7486
  191MOL   H23946219   3.695   6.590   0.579  0.4378  1.2757  0.9981
  191MOL   H24046220   3.673   6.414   0.572 -0.5483 -0.1705  0.8298
  191MOL   H24146221   3.828   6.481   0.623  0.7964  1.1082 -0.9086
  191MOL   H24246222   3.579   6.362   1.042  0.8338 -1.3901  0.0694
  192MOL     C146223   4.484   5.365   5.550  0.0406 -0.3329  0.5718
  192MOL     C246224   4.567   5.305   5.673 -0.0676 -0.2507  0.4897
  192MOL     C346225   4.496   5.358   5.801 -0.1638 -0.5962 -0.1191
  192MOL     O446226   4.402   5.300   5.851 -0.1574  0.5447  0.1011
  192MOL     O546227   4.545   5.478   5.841 -0.2681 -0.2797 -0.2412
  192MOL     C646228   4.500   5.538   5.962  0.2458 -0.6729 -0.0392
  192MOL     H746229   4.489   5.472   5.531  0.2068 -0.1207  1.8161
  192MOL     H846230   4.377   5.343   5.554 -0.1309  0.6353  1.2613
  192MOL     H946231   4.667   5.348   5.684  0.5659 -1.2818 -1.1216
  192MOL    H1046232   4.535   5.640   5.975  0.7169 -0.9894  1.3366
  192MOL    H1146233   4.530   5.492   6.056 -1.2203  0.5377  1.0473
  192MOL    H1246234   4.391   5.540   5.967  0.2452 -2.7003  1.7015
  192MOL    H1346235   4.513   5.316   5.456 -1.4368 -0.2536  0.0538
  192MOL    C1446236   4.589   5.151   5.657 -0.1009 -0.1951 -0.1077
  192MOL    C1546237   4.712   5.120   5.566  0.3240 -0.5149 -0.6683
  192MOL    C1646238   4.837   5.124   5.652  0.5889  0.5474 -0.3482
  192MOL    O1746239   4.838   5.105   5.772  0.0222  0.6055 -0.3242
  192MOL    O1846240   4.957   5.123   5.577 -0.0173  0.6880 -0.2793
  192MOL    C1946241   5.089   5.107   5.644 -0.2658 -0.0730 -0.3117
  192MOL    H2046242   4.605   5.095   5.749  1.6399 -1.9430 -1.4381
  192MOL    H2146243   4.494   5.118   5.617 -1.3707  2.5359  0.5302
  192MOL    H2246244   4.719   5.201   5.493  0.0717 -0.4783 -0.6523
  192MOL    H2346245   5.132   5.207   5.652 -0.8846  0.1692 -0.0201
  192MOL    H2446246   5.148   5.039   5.582 -1.0337 -0.7988 -0.2622
  192MOL    H2546247   5.080   5.059   5.741  0.3365  2.3667  0.9971
  192MOL    C2646248   4.678   4.982   5.496 -0.8268  0.0709  0.1979
  192MOL    C2746249   4.773   4.941   5.374  0.2764  0.5654  0.2799
  192MOL    C2846250   4.779   4.788   5.371 -0.0571  0.3432  0.2997
  192MOL    O2946251   4.886   4.725   5.381  0.7505 -0.2872  0.0433
  192MOL    O3046252   4.656   4.734   5.357  0.7516  0.3286  0.1222
  192MOL    C3146253   4.654   4.590   5.349 -0.2671 -0.1173  0.5794
  192MOL    H3246254   4.670   4.909   5.577  2.1485 -2.7462 -1.9124
  192MOL    H3346255   4.574   4.990   5.464 -0.7585  0.6786  0.1307
  192MOL    H3446256   4.869   4.984   5.401  0.1798  1.7295 -1.1662
  192MOL    H3546257   4.725   4.547   5.420  0.9823  0.8672 -0.0401
  192MOL    H3646258   4.673   4.552   5.248 -2.3465 -0.9663  0.4995
  192MOL    H3746259   4.554   4.562   5.382 -0.8724  1.3861  0.0752
  192MOL    C3846260   4.730   5.016   5.250  0.0434  0.7799 -0.0237
  192MOL    C3946261   4.827   5.001   5.131 -0.7630 -0.7174  0.1255
  192MOL    C4046262   4.816   4.859   5.064  0.0982  0.5694 -0.1844
  192MOL    O4146263   4.909   4.773   5.056  0.4491  0.0135 -0.1306
  192MOL    O4246264   4.698   4.862   5.005 -0.1053  0.2238  1.2050
  192MOL    C4346265   4.647   4.758   4.927 -0.2052  0.0231 -0.0023
  192MOL    H4446266   4.627   4.982   5.238  0.9368 -2.1754  0.4309
  192MOL    H4546267   4.716   5.122   5.270 -2.0303  0.4583  0.3204
  192MOL    H4646268   4.926   5.010   5.175 -0.4162  0.3147 -0.8474
  192MOL    H4746269   4.541   4.737   4.938  0.1590 -1.9577 -0.0272
  192MOL    H4846270   4.702   4.664   4.938  1.7660  1.4047  2.2507
  192MOL    H4946271   4.652   4.780   4.821  1.0076  3.0434  0.6222
  192MOL    C5046272   4.814   5.128   5.043  0.6397  0.0023 -0.0953
  192MOL    C5146273   4.907   5.139   4.926 -0.0878  0.2068 -0.0454
  192MOL    C5246274   4.883   5.276   4.845 -0.3100  0.4853  0.3290
  192MOL    O5346275   4.804   5.367   4.886 -0.1448  0.6848 -0.5651
  192MOL    O5446276   4.954   5.284   4.732  0.3907 -0.2682 -0.2205
  192MOL    C5546277   4.943   5.396   4.650 -0.4351  0.5113 -0.6674
  192MOL    H5646278   4.711   5.132   5.007  0.8476 -1.9017 -0.9663
  192MOL    H5746279   4.848   5.216   5.098  0.1987  0.8317 -1.1378
  192MOL    H5846280   4.874   5.057   4.861  0.0713 -0.0842  0.2442
  192MOL    H5946281   4.960   5.484   4.712 -0.8592  0.3284 -0.2891
  192MOL    H6046282   4.844   5.385   4.606 -0.8089 -2.5873  0.8145
  192MOL    H6146283   5.011   5.388   4.566  0.8546 -0.6807  0.4653
  192MOL    C6246284   5.059   5.115   4.956 -1.2702 -0.1619 -0.0220
  192MOL    C6346285   5.155   5.072   4.841 -0.4636 -0.0704 -0.6523
  192MOL    C6446286   5.296   5.038   4.895  0.4524 -0.5747 -0.1861
  192MOL    O6546287   5.389   5.111   4.867 -0.5589 -0.3297 -0.3383
  192MOL    O6646288   5.297   4.931   4.973 -0.3141  0.2213  0.1356
  192MOL    C6746289   5.408   4.904   5.057 -0.2546 -0.1788 -0.5010
  192MOL    H6846290   5.104   5.202   5.004  0.3438 -1.1156  0.2293
  192MOL    H6946291   5.065   5.031   5.025 -1.2987  1.4395  1.9695
  192MOL    H7046292   5.167   5.152   4.769  0.6127  0.6024  0.2759
  192MOL    H7146293   5.445   4.999   5.095 -1.0333 -0.1456  0.1972
  192MOL    H7246294   5.485   4.856   4.996 -0.8779 -0.9860 -0.6672
  192MOL    H7346295   5.381   4.860   5.153  0.0826 -1.6614 -1.0680
  192MOL    C7446296   5.105   4.946   4.764  0.3189  0.8063 -0.5013
  192MOL    C7546297   5.056   4.969   4.616  0.2698 -0.1765  0.5896
  192MOL    C7646298   5.168   5.007   4.518  0.0869  0.5308 -0.4905
  192MOL    O7746299   5.279   5.031   4.561  0.0589  0.1465 -0.2559
  192MOL    O7846300   5.131   5.015   4.390  0.2508 -0.4122 -0.5520
  192MOL    C7946301   5.225   5.067   4.290  0.6905  0.0759  0.4222
  192MOL    H8046302   5.172   4.860   4.760 -1.0926 -0.3442  0.2305
  192MOL    H8146303   5.022   4.898   4.816  1.5601  0.0940  0.8757
  192MOL    H8246304   4.981   5.047   4.619  1.1520  0.7966 -1.5040
  192MOL    H8346305   5.262   5.164   4.323  2.3217  0.1287 -1.5029
  192MOL    H8446306   5.170   5.069   4.196  0.0273  0.1911  0.8112
  192MOL    H8546307   5.310   5.000   4.281  0.8141  0.2629  0.2084
  192MOL    C8646308   4.979   4.845   4.568 -0.5104 -0.0118 -0.3506
  192MOL    C8746309   5.060   4.716   4.537 -0.9838  1.0275  0.3198
  192MOL    C8846310   5.073   4.615   4.657  0.0853 -0.2257  0.4206
  192MOL    O8946311   5.178   4.551   4.683  0.6472  0.2595 -0.6338
  192MOL    O9046312   4.955   4.598   4.712 -0.0265  0.5123 -0.3440
  192MOL    C9146313   4.942   4.502   4.815  0.3048  0.8508 -0.2492
  192MOL    H9246314   4.894   4.827   4.634 -1.6001 -3.2039 -2.5274
  192MOL    H9346315   4.924   4.879   4.480 -1.3477 -2.3771 -0.7858
  192MOL    H9446316   5.162   4.738   4.505 -1.3978  0.5455 -1.3392
  192MOL    H9546317   4.910   4.550   4.907 -0.2215  1.1999 -0.6058
  192MOL    H9646318   5.030   4.442   4.836  1.5040  2.8952  0.7157
  192MOL    H9746319   4.852   4.447   4.786  0.4573  1.0027 -1.0283
  192MOL    C9846320   4.998   4.639   4.424  0.6117  0.0051 -0.1469
  192MOL    C9946321   5.016   4.701   4.286  0.0692 -0.1527 -0.4108
  192MOL   C10046322   5.151   4.683   4.222  0.5652  0.7703 -0.7261
  192MOL   O10146323   5.223   4.584   4.251  0.0551 -0.3715 -0.3796
  192MOL   O10246324   5.181   4.776   4.136 -0.1368  0.0162 -0.1970
  192MOL   C10346325   5.292   4.746   4.053  0.7056 -0.6498 -1.1485
  192MOL   H10446326   5.050   4.544   4.423  0.3986 -0.1014 -1.0335
  192MOL   H10546327   4.892   4.613   4.435 -0.2898  3.1938 -0.8744
  192MOL   H10646328   4.998   4.806   4.307  1.2557 -0.2373  1.1141
  192MOL   H10746329   5.279   4.792   3.955 -2.4743  0.9340 -0.0612
  192MOL   H10846330   5.324   4.645   4.027  0.8077 -0.4694 -1.7281
  192MOL   H10946331   5.382   4.787   4.099  0.6329 -1.1281 -0.5807
  192MOL   C11046332   4.907   4.651   4.189  0.2800  0.0848 -0.0413
  192MOL   C11146333   4.884   4.500   4.163 -0.3728  0.0615  0.0802
  192MOL   C11246334   4.733   4.453   4.164  0.4987  0.2962 -0.2714
  192MOL   O11346335   4.673   4.437   4.058  0.0232  0.4317 -0.0687
  192MOL   O11446336   4.682   4.431   4.289 -0.3127 -0.4778  0.6115
  192MOL   C11546337   4.543   4.409   4.305 -0.0486  0.4315  0.1511
  192MOL   H11646338   4.818   4.689   4.239  0.2702 -0.7813  0.6029
  192MOL   H11746339   4.909   4.705   4.094  0.2457 -0.4170 -0.3323
  192MOL   H11846340   4.935   4.445   4.242 -3.0993 -2.5889  0.0950
  192MOL   H11946341   4.504   4.493   4.363  1.2718  0.7324  0.6228
  192MOL   H12046342   4.517   4.319   4.361  2.1261  0.1625  0.8032
  192MOL   H12146343   4.489   4.395   4.212 -2.5916 -2.1630  1.9118
  192MOL   C12246344   4.951   4.464   4.028  0.1957 -0.0663 -0.3249
  192MOL   C12346345   4.960   4.312   3.995  0.1983 -0.1036  0.2004
  192MOL   C12446346   4.930   4.286   3.844  0.5168 -0.5461  0.0797
  192MOL   O12546347   4.840   4.213   3.807  0.2155  0.1052 -0.3326
  192MOL   O12646348   5.011   4.349   3.768 -0.4445  0.0616 -0.3296
  192MOL   C12746349   4.997   4.353   3.625 -0.2863  0.4325  0.3022
  192MOL   H12846350   4.905   4.527   3.951 -1.0696 -1.0299 -0.3758
  192MOL   H12946351   5.054   4.498   4.036  0.3585 -0.5020 -0.5362
  192MOL   H13046352   4.878   4.262   4.046  1.9106 -1.1583  1.9979
  192MOL   H13146353   4.983   4.250   3.592 -0.9316  0.1688  1.3713
  192MOL   H13246354   5.081   4.402   3.576 -2.8124  2.1923 -2.4516
  192MOL   H13346355   4.902   4.405   3.608 -0.1255 -0.1649 -2.6430
  192MOL   C13446356   5.087   4.238   4.044  0.3335  0.0138 -0.2677
  192MOL   C13546357   5.048   4.110   4.126 -0.1662 -0.2062  0.1459
  192MOL   C13646358   5.037   4.151   4.282 -0.2797  0.5148 -0.4404
  192MOL   O13746359   4.931   4.137   4.346 -0.2557 -0.2115  0.4409
  192MOL   O13846360   5.153   4.194   4.325 -0.0221 -0.5142  0.7841
  192MOL   C13946361   5.168   4.230   4.457 -0.2885  0.8804 -0.1085
  192MOL   H14046362   5.150   4.203   3.962 -1.0104  0.3857 -1.4840
  192MOL   H14146363   5.132   4.308   4.113 -0.3016 -0.6962  0.8793
  192MOL   H14246364   5.141   4.053   4.124 -1.2994 -2.0445 -1.1085
  192MOL   H14346365   5.126   4.167   4.535  1.0397 -0.5083 -0.4787
  192MOL   H14446366   5.136   4.332   4.480 -1.8687  0.2676  0.4709
  192MOL   H14546367   5.275   4.227   4.478 -0.8185 -0.5116  2.5448
  192MOL   C14646368   4.926   4.025   4.082 -0.4285  0.1062  0.4096
  192MOL   C14746369   4.949   3.953   3.946  0.9170  0.2445 -0.9410
  192MOL   C14846370   5.053   3.847   3.965 -0.0279 -0.3660 -0.1526
  192MOL   O14946371   5.034   3.738   4.017 -0.1416  0.1149 -0.6141
  192MOL   O15046372   5.169   3.886   3.916 -0.3299 -0.0610  0.0429
  192MOL   C15146373   5.281   3.796   3.904  0.4820  0.1400 -0.3787
  192MOL   H15246374   4.910   3.944   4.153 -0.3094 -0.5956 -0.3558
  192MOL   H15346375   4.832   4.080   4.091 -0.8810 -0.7029  0.6965
  192MOL   H15446376   4.983   4.013   3.862  1.1158 -1.4327 -2.0860
  192MOL   H15546377   5.324   3.758   3.997 -0.0383  0.9079  0.1851
  192MOL   H15646378   5.362   3.839   3.846 -1.8819  1.3832 -2.8405
  192MOL   H15746379   5.245   3.711   3.846  0.9776  1.0125 -1.9817
  192MOL   C15846380   4.813   3.898   3.896 -0.2688  0.2160  0.0758
  192MOL   C15946381   4.786   3.913   3.739 -0.3955 -0.6822 -0.6387
  192MOL   C16046382   4.906   3.865   3.651 -0.1894  0.5671 -0.2705
  192MOL   O16146383   4.946   3.924   3.549 -0.0662  0.3420 -0.1828
  192MOL   O16246384   4.953   3.738   3.684 -0.0374  0.1927  0.9109
  192MOL   C16346385   5.050   3.672   3.603  0.1387 -0.2933  0.0648
  192MOL   H16446386   4.807   3.793   3.923 -1.2368  0.7299  1.9192
  192MOL   H16546387   4.717   3.939   3.928 -2.4196 -3.0902 -1.7785
  192MOL   H16646388   4.785   4.018   3.713 -0.9735 -0.2551  1.0938
  192MOL   H16746389   5.118   3.616   3.666  0.9063  1.8764  1.2396
  192MOL   H16846390   5.109   3.734   3.535 -0.3751 -0.8543 -0.8988
  192MOL   H16946391   4.992   3.617   3.528 -2.2918  1.0018  0.9254
  192MOL   C17046392   4.650   3.851   3.690 -0.2948 -0.6896 -0.2999
  192MOL   C17146393   4.609   3.914   3.555  0.0360 -0.0230 -0.4738
  192MOL   C17246394   4.510   3.814   3.500 -0.0159 -0.3706 -0.5440
  192MOL   O17346395   4.391   3.813   3.520  0.0285  0.4277  0.2223
  192MOL   O17446396   4.573   3.739   3.417  0.0260 -0.1340  0.1977
  192MOL   C17546397   4.522   3.629   3.348  0.0293  0.1169 -0.0037
  192MOL   H17646398   4.666   3.744   3.678  0.4660 -0.7478  1.0660
  192MOL   H17746399   4.571   3.877   3.761  0.7736  0.2365  0.5697
  192MOL   H17846400   4.692   3.922   3.485 -1.5552 -2.4576 -2.7216
  192MOL   H17946401   4.472   3.636   3.251  0.0057  0.4130  0.0276
  192MOL   H18046402   4.468   3.563   3.417  0.9891 -1.2415 -0.5378
  192MOL   H18146403   4.608   3.570   3.320  0.2464  0.1702  0.5409
  192MOL   C18246404   4.540   4.053   3.581 -0.0860  0.4233  0.0851
  192MOL   C18346405   4.639   4.171   3.550 -0.5265 -0.4037 -0.0195
  192MOL   C18446406   4.643   4.206   3.397  0.2266 -0.0711 -0.0457
  192MOL   O18546407   4.581   4.149   3.311 -0.0251 -0.3154  0.1458
  192MOL   O18646408   4.727   4.310   3.377  0.1038  0.0219 -0.6389
  192MOL   C18746409   4.745   4.353   3.243 -0.8196  0.5683 -0.2394
  192MOL   H18846410   4.448   4.070   3.525 -0.5278 -0.0047  0.6784
  192MOL   H18946411   4.506   4.066   3.684  1.9806 -1.1919  0.9961
  192MOL   H19046412   4.740   4.140   3.574 -0.4659  0.0862  0.3717
  192MOL   H19146413   4.658   4.344   3.177  1.4484 -1.9278 -3.0277
  192MOL   H19246414   4.828   4.297   3.200  0.0297  0.7171  1.1756
  192MOL   H19346415   4.775   4.458   3.242  3.0363 -0.4179  2.1367
  192MOL   C19446416   4.605   4.303   3.631 -0.0159 -1.1949  0.5457
  192MOL   C19546417   4.489   4.396   3.598  0.6317  0.2944 -0.6098
  192MOL   C19646418   4.349   4.330   3.589 -0.3277 -0.5102 -0.4025
  192MOL   O19746419   4.275   4.359   3.498 -0.1363  0.0064 -0.5476
  192MOL   O19846420   4.329   4.246   3.704  0.4940 -0.3087 -0.1060
  192MOL   C19946421   4.202   4.195   3.734  0.5303 -0.1250 -0.2583
  192MOL   H20046422   4.584   4.270   3.733  1.9369  3.1998  2.5395
  192MOL   H20146423   4.697   4.359   3.650 -0.7580 -0.6022  2.5265
  192MOL   H20246424   4.503   4.439   3.498  2.0319  1.2301 -0.0297
  192MOL   H20346425   4.145   4.262   3.799 -1.4855 -0.4887 -1.5950
  192MOL   H20446426   4.207   4.097   3.783  0.6931  1.3808  2.8322
  192MOL   H20546427   4.144   4.177   3.644  0.2132 -1.8865  0.2622
  192MOL   C20646428   4.465   4.516   3.690 -1.3118  0.4845  0.5481
  192MOL   C20746429   4.585   4.618   3.695  0.7211  0.2067 -0.3207
  192MOL   C20846430   4.637   4.655   3.557  0.7325  0.1156  0.3681
  192MOL   O20946431   4.734   4.592   3.505 -0.0709  0.1753 -0.7640
  192MOL   O21046432   4.572   4.756   3.494  0.0788  0.4583  0.5050
  192MOL   C21146433   4.613   4.768   3.356 -0.0355 -0.3006 -0.2087
  192MOL   H21246434   4.375   4.572   3.665  0.0124  1.1266 -3.1013
  192MOL   H21346435   4.441   4.465   3.783 -0.8081  1.7064  1.3590
  192MOL   H21446436   4.670   4.577   3.748  1.4379 -0.4233 -1.9244
  192MOL   H21546437   4.720   4.789   3.354 -0.0152 -0.1588  1.2993
  192MOL   H21646438   4.557   4.843   3.301  0.3487 -0.0314 -0.2305
  192MOL   H21746439   4.593   4.679   3.296 -0.6133 -1.0535  1.0742
  192MOL   C21846440   4.528   4.737   3.776 -0.3312 -0.4559 -0.8712
  192MOL   C21946441   4.617   4.809   3.882  0.3999 -0.1383 -0.4722
  192MOL   C22046442   4.752   4.861   3.826  0.0865 -0.0464 -0.0134
  192MOL   O22146443   4.774   4.915   3.716  0.3617 -0.0648  0.4870
  192MOL   O22246444   4.863   4.843   3.912  0.3844 -0.7046 -0.1173
  192MOL   C22346445   4.978   4.925   3.892  0.1826  0.0686 -0.0859
  192MOL   H22446446   4.474   4.809   3.715  0.5926  0.1730 -0.9480
  192MOL   H22546447   4.449   4.689   3.834 -1.1478 -1.6176 -2.8886
  192MOL   H22646448   4.653   4.733   3.951 -1.0003  0.6070  1.1177
  192MOL   H22746449   4.943   5.023   3.860 -3.6144 -1.0971  0.2547
  192MOL   H22846450   5.047   4.872   3.826 -0.1524 -0.7056  0.1743
  192MOL   H22946451   5.032   4.926   3.987 -0.4186 -1.8199  0.3084
  192MOL   C23046452   4.541   4.920   3.956 -0.1217 -0.2695 -0.2619
  192MOL   C23146453   4.579   4.949   4.096 -1.2565  0.0913 -0.6655
  192MOL   C23246454   4.557   4.832   4.191  0.0195 -0.5206 -0.2423
  192MOL   O23346455   4.513   4.723   4.161 -0.0318 -0.1304  0.4812
  192MOL   O23446456   4.602   4.863   4.306 -0.6050  0.5127 -0.5442
  192MOL   C23546457   4.583   4.780   4.423 -0.2685 -0.0942  0.6541
  192MOL   H23646458   4.551   5.010   3.895  0.3674 -1.2094 -1.5929
  192MOL   H23746459   4.434   4.902   3.963 -0.4092  1.6339  0.6592
  192MOL   H23846460   4.531   5.036   4.142  1.5093  1.6466 -0.6069
  192MOL   H23946461   4.638   4.832   4.501 -0.6559  4.3526 -1.8931
  192MOL   H24046462   4.623   4.680   4.406 -0.5071 -0.0081 -0.4947
  192MOL   H24146463   4.482   4.764   4.460  0.6499  0.0491  3.3352
  192MOL   H24246464   4.684   4.973   4.111 -1.2898  0.6414 -1.2976
  193MOL     C146465   7.890   2.374   4.467  0.0002  0.6868 -0.0816
  193MOL     C246466   7.778   2.281   4.517 -0.2754 -0.2983  0.0204
  193MOL     C346467   7.682   2.374   4.592  0.3315  0.4396 -0.3217
  193MOL     O446468   7.659   2.362   4.713 -0.6038 -0.6569 -0.2655
  193MOL     O546469   7.629   2.465   4.507  0.6523 -0.7029  0.1914
  193MOL     C646470   7.532   2.551   4.548  0.0228  0.1656 -0.3169
  193MOL     H746471   0.045   2.321   4.429  0.1693  0.6662  0.3364
  193MOL     H846472   0.005   2.433   4.545 -1.2694  0.9519  0.4956
  193MOL     H946473   7.826   2.213   4.587 -0.5988  2.1188  2.7120
  193MOL    H1046474   7.455   2.505   4.610 -1.0262  0.4202 -1.4228
  193MOL    H1146475   7.485   2.604   4.465 -2.4813 -0.6072  0.5801
  193MOL    H1246476   7.567   2.635   4.607  0.6809  0.3454 -0.9476
  193MOL    H1346477   7.849   2.438   4.388 -1.1908  0.4963  0.3742
  193MOL    C1446478   7.707   2.182   4.413  0.4808  0.0441  0.4821
  193MOL    C1546479   7.787   2.075   4.339 -0.5486  0.1166 -0.4077
  193MOL    C1646480   7.833   1.960   4.429  0.0426  0.3521 -0.5081
  193MOL    O1746481   7.775   1.931   4.533  0.2538  0.2819  0.6067
  193MOL    O1846482   0.014   1.902   4.390  0.0662 -0.0238  0.0091
  193MOL    C1946483   0.057   1.781   4.456 -0.2904 -0.2575 -0.2060
  193MOL    H2046484   7.621   2.143   4.467 -0.9679  1.9290 -0.4441
  193MOL    H2146485   7.671   2.248   4.334 -1.7457 -1.4091  0.2371
  193MOL    H2246486   7.872   2.129   4.298 -1.0097  0.3550 -1.0764
  193MOL    H2346487   0.161   1.755   4.437 -0.7228 -0.8955 -1.7225
  193MOL    H2446488   7.929   1.699   4.420 -1.1463  0.7004 -0.9458
  193MOL    H2546489   0.050   1.802   4.563 -1.0754 -3.1263  0.3452
  193MOL    C2646490   7.710   2.026   4.204 -0.2908  0.4768  0.0574
  193MOL    C2746491   7.809   1.960   4.101  0.2415 -0.5248  0.1173
  193MOL    C2846492   7.732   1.878   3.999  0.1455  0.3599 -0.3195
  193MOL    O2946493   7.615   1.907   3.969 -0.0630  0.1590  0.6768
  193MOL    O3046494   7.798   1.783   3.943  0.0983 -0.5210 -0.5246
  193MOL    C3146495   7.737   1.714   3.833  0.6244 -0.1080  0.4628
  193MOL    H3246496   7.644   1.948   4.241  1.1055 -0.4948  0.5658
  193MOL    H3346497   7.643   2.100   4.161  0.2064  0.5191 -0.6600
  193MOL    H3446498   7.871   1.890   4.158  1.3368 -0.1667 -0.6185
  193MOL    H3546499   7.727   1.794   3.760  0.4743 -1.1099 -0.6131
  193MOL    H3646500   7.639   1.673   3.858 -0.4439  0.6464 -2.3194
  193MOL    H3746501   7.808   1.648   3.784  0.7193  0.1657  0.2299
  193MOL    C3846502   7.909   2.058   4.034 -0.1989  0.3410  0.9824
  193MOL    C3946503   7.850   2.191   3.970  0.3183  0.4189  0.3781
  193MOL    C4046504   7.863   2.312   4.064  0.1565  0.4447  0.2550
  193MOL    O4146505   0.022   2.330   4.143 -0.0156  0.1819 -0.1098
  193MOL    O4246506   7.769   2.399   4.039  0.6662 -0.3318  0.1232
  193MOL    C4346507   7.757   2.515   4.117 -0.3253  0.3006  0.1175
  193MOL    H4446508   0.060   2.081   4.101  0.5333 -0.6019  0.3845
  193MOL    H4546509   0.028   1.996   3.961 -1.1759  0.0587  0.5320
  193MOL    H4646510   7.743   2.169   3.962 -0.0406  1.9444  0.6525
  193MOL    H4746511   7.691   2.587   4.069  0.0548 -0.3109 -1.3551
  193MOL    H4846512   7.859   2.552   4.128 -0.2350 -0.1065  0.6683
  193MOL    H4946513   7.719   2.499   4.218  1.0181  1.2663  0.7911
  193MOL    C5046514   7.912   2.209   3.826 -0.0084  0.1195  0.6548
  193MOL    C5146515   7.856   2.322   3.740  0.0687 -0.4133 -0.7547
  193MOL    C5246516   0.013   2.353   3.623 -0.7165  0.2352 -0.7759
  193MOL    O5346517   0.054   2.465   3.590  0.3091  0.5405 -0.2043
  193MOL    O5446518   0.045   2.247   3.543  0.4420 -0.4002 -0.0628
  193MOL    C5546519   0.142   2.254   3.435  0.5123  0.2623  0.2097
  193MOL    H5646520   0.086   2.220   3.841  0.3166  1.6624 -2.4715
  193MOL    H5746521   7.909   2.118   3.768  1.3964  0.6598 -0.2811
  193MOL    H5846522   7.872   2.415   3.795 -1.6689 -1.4552  1.5972
  193MOL    H5946523   0.235   2.307   3.455  0.1850  1.6026 -1.6416
  193MOL    H6046524   0.089   2.305   3.354  0.2012 -1.3398 -0.6069
  193MOL    H6146525   0.170   2.151   3.411 -1.5732 -0.8917  2.5126
  193MOL    C6246526   7.707   2.311   3.708  0.1951  0.4880 -0.1458
  193MOL    C6346527   7.613   2.420   3.759 -0.3754  0.3385  0.1899
  193MOL    C6446528   7.635   2.538   3.663 -0.1308 -0.0144  0.6500
  193MOL    O6546529   7.570   2.558   3.559  0.7752 -0.3151  0.1482
  193MOL    O6646530   7.734   2.619   3.702  0.0458  0.0535 -0.1849
  193MOL    C6746531   7.759   2.735   3.613 -0.4651  0.4257 -0.3342
  193MOL    H6846532   7.699   2.316   3.600 -2.1764 -1.1711 -0.0819
  193MOL    H6946533   7.680   2.210   3.738 -0.4203  0.7708  0.2574
  193MOL    H7046534   7.649   2.463   3.853 -0.2567 -0.7463  0.6415
  193MOL    H7146535   7.798   2.821   3.668  0.9721  0.0859 -0.7995
  193MOL    H7246536   7.665   2.764   3.567 -1.4090 -1.4986  0.3075
  193MOL    H7346537   7.836   2.712   3.540  0.8417 -0.0211  1.1347
  193MOL    C7446538   7.466   2.381   3.761 -0.2022 -0.5666  0.7026
  193MOL    C7546539   7.429   2.297   3.885  0.3864 -0.2109  0.6551
  193MOL    C7646540   7.438   2.371   4.025  0.6556  1.0520 -0.5293
  193MOL    O7746541   7.479   2.315   4.127  0.3528  0.0483 -0.1453
  193MOL    O7846542   7.406   2.495   4.020 -0.1977  0.2332 -0.5519
  193MOL    C7946543   7.401   2.563   4.146 -0.1564 -0.1820  0.1911
  193MOL    H8046544   7.405   2.469   3.741 -1.4146 -1.2107  1.5261
  193MOL    H8146545   7.452   2.310   3.680  1.4872 -1.9268  1.5468
  193MOL    H8246546   7.511   2.224   3.892 -0.6711 -1.3332  1.5587
  193MOL    H8346547   7.494   2.579   4.200 -1.1584  1.7063  1.4448
  193MOL    H8446548   7.330   2.522   4.219 -1.5663  1.8625  0.0114
  193MOL    H8546549   7.370   2.665   4.124 -3.3027 -0.8975  1.0754
  193MOL    C8646550   7.299   2.219   3.874  0.4310 -0.1903 -0.7774
  193MOL    C8746551   7.182   2.310   3.860  0.4532 -0.4615 -0.2044
  193MOL    C8846552   7.138   2.317   3.708 -0.3187  0.3372 -1.0923
  193MOL    O8946553   7.142   2.424   3.648  0.4289 -0.5791  0.1258
  193MOL    O9046554   7.101   2.200   3.663  0.1723  0.3953  0.1036
  193MOL    C9146555   7.044   2.197   3.533 -0.7673  0.2441  0.6910
  193MOL    H9246556   7.292   2.142   3.796 -3.6099 -1.1466  0.4176
  193MOL    H9346557   7.281   2.164   3.966 -1.5429 -0.5456 -1.3420
  193MOL    H9446558   7.204   2.412   3.893 -1.2249 -0.3097  0.5120
  193MOL    H9546559   7.050   2.097   3.491  1.4659  0.7416 -0.2538
  193MOL    H9646560   7.093   2.268   3.466  0.8314  0.9452  2.5298
  193MOL    H9746561   6.941   2.230   3.539 -0.7244  0.5803 -0.3615
  193MOL    C9846562   7.064   2.251   3.949  0.0047  0.4899  0.0556
  193MOL    C9946563   7.065   2.311   4.095  0.5320 -0.4420  0.3365
  193MOL   C10046564   7.021   2.457   4.107 -0.5118  0.5809  0.0849
  193MOL   O10146565   6.941   2.493   4.190  0.3633 -0.0461  0.4793
  193MOL   O10246566   7.076   2.542   4.013  0.7357  0.1876  0.0533
  193MOL   C10346567   7.042   2.680   4.003  0.5884  0.3756 -0.1057
  193MOL   H10446568   6.962   2.269   3.915  0.7338  2.5946 -1.0856
  193MOL   H10546569   7.070   2.142   3.949 -2.4083  0.3081 -1.9153
  193MOL   H10646570   7.169   2.316   4.129 -0.4823  1.8771  3.1786
  193MOL   H10746571   7.136   2.735   4.010  0.7303 -0.2268  4.3330
  193MOL   H10846572   6.980   2.709   4.088  0.6553  1.7438 -0.5088
  193MOL   H10946573   6.987   2.701   3.911  0.7655 -1.5748 -0.6721
  193MOL   C11046574   7.001   2.211   4.201 -0.2880  0.1208 -0.5521
  193MOL   C11146575   7.073   2.074   4.223  1.2809  0.0314  0.3030
  193MOL   C11246576   7.220   2.089   4.272 -0.1935  0.1292 -0.2718
  193MOL   O11346577   7.314   2.036   4.210  0.0729 -0.0034 -0.4016
  193MOL   O11446578   7.232   2.144   4.390 -0.0436  0.0950 -0.2514
  193MOL   C11546579   7.359   2.140   4.448  0.3400 -0.2533  0.1992
  193MOL   H11646580   6.996   2.257   4.300 -0.6551  0.8742 -0.9195
  193MOL   H11746581   6.906   2.186   4.155 -1.0732 -1.7890  1.9711
  193MOL   H11846582   7.064   2.025   4.126 -3.3177  0.9863  0.1251
  193MOL   H11946583   7.397   2.039   4.466 -2.6088 -1.1290  1.7814
  193MOL   H12046584   7.361   2.186   4.547  0.8163  0.8584 -0.3187
  193MOL   H12146585   7.426   2.201   4.387  2.7373 -1.0556  1.9314
  193MOL   C12246586   6.984   1.985   4.319  0.4764  0.4588  0.0665
  193MOL   C12346587   7.043   1.838   4.344 -0.2415 -0.5197  0.3962
  193MOL   C12446588   7.019   1.798   4.490 -0.5811  0.0571  1.3904
  193MOL   O12546589   7.105   1.766   4.568  0.2300  0.0590  0.5175
  193MOL   O12646590   6.888   1.798   4.514 -0.0931 -0.0372  0.2556
  193MOL   C12746591   6.828   1.741   4.629 -0.0065  0.6700 -0.4385
  193MOL   H12846592   6.968   2.034   4.415 -0.6428  0.4296 -0.1078
  193MOL   H12946593   6.890   1.970   4.267  0.2193 -0.7123  0.8653
  193MOL   H13046594   7.151   1.841   4.332 -0.3547  1.5818 -0.3146
  193MOL   H13146595   6.722   1.765   4.635 -0.0010  1.1710 -2.0480
  193MOL   H13246596   6.881   1.790   4.710 -2.6461 -2.1697  3.1650
  193MOL   H13346597   6.846   1.634   4.636 -1.3635  0.4319 -0.4888
  193MOL   C13446598   6.988   1.747   4.233 -0.1583 -0.2153 -0.1485
  193MOL   C13546599   7.056   1.608   4.200 -0.5384 -0.3460 -1.0540
  193MOL   C13646600   7.200   1.639   4.155  0.0429 -0.2302  0.6801
  193MOL   O13746601   7.300   1.576   4.194 -0.5082 -0.1742  0.2797
  193MOL   O13846602   7.206   1.739   4.061  0.2526 -0.2876 -0.2551
  193MOL   C13946603   7.331   1.766   3.999 -0.0849  0.0175  0.2034
  193MOL   H14046604   6.885   1.734   4.266 -0.9256 -0.4895 -2.5905
  193MOL   H14146605   6.961   1.798   4.141 -0.0692 -2.9689 -1.7258
  193MOL   H14246606   7.011   1.562   4.112 -1.0909 -2.8619  0.5147
  193MOL   H14346607   7.359   1.671   3.955 -0.9653 -0.3731  0.4729
  193MOL   H14446608   7.402   1.807   4.071  0.9343 -0.4568 -0.5333
  193MOL   H14546609   7.305   1.836   3.919 -2.0287  0.1447  0.9170
  193MOL   C14646610   7.046   1.517   4.319  0.1545 -0.3980  0.0970
  193MOL   C14746611   7.082   1.365   4.298 -0.8202  1.0238  0.8294
  193MOL   C14846612   7.139   1.321   4.436 -0.0177  0.3697  0.3274
  193MOL   O14946613   7.250   1.267   4.450  0.3216  0.4398 -0.0464
  193MOL   O15046614   7.051   1.350   4.536  0.2012  0.1107  0.8519
  193MOL   C15146615   7.086   1.313   4.666 -0.3588  0.2126  0.2535
  193MOL   H15246616   7.120   1.564   4.385  0.2915 -0.0611 -0.2972
  193MOL   H15346617   6.955   1.532   4.377 -0.1909 -0.5276 -0.4165
  193MOL   H15446618   7.158   1.360   4.219 -1.2117 -0.9366  0.5370
  193MOL   H15546619   7.147   1.395   4.705  1.2304 -1.6253  1.6997
  193MOL   H15646620   7.138   1.217   4.666 -2.4152 -0.9274 -0.3500
  193MOL   H15746621   6.995   1.298   4.724 -1.0228  0.7009 -0.6595
  193MOL   C15846622   6.965   1.282   4.256  0.1968  0.1732 -0.7479
  193MOL   C15946623   7.001   1.132   4.227 -0.1473  0.2808  0.2177
  193MOL   C16046624   6.929   1.036   4.321  1.1065 -0.1493 -0.2951
  193MOL   O16146625   6.837   0.960   4.279  0.1665 -0.3654 -0.6590
  193MOL   O16246626   6.966   1.045   4.449 -0.1915  0.2661 -0.1170
  193MOL   C16346627   6.919   0.946   4.542  0.4701 -0.6373 -0.2217
  193MOL   H16446628   6.894   1.271   4.338 -0.2090 -0.5918 -1.1940
  193MOL   H16546629   6.903   1.328   4.179  1.4874  2.2981 -0.5459
  193MOL   H16646630   7.107   1.116   4.245  0.2116  0.4156 -1.6108
  193MOL   H16746631   6.951   0.964   4.645  0.7395  0.2864 -0.4709
  193MOL   H16846632   6.953   0.851   4.501 -2.2018 -1.2995 -1.0252
  193MOL   H16946633   6.810   0.946   4.536  0.5942 -1.3132 -2.8432
  193MOL   C17046634   6.972   1.096   4.080 -0.3996 -0.2402  0.6894
  193MOL   C17146635   7.043   1.194   3.970 -0.4978  0.1248 -0.5960
  193MOL   C17246636   7.193   1.195   3.992  0.2935 -0.1567  0.9195
  193MOL   O17346637   7.255   1.100   4.042 -0.0758 -0.0189  0.5993
  193MOL   O17446638   7.243   1.316   3.965 -0.3207  0.0690  0.2349
  193MOL   C17546639   7.379   1.341   3.992  0.4473  0.0948 -0.5373
  193MOL   H17646640   7.003   0.993   4.064 -0.8236 -0.1517 -0.7964
  193MOL   H17746641   6.867   1.083   4.056  0.3008 -1.6564 -1.8431
  193MOL   H17846642   7.006   1.294   3.995  0.4098  0.4851 -0.6727
  193MOL   H17946643   7.390   1.447   3.970 -0.8672  0.1256 -1.0824
  193MOL   H18046644   7.451   1.278   3.940 -1.9862 -3.5393  0.3157
  193MOL   H18146645   7.401   1.321   4.097  0.8086 -1.1170 -0.8381
  193MOL   C18246646   7.009   1.169   3.820 -0.0461 -0.3561 -0.0088
  193MOL   C18346647   7.045   1.286   3.722  0.2379  0.2478 -0.3196
  193MOL   C18446648   7.034   1.240   3.576  0.3349 -0.6414 -0.2132
  193MOL   O18546649   6.948   1.288   3.501 -0.2021 -0.1711  0.3137
  193MOL   O18646650   7.123   1.149   3.549  0.0574  0.6179 -0.5964
  193MOL   C18746651   7.124   1.084   3.421  0.6885  0.5970  0.4054
  193MOL   H18846652   7.053   1.074   3.788  3.7187  1.0676  0.5813
  193MOL   H18946653   6.906   1.138   3.804  0.0569  0.4264 -2.4053
  193MOL   H19046654   7.143   1.317   3.757 -0.0155  0.1662  0.4718
  193MOL   H19146655   7.056   1.123   3.345  0.4189  0.0394  0.3548
  193MOL   H19246656   7.087   0.982   3.433  0.8142  0.5394  0.2918
  193MOL   H19346657   7.228   1.077   3.388  0.1518 -0.3071 -1.1570
  193MOL   C19446658   6.969   1.415   3.759 -0.6341 -0.0317 -0.1930
  193MOL   C19546659   7.027   1.536   3.681 -0.0747  0.0878 -0.0655
  193MOL   C19646660   6.957   1.669   3.700  0.0453  0.0519 -0.2318
  193MOL   O19746661   6.888   1.694   3.804  0.6683  0.0233 -0.4626
  193MOL   O19846662   6.966   1.756   3.605 -0.7386 -0.4960 -0.3532
  193MOL   C19946663   6.933   1.895   3.624  0.3487  0.3808 -0.8164
  193MOL   H20046664   6.863   1.401   3.738 -0.9756  0.2599  1.2338
  193MOL   H20146665   6.977   1.432   3.866  2.1548 -1.5785 -0.1257
  193MOL   H20246666   7.034   1.515   3.574  3.0392  0.4626  0.0200
  193MOL   H20346667   7.008   1.945   3.685  0.4675 -0.6230 -0.1472
  193MOL   H20446668   6.831   1.902   3.664  0.2891 -0.8872 -0.7465
  193MOL   H20546669   6.943   1.940   3.525  0.9046  2.7571  0.2821
  193MOL   C20646670   7.179   1.558   3.722  0.2844  0.3415  0.6798
  193MOL   C20746671   7.274   1.535   3.610  0.1423  0.5712  0.3672
  193MOL   C20846672   7.291   1.656   3.518  0.0980 -0.3307 -0.0308
  193MOL   O20946673   7.317   1.767   3.569  0.9751  0.3879  0.3039
  193MOL   O21046674   7.295   1.630   3.389  0.1618 -0.0918 -0.2611
  193MOL   C21146675   7.300   1.738   3.298  0.2298  0.0580 -0.5955
  193MOL   H21246676   7.198   1.659   3.756  1.7733  0.6095 -0.8585
  193MOL   H21346677   7.218   1.506   3.810 -1.4211  1.4477  2.1211
  193MOL   H21446678   7.235   1.446   3.560  2.6423 -0.5535  0.3670
  193MOL   H21546679   7.228   1.817   3.319  1.8488  0.9833  1.7487
  193MOL   H21646680   7.275   1.698   3.200 -1.4841 -0.6509  0.1129
  193MOL   H21746681   7.392   1.795   3.310 -0.0198  0.3129  0.1327
  193MOL   C21846682   7.405   1.483   3.663  0.0703  0.4927  0.1145
  193MOL   C21946683   7.499   1.435   3.550  0.0439  0.5531 -0.1140
  193MOL   C22046684   7.645   1.435   3.602 -0.3600 -0.1438 -0.2629
  193MOL   O22146685   7.717   1.530   3.581 -0.0662 -0.2217 -0.3017
  193MOL   O22246686   7.670   1.330   3.686 -0.9059 -0.0049 -0.1658
  193MOL   C22346687   7.805   1.298   3.713 -0.4070 -0.2192 -0.5035
  193MOL   H22446688   7.443   1.562   3.727 -1.4402 -0.1801  1.8980
  193MOL   H22546689   7.390   1.395   3.726  0.5585  0.1435 -0.2531
  193MOL   H22646690   7.500   1.499   3.462 -2.3698  3.7032  1.9898
  193MOL   H22746691   7.862   1.387   3.739 -0.9807  0.0528 -0.1656
  193MOL   H22846692   7.855   1.257   3.625 -2.3389 -1.2242 -1.1550
  193MOL   H22946693   7.806   1.231   3.799  2.6156 -0.3228 -0.5471
  193MOL   C23046694   7.455   1.298   3.488  0.0934  0.0445 -0.7785
  193MOL   C23146695   7.559   1.233   3.401  0.7962 -0.0969 -0.4675
  193MOL   C23246696   7.505   1.112   3.335  0.6014  0.3823 -0.2081
  193MOL   O23346697   7.499   1.002   3.393 -0.1472  0.6003  0.1339
  193MOL   O23446698   7.451   1.125   3.211  0.3197  0.1255  0.1168
  193MOL   C23546699   7.402   1.019   3.130  0.5950 -0.3492 -0.0653
  193MOL   H23646700   7.423   1.234   3.569  2.1451  0.8143  0.6888
  193MOL   H23746701   7.363   1.309   3.429 -1.2502 -1.2802  1.0212
  193MOL   H23846702   7.649   1.206   3.456  0.9823  0.2052 -0.6246
  193MOL   H23946703   7.415   1.052   3.027  0.2852  1.1461  0.3605
  193MOL   H24046704   7.297   1.000   3.151  0.8508  0.5587  2.2463
  193MOL   H24146705   7.463   0.930   3.145 -0.0259 -0.6686  0.5604
  193MOL   H24246706   7.601   1.297   3.324  0.6283  2.4747  1.5057
  194MOL     C146707   1.436   3.315   4.767 -1.1519 -0.4458  0.2721
  194MOL     C246708   1.559   3.231   4.800  0.4016 -0.2063  0.2514
  194MOL     C346709   1.582   3.128   4.688  0.8332 -0.8578  0.5755
  194MOL     O446710   1.496   3.104   4.602 -0.1763 -0.1321 -0.1048
  194MOL     O546711   1.693   3.057   4.708  0.2033  0.2035 -0.6778
  194MOL     C646712   1.726   2.949   4.618 -0.0504  0.2659 -0.5107
  194MOL     H746713   1.440   3.361   4.668  0.2083  1.2307  1.0756
  194MOL     H846714   1.444   3.387   4.848 -2.9083  0.5147 -0.3924
  194MOL     H946715   1.534   3.176   4.891 -1.4887  1.6339  0.8794
  194MOL    H1046716   1.832   2.921   4.620  0.1131  0.9348  2.1111
  194MOL    H1146717   1.696   2.946   4.514  2.3935 -1.4057 -1.2169
  194MOL    H1246718   1.681   2.857   4.655 -1.1110 -0.9205 -4.5645
  194MOL    H1346719   1.337   3.271   4.779 -0.9746 -0.4864  1.5795
  194MOL    C1446720   1.681   3.332   4.810  0.2873  0.3320 -0.2091
  194MOL    C1546721   1.715   3.394   4.952 -0.6989  0.4930  0.4399
  194MOL    C1646722   1.705   3.280   5.053  0.7740  0.3707 -0.5906
  194MOL    O1746723   1.628   3.283   5.145 -0.0886  0.0357  0.4897
  194MOL    O1846724   1.791   3.186   5.031 -0.3537  0.6161  0.0409
  194MOL    C1946725   1.798   3.064   5.105  0.1149  0.3347 -0.5847
  194MOL    H2046726   1.772   3.286   4.771  1.7396  1.9012  1.1911
  194MOL    H2146727   1.666   3.412   4.738  0.9929  0.3043 -0.3889
  194MOL    H2246728   1.634   3.463   4.977 -2.0404 -1.8840  2.9414
  194MOL    H2346729   1.835   2.988   5.036  1.9750 -0.2605  1.0016
  194MOL    H2446730   1.697   3.030   5.127 -0.2142  1.4344 -0.3710
  194MOL    H2546731   1.860   3.068   5.195  2.8182  0.8045 -2.4140
  194MOL    C2646732   1.849   3.463   4.962  0.1453  0.3805  0.5867
  194MOL    C2746733   1.887   3.590   4.878 -0.5529 -0.4973  1.2042
  194MOL    C2846734   1.792   3.706   4.898  0.5124  0.2953  1.0684
  194MOL    O2946735   1.721   3.704   4.997  0.9212 -0.6202  0.2116
  194MOL    O3046736   1.790   3.794   4.798 -0.0923 -0.2590  0.3343
  194MOL    C3146737   1.687   3.892   4.797  0.1574 -0.7327  0.2658
  194MOL    H3246738   1.848   3.481   5.069  0.3505  0.9126  0.5019
  194MOL    H3346739   1.925   3.387   4.944 -0.3096  0.6447 -2.9393
  194MOL    H3446740   1.873   3.560   4.774 -0.7701  0.8192  0.8366
  194MOL    H3546741   1.592   3.841   4.784 -1.2612  1.6276  1.0601
  194MOL    H3646742   1.699   3.955   4.709 -1.0264 -0.3411  0.3781
  194MOL    H3746743   1.679   3.941   4.895 -0.8710 -1.0727  0.3542
  194MOL    C3846744   2.033   3.628   4.891 -0.5805  0.1664 -0.7141
  194MOL    C3946745   2.092   3.688   4.764 -0.7140 -0.1263  0.4618
  194MOL    C4046746   2.219   3.771   4.803  0.2356  0.2508  0.3958
  194MOL    O4146747   2.295   3.753   4.900 -0.3802  0.4694  0.6004
  194MOL    O4246748   2.250   3.849   4.701  0.1903 -0.2022 -0.5252
  194MOL    C4346749   2.367   3.935   4.694 -0.0996 -0.1563  0.4285
  194MOL    H4446750   2.046   3.690   4.980  1.2344 -1.3384  0.1076
  194MOL    H4546751   2.086   3.535   4.912 -2.6000 -0.7508  0.4311
  194MOL    H4646752   2.013   3.759   4.736 -0.2830  0.5346  0.9118
  194MOL    H4746753   2.340   4.009   4.619  0.2934  1.5719  1.9614
  194MOL    H4846754   2.454   3.871   4.680  1.8702  2.1315  1.9226
  194MOL    H4946755   2.388   3.999   4.779  0.5155  1.2332 -0.7362
  194MOL    C5046756   2.132   3.584   4.655  0.9885 -0.4834  0.1455
  194MOL    C5146757   2.023   3.510   4.571 -0.0330  0.0355  0.1027
  194MOL    C5246758   1.918   3.606   4.517 -0.1077 -0.5093  0.0168
  194MOL    O5346759   1.804   3.581   4.542  0.2750  0.4695 -0.4707
  194MOL    O5446760   1.964   3.719   4.473  0.7413 -0.2704 -0.2161
  194MOL    C5546761   1.870   3.833   4.463 -0.4200 -0.3553 -0.0969
  194MOL    H5646762   2.204   3.623   4.583  0.9158 -0.3484  0.1449
  194MOL    H5746763   2.176   3.503   4.712  0.4067 -0.1846  1.0358
  194MOL    H5846764   1.956   3.447   4.630  1.0818 -0.2855  1.0537
  194MOL    H5946765   1.837   3.857   4.565 -0.5094 -2.7839  0.4646
  194MOL    H6046766   1.779   3.804   4.411  0.3458  0.5019 -1.9728
  194MOL    H6146767   1.925   3.915   4.416 -0.9088  0.0174 -0.0271
  194MOL    C6246768   2.080   3.434   4.452  0.4746  0.8986 -0.4346
  194MOL    C6346769   2.149   3.299   4.495  0.2414 -0.4390 -1.1114
  194MOL    C6446770   2.050   3.212   4.576 -0.0132  0.7278 -0.3768
  194MOL    O6546771   1.921   3.209   4.554  0.0229  0.0352 -0.4172
  194MOL    O6646772   2.116   3.148   4.677  0.3775  0.6585 -0.3805
  194MOL    C6746773   2.040   3.079   4.773 -0.1912  0.1156 -0.3379
  194MOL    H6846774   2.007   3.414   4.374 -0.6744 -0.8789  1.0536
  194MOL    H6946775   2.159   3.489   4.400 -0.2206  0.2612 -2.1976
  194MOL    H7046776   2.228   3.328   4.564 -0.2937 -1.9906  0.1686
  194MOL    H7146777   1.987   2.992   4.733  0.5764 -1.6124  2.2407
  194MOL    H7246778   1.959   3.146   4.801  1.5787  0.6558  3.8779
  194MOL    H7346779   2.096   3.064   4.865 -2.2724 -2.1027  0.6395
  194MOL    C7446780   2.211   3.232   4.374  0.1036  0.2934  0.3499
  194MOL    C7546781   2.286   3.098   4.400  0.1650  0.7226  0.2283
  194MOL    C7646782   2.277   3.014   4.271  0.0697 -0.2423  0.4827
  194MOL    O7746783   2.243   2.897   4.276 -0.1236  0.5131  0.2760
  194MOL    O7846784   2.313   3.086   4.158 -0.3056 -0.1231 -0.1480
  194MOL    C7946785   2.288   3.031   4.028  0.4798  0.0585  0.5093
  194MOL    H8046786   2.131   3.220   4.300  0.8997 -2.0761 -0.1719
  194MOL    H8146787   2.279   3.300   4.324 -0.5021  0.2721 -0.5146
  194MOL    H8246788   2.248   3.039   4.483 -0.4070 -1.5377 -1.5922
  194MOL    H8346789   2.339   3.091   3.953 -0.0142 -2.2653 -1.7206
  194MOL    H8446790   2.186   3.045   3.991 -0.1611 -2.4072  1.2617
  194MOL    H8546791   2.307   2.925   4.017 -0.8784 -0.4471  2.5396
  194MOL    C8646792   2.435   3.111   4.450  0.7813 -0.2197  0.3320
  194MOL    C8746793   2.515   2.981   4.483  0.6778  0.2260  0.2731
  194MOL    C8846794   2.669   2.999   4.472 -0.2518 -0.2543 -0.1996
  194MOL    O8946795   2.705   3.107   4.428 -0.1986 -0.2587 -0.0765
  194MOL    O9046796   2.742   2.892   4.498 -0.2187  0.2177  0.5022
  194MOL    C9146797   2.884   2.897   4.492 -0.6356 -0.0070  0.1629
  194MOL    H9246798   2.493   3.179   4.387  1.6516 -1.3852 -0.1308
  194MOL    H9346799   2.435   3.165   4.546  2.4741 -1.8666  1.2829
  194MOL    H9446800   2.499   2.910   4.402 -0.3437  0.0516  0.6139
  194MOL    H9546801   2.922   2.976   4.427 -2.3723  0.6866 -0.0273
  194MOL    H9646802   2.926   2.800   4.464 -0.0362  0.0771  0.7398
  194MOL    H9746803   2.918   2.927   4.591 -1.3056 -1.1189  0.7416
  194MOL    C9846804   2.475   2.921   4.617 -0.2875  0.0142  0.3299
  194MOL    C9946805   2.370   2.815   4.616 -0.3913 -0.1992 -0.0633
  194MOL   C10046806   2.421   2.686   4.542  0.6996 -0.8619  0.0535
  194MOL   O10146807   2.512   2.616   4.588 -0.1580  0.1954  0.3050
  194MOL   O10246808   2.344   2.655   4.442  0.1996  0.5386 -0.4690
  194MOL   C10346809   2.371   2.538   4.369  0.2047 -0.3748 -0.6760
  194MOL   H10446810   2.564   2.875   4.659  0.4774 -0.3906 -1.6879
  194MOL   H10546811   2.445   3.006   4.679  0.6909  0.4441  0.2131
  194MOL   H10646812   2.280   2.850   4.564 -0.4610 -0.8990 -0.4211
  194MOL   H10746813   2.428   2.559   4.277 -0.1766 -1.9739 -1.2870
  194MOL   H10846814   2.277   2.486   4.354 -0.3685  0.6961 -0.8592
  194MOL   H10946815   2.437   2.467   4.419  0.1503 -0.5966 -0.9169
  194MOL   C11046816   2.319   2.781   4.763 -0.3467  0.2955  0.1319
  194MOL   C11146817   2.214   2.669   4.793 -0.1785  0.4153  0.3061
  194MOL   C11246818   2.088   2.677   4.708  0.0448 -0.2977 -0.0453
  194MOL   O11346819   1.994   2.751   4.728  0.2002  0.0867 -0.0126
  194MOL   O11446820   2.100   2.606   4.588 -0.3762  0.5536  0.5478
  194MOL   C11546821   2.000   2.602   4.485 -0.0221  0.4833 -0.2918
  194MOL   H11646822   2.403   2.765   4.832  0.2613 -1.9971 -1.0816
  194MOL   H11746823   2.283   2.872   4.811  1.9995  1.3498 -0.0301
  194MOL   H11846824   2.171   2.694   4.890 -1.2550 -0.8345  0.1595
  194MOL   H11946825   2.027   2.530   4.408  0.9611  2.0107 -1.4014
  194MOL   H12046826   1.984   2.701   4.441 -0.2487  0.2441 -0.7462
  194MOL   H12146827   1.907   2.568   4.530  0.0562  0.2216 -0.3308
  194MOL   C12246828   2.272   2.526   4.808  0.3380  0.6144  0.1767
  194MOL   C12346829   2.198   2.454   4.929 -0.0828  0.8694 -0.2625
  194MOL   C12446830   2.057   2.408   4.886  1.0390  0.0739  0.0884
  194MOL   O12546831   2.043   2.319   4.802  0.1398 -0.8106  0.1072
  194MOL   O12646832   1.965   2.454   4.970  0.3488  0.1403  0.2289
  194MOL   C12746833   1.835   2.405   4.953  0.2315  0.1946 -0.5509
  194MOL   H12846834   2.264   2.472   4.714  2.1500  0.6682 -0.0162
  194MOL   H12946835   2.379   2.533   4.826  0.5061  0.1961 -0.6091
  194MOL   H13046836   2.202   2.522   5.014  1.9467 -1.4574  1.5783
  194MOL   H13146837   1.759   2.450   5.016 -0.6134 -0.8999 -0.7847
  194MOL   H13246838   1.820   2.299   4.974  0.6135  0.5504  1.6393
  194MOL   H13346839   1.807   2.412   4.848  0.3694 -2.3034 -0.7938
  194MOL   C13446840   2.276   2.324   4.967 -0.4166  0.2270 -0.5307
  194MOL   C13546841   2.421   2.325   5.036  0.0437 -0.0520  0.4435
  194MOL   C13646842   2.425   2.396   5.170  0.8464  0.4151 -0.1501
  194MOL   O13746843   2.339   2.392   5.258 -0.1784 -0.0061 -0.3663
  194MOL   O13846844   2.545   2.447   5.188  1.0833  0.1528 -0.3757
  194MOL   C13946845   2.576   2.513   5.316  0.4610  0.4093  0.6862
  194MOL   H14046846   2.217   2.266   5.039 -1.1289  1.6193  0.0218
  194MOL   H14146847   2.276   2.261   4.878  0.4560 -0.8640  0.2223
  194MOL   H14246848   2.495   2.385   4.981  0.2220  0.5656  1.3397
  194MOL   H14346849   2.656   2.586   5.306 -0.1334  0.9471 -0.2388
  194MOL   H14446850   2.602   2.430   5.382  1.1976 -1.8930 -2.3635
  194MOL   H14546851   2.491   2.576   5.344  0.8785  1.4729 -0.4106
  194MOL   C14646852   2.487   2.185   5.029  0.4007  0.4275 -0.2080
  194MOL   C14746853   2.418   2.075   5.113  0.5818  0.8223  1.1235
  194MOL   C14846854   2.389   1.955   5.031  0.6823  0.4205  0.7050
  194MOL   O14946855   2.467   1.867   5.002  0.0353 -0.4195 -0.2237
  194MOL   O15046856   2.261   1.957   4.993 -0.2781  0.1994  1.4833
  194MOL   C15146857   2.209   1.841   4.931  0.2729  0.0311  0.5812
  194MOL   H15246858   2.494   2.150   4.926  1.5970 -0.0011  0.0113
  194MOL   H15346859   2.591   2.202   5.058  0.4537 -0.3952  0.1166
  194MOL   H15446860   2.316   2.105   5.134 -0.6554 -2.3877 -0.0522
  194MOL   H15546861   2.105   1.829   4.960 -0.5454  1.8399 -1.4227
  194MOL   H15646862   2.263   1.751   4.958  0.5680 -0.5286 -1.7393
  194MOL   H15746863   2.191   1.857   4.824  0.6051  0.5536  0.5993
  194MOL   C15846864   2.489   2.050   5.243 -0.2597  0.4302  0.1175
  194MOL   C15946865   2.415   1.993   5.368 -0.5877 -0.0416  0.1644
  194MOL   C16046866   2.519   1.943   5.470 -0.4149  0.6334 -0.6223
  194MOL   O16146867   2.554   1.823   5.473  0.2164  0.3258 -0.2499
  194MOL   O16246868   2.564   2.037   5.554  0.6209 -0.7649  0.1199
  194MOL   C16346869   2.664   2.011   5.651  0.1809 -0.1635  0.3515
  194MOL   H16446870   2.575   1.987   5.221 -1.4004 -0.1960 -2.7592
  194MOL   H16546871   2.532   2.147   5.269  2.2086 -0.8711  1.0602
  194MOL   H16646872   2.368   1.900   5.335 -1.5222  0.5924 -0.2807
  194MOL   H16746873   2.646   1.932   5.724 -1.9325  0.5010  0.5915
  194MOL   H16846874   2.690   2.094   5.717  1.9490 -0.5550  0.1672
  194MOL   H16946875   2.758   1.989   5.601 -0.6634 -1.7212 -0.6009
  194MOL   C17046876   2.314   2.090   5.440 -0.6526  0.3219  0.6295
  194MOL   C17146877   2.248   2.036   5.568 -0.4529  0.3490 -0.1101
  194MOL   C17246878   2.183   2.147   5.658  0.6852 -0.3996 -0.0508
  194MOL   O17346879   2.177   2.133   5.783 -0.3257 -0.2768 -0.9662
  194MOL   O17446880   2.129   2.250   5.594 -0.2215  0.0998  0.0121
  194MOL   C17546881   2.049   2.340   5.669 -0.2010 -0.1177  0.4424
  194MOL   H17646882   2.364   2.180   5.478 -0.3157  0.9427 -1.2554
  194MOL   H17746883   2.240   2.110   5.363 -1.1673 -0.9915  0.7749
  194MOL   H17846884   2.323   1.995   5.635 -1.4702 -0.6223  0.4508
  194MOL   H17946885   1.946   2.322   5.636 -0.3488  1.2920  0.1119
  194MOL   H18046886   2.077   2.441   5.641  0.3298 -0.1879  0.7286
  194MOL   H18146887   2.059   2.337   5.777  5.8826 -3.0498 -0.0224
  194MOL   C18246888   2.138   1.928   5.536 -0.2988  0.0308 -0.4103
  194MOL   C18346889   2.178   1.796   5.591  0.0212  0.2159  0.3514
  194MOL   C18446890   2.163   1.793   5.747  0.5794  0.3832  0.4854
  194MOL   O18546891   2.267   1.782   5.820 -0.5245  0.1018 -0.0803
  194MOL   O18646892   2.032   1.795   5.789 -0.2934 -0.4064  0.0464
  194MOL   C18746893   2.000   1.792   5.927 -0.3984 -0.3104  0.3228
  194MOL   H18846894   2.040   1.959   5.573  0.0483  0.2545  0.3495
  194MOL   H18946895   2.119   1.925   5.429 -0.8967 -0.5144 -0.2903
  194MOL   H19046896   2.284   1.781   5.569  0.3354  1.0499  1.2478
  194MOL   H19146897   2.062   1.855   5.989 -2.0512  0.7587  0.9252
  194MOL   H19246898   2.021   1.692   5.966  0.3968  0.1018  0.9285
  194MOL   H19346899   1.897   1.812   5.958 -0.3802 -0.1839  0.3007
  194MOL   C19446900   2.095   1.678   5.528 -0.3240  0.6363 -0.6632
  194MOL   C19546901   2.126   1.639   5.382  0.2802  0.4127  0.1351
  194MOL   C19646902   2.273   1.607   5.346 -1.2355  0.4263 -0.0785
  194MOL   O19746903   2.329   1.659   5.249 -0.1298  0.3218  0.0372
  194MOL   O19846904   2.321   1.507   5.425  0.0458 -0.7098  0.4619
  194MOL   C19946905   2.459   1.470   5.423 -0.1922 -0.3857 -0.3201
  194MOL   H20046906   2.111   1.591   5.592  1.2018  1.6830  0.4065
  194MOL   H20146907   1.990   1.700   5.542 -0.7643 -2.3140  1.3026
  194MOL   H20246908   2.107   1.725   5.317  3.7155  2.0188  1.0826
  194MOL   H20346909   2.486   1.370   5.387 -1.6269 -0.7115 -0.5023
  194MOL   H20446910   2.505   1.475   5.522 -0.6563 -0.8010 -0.0845
  194MOL   H20546911   2.523   1.539   5.368  0.2655  0.4588  1.2274
  194MOL   C20646912   2.022   1.541   5.333 -0.3065  0.1531  0.0085
  194MOL   C20746913   2.022   1.498   5.183 -0.9304 -0.4011  0.6313
  194MOL   C20846914   2.127   1.393   5.141  0.0451 -0.5141 -0.0159
  194MOL   O20946915   2.187   1.406   5.037 -0.3802 -0.1905  0.1256
  194MOL   O21046916   2.145   1.299   5.230 -0.2237  0.0088  0.3438
  194MOL   C21146917   2.244   1.205   5.213 -0.4355  0.6627  0.1437
  194MOL   H21246918   2.021   1.449   5.391 -0.9234  0.0684 -0.1296
  194MOL   H21346919   1.923   1.577   5.360 -1.0122 -1.5002 -0.3231
  194MOL   H21446920   2.051   1.588   5.130  0.1862 -0.7595  0.6196
  194MOL   H21546921   2.337   1.257   5.230 -0.8291  2.2566 -2.3048
  194MOL   H21646922   2.246   1.150   5.119 -1.9831 -0.7365  0.8820
  194MOL   H21746923   2.239   1.128   5.290  1.7395  0.0881 -0.2616
  194MOL   C21846924   1.879   1.457   5.128  0.1377  0.2520  0.0559
  194MOL   C21946925   1.875   1.431   4.977 -0.4494  0.7526 -0.3908
  194MOL   C22046926   1.748   1.361   4.924  0.2691 -0.0307 -0.6687
  194MOL   O22146927   1.760   1.270   4.843  0.4505  0.5828  0.0613
  194MOL   O22246928   1.629   1.407   4.952 -0.2325  0.4741 -0.2192
  194MOL   C22346929   1.523   1.367   4.875  0.5457 -0.6948  0.1873
  194MOL   H22446930   1.842   1.373   5.187 -0.1920  0.1454 -0.3005
  194MOL   H22546931   1.812   1.542   5.144 -0.9822 -0.3891 -1.1208
  194MOL   H22646932   1.952   1.357   4.958  0.7793  1.9453 -0.1882
  194MOL   H22746933   1.427   1.411   4.902  0.3532 -1.5507  0.9098
  194MOL   H22846934   1.513   1.260   4.889  0.8194 -0.9330 -1.3509
  194MOL   H22946935   1.537   1.398   4.771  0.2922  1.5308  0.7978
  194MOL   C23046936   1.921   1.550   4.895  0.3204  0.4674  0.0024
  194MOL   C23146937   1.967   1.521   4.758 -0.1846  0.0690 -0.3770
  194MOL   C23246938   1.966   1.641   4.674 -0.3519  0.0083  0.0488
  194MOL   O23346939   2.077   1.693   4.655 -0.7361 -0.1648  0.0046
  194MOL   O23446940   1.855   1.665   4.610 -0.0037 -0.6855 -0.2645
  194MOL   C23546941   1.839   1.783   4.536  0.5169  0.0272 -0.0540
  194MOL   H23646942   1.843   1.626   4.895 -1.1655 -0.9963 -1.8530
  194MOL   H23746943   2.007   1.591   4.948 -1.2205  2.7327  0.8130
  194MOL   H23846944   1.898   1.463   4.697  0.9041 -1.1190 -0.4820
  194MOL   H23946945   1.911   1.800   4.456  1.6582 -1.6171  0.5968
  194MOL   H24046946   1.843   1.876   4.593  0.2720  0.8148 -1.3110
  194MOL   H24146947   1.738   1.790   4.495 -0.1793 -3.8069  0.8675
  194MOL   H24246948   2.068   1.482   4.767 -0.6742 -0.4820  3.5624
  195MOL     C146949   3.454   4.294   5.377  0.1985 -0.5596 -0.2314
  195MOL     C246950   3.458   4.278   5.525  0.3790 -0.3998 -0.0060
  195MOL     C346951   3.319   4.290   5.588 -0.8392  0.0285 -0.5448
  195MOL     O446952   3.225   4.230   5.535 -0.1112 -0.2253 -0.4214
  195MOL     O546953   3.317   4.370   5.698  0.2149 -0.2294 -0.6433
  195MOL     C646954   3.207   4.363   5.791  0.4184  0.1065  0.6413
  195MOL     H746955   3.446   4.194   5.333 -0.8970  0.2196 -1.8849
  195MOL     H846956   3.544   4.344   5.343  0.7099 -0.1042  1.7773
  195MOL     H946957   3.501   4.373   5.555 -0.6506 -0.3025  1.2233
  195MOL    H1046958   3.131   4.437   5.768  2.2372  2.5729  2.2653
  195MOL    H1146959   3.257   4.394   5.883  0.6824 -1.2795  0.9728
  195MOL    H1246960   3.173   4.261   5.807 -1.7973  0.4683 -1.5716
  195MOL    H1346961   3.375   4.358   5.336  0.9888  0.8501  0.4032
  195MOL    C1446962   3.538   4.154   5.579  0.0792 -0.4791  0.9685
  195MOL    C1546963   3.683   4.132   5.536 -0.3964 -0.3388  0.0239
  195MOL    C1646964   3.770   4.244   5.593  0.1471 -0.2961 -0.2647
  195MOL    O1746965   3.813   4.241   5.705  0.8025  0.3099 -0.0274
  195MOL    O1846966   3.783   4.351   5.506  0.1019 -0.1416  0.0798
  195MOL    C1946967   3.848   4.469   5.557  0.2446  0.0286  0.8248
  195MOL    H2046968   3.540   4.137   5.687 -0.6069  0.8788  1.1983
  195MOL    H2146969   3.487   4.063   5.547 -0.7721  0.3177  0.0328
  195MOL    H2246970   3.687   4.144   5.427  2.2294  0.5693  0.1996
  195MOL    H2346971   3.788   4.500   5.642 -0.3029  0.7568  0.1810
  195MOL    H2446972   3.861   4.554   5.491  0.9826  0.7201  1.8521
  195MOL    H2546973   3.949   4.442   5.586 -0.2233  0.1028  2.5888
  195MOL    C2646974   3.738   3.993   5.573 -0.5880  0.3712  0.1187
  195MOL    C2746975   3.850   3.937   5.479  0.0588 -0.0859 -0.2388
  195MOL    C2846976   3.916   3.823   5.555  0.2525 -1.1344  0.1655
  195MOL    O2946977   4.036   3.810   5.567 -0.7876  0.2281  0.8482
  195MOL    O3046978   3.832   3.719   5.595  0.1531 -0.6595  0.0436
  195MOL    C3146979   3.889   3.593   5.629 -0.1294  0.1427  0.3756
  195MOL    H3246980   3.773   3.985   5.675  1.0294 -0.3281 -0.4671
  195MOL    H3346981   3.654   3.927   5.551  0.4578 -0.1607 -2.5926
  195MOL    H3446982   3.920   4.018   5.461 -1.3066  0.7560 -1.8605
  195MOL    H3546983   3.921   3.598   5.734 -2.8961  0.1412  1.2578
  195MOL    H3646984   3.972   3.568   5.564 -0.5145 -0.4093  0.1030
  195MOL    H3746985   3.810   3.519   5.622  1.3618 -1.4328  0.0709
  195MOL    C3846986   3.811   3.882   5.341 -0.2418  0.6739 -0.0732
  195MOL    C3946987   3.704   3.775   5.329  0.5316  0.6508 -0.2282
  195MOL    C4046988   3.567   3.843   5.314  0.6635  0.1150  0.5176
  195MOL    O4146989   3.549   3.945   5.250 -0.7845 -0.2272 -0.1043
  195MOL    O4246990   3.471   3.767   5.355  0.0408  0.1117  0.2365
  195MOL    C4346991   3.334   3.809   5.331 -0.2511  0.2014 -0.2241
  195MOL    H4446992   3.787   3.967   5.277  0.8450  1.3223  0.3639
  195MOL    H4546993   3.901   3.852   5.288 -0.1075  0.5061  0.2474
  195MOL    H4646994   3.702   3.715   5.420  1.9880  1.5754  0.4287
  195MOL    H4746995   3.321   3.905   5.380 -0.5780 -0.2529  0.5848
  195MOL    H4846996   3.267   3.729   5.361 -0.0257  0.1871  0.2526
  195MOL    H4946997   3.314   3.836   5.227  2.0474  0.3934 -0.6582
  195MOL    C5046998   3.727   3.692   5.203  0.1204  1.3160  0.6081
  195MOL    C5146999   3.657   3.551   5.206  0.2796 -0.3935 -0.2882
  195MOL    C5247000   3.556   3.553   5.090  0.3609  0.8726 -0.4998
  195MOL    O5347001   3.590   3.546   4.975  0.2335 -0.7569  0.5646
  195MOL    O5447002   3.427   3.554   5.135 -0.3164  0.3742 -0.3375
  195MOL    C5547003   3.322   3.542   5.036  0.2707  0.3138  0.2437
  195MOL    H5647004   3.705   3.748   5.112  1.0533  0.2804 -0.2706
  195MOL    H5747005   3.836   3.681   5.195  0.0412 -0.2508  1.4973
  195MOL    H5847006   3.584   3.559   5.287  0.2898 -0.1468 -0.3016
  195MOL    H5947007   3.352   3.594   4.945 -1.5703  0.1366 -0.4803
  195MOL    H6047008   3.231   3.577   5.084 -0.3873 -0.5158 -0.3759
  195MOL    H6147009   3.303   3.438   5.009 -1.3852  0.9146 -1.0187
  195MOL    C6247010   3.753   3.425   5.216  0.4819 -0.3167  0.0939
  195MOL    C6347011   3.698   3.286   5.257 -0.1796 -0.6058 -0.0430
  195MOL    C6447012   3.587   3.246   5.153  0.8657 -0.0211  0.5224
  195MOL    O6547013   3.472   3.239   5.191 -0.1200 -0.3565  0.0917
  195MOL    O6647014   3.630   3.201   5.038  0.5061  0.7642 -0.2892
  195MOL    C6747015   3.537   3.187   4.931  0.5279 -0.7385 -0.2758
  195MOL    H6847016   3.811   3.415   5.124 -0.1274 -1.6340 -0.1547
  195MOL    H6947017   3.828   3.456   5.289  0.8876 -0.1642 -0.3825
  195MOL    H7047018   3.647   3.299   5.352 -1.0960 -3.5819 -0.0549
  195MOL    H7147019   3.594   3.170   4.840  0.2241  0.8142 -0.7717
  195MOL    H7247020   3.487   3.284   4.923 -2.6155 -2.3903 -1.7702
  195MOL    H7347021   3.463   3.109   4.947 -0.1897 -0.0269 -0.0869
  195MOL    C7447022   3.803   3.185   5.280  0.7979 -0.2495  0.1238
  195MOL    C7547023   3.880   3.207   5.418 -0.0312 -0.1942 -0.0945
  195MOL    C7647024   3.821   3.121   5.532 -0.1886  0.0186 -0.2702
  195MOL    O7747025   3.770   3.166   5.632  0.4596  0.4062 -0.2568
  195MOL    O7847026   3.845   2.990   5.503  0.4418  0.1625 -0.8919
  195MOL    C7947027   3.805   2.899   5.607 -0.0921 -0.3090  0.6457
  195MOL    H8047028   3.755   3.088   5.275 -0.8884  0.5314  0.6864
  195MOL    H8147029   3.884   3.183   5.208  0.5972 -0.4972 -0.0962
  195MOL    H8247030   3.860   3.311   5.447  1.0774  0.5357 -1.8399
  195MOL    H8347031   3.851   2.929   5.701  0.0765  0.9698  0.1594
  195MOL    H8447032   3.827   2.798   5.572 -1.4650  0.4413 -2.5838
  195MOL    H8547033   3.696   2.892   5.618 -0.1231 -0.5165  0.2085
  195MOL    C8647034   4.041   3.196   5.410 -0.3777  0.3445 -0.0770
  195MOL    C8747035   4.127   3.280   5.502 -0.5140 -0.5833 -0.4797
  195MOL    C8847036   4.105   3.255   5.649  0.6276 -0.0396 -0.7312
  195MOL    O8947037   4.044   3.337   5.715  0.1148  0.4735  0.5865
  195MOL    O9047038   4.155   3.135   5.691  0.1252 -0.0766 -0.2664
  195MOL    C9147039   4.149   3.097   5.832  0.0484 -0.6830 -0.4018
  195MOL    H9247040   4.068   3.092   5.427 -1.8748  0.0609  0.6250
  195MOL    H9347041   4.078   3.207   5.308 -1.0069 -1.3799 -0.5094
  195MOL    H9447042   4.101   3.384   5.485  2.8639  0.1755 -1.3927
  195MOL    H9547043   4.244   3.114   5.884 -0.3749 -1.6850  0.7131
  195MOL    H9647044   4.156   2.994   5.864 -3.8515 -1.7180 -2.6095
  195MOL    H9747045   4.065   3.145   5.882 -0.1700 -3.3956  1.9432
  195MOL    C9847046   4.275   3.280   5.465  0.2923  0.0607 -0.2301
  195MOL    C9947047   4.378   3.381   5.539 -0.2232 -0.6829  0.2427
  195MOL   C10047048   4.327   3.529   5.536 -0.3837  0.1383  0.1955
  195MOL   O10147049   4.290   3.586   5.641  0.3588 -0.3849 -0.0670
  195MOL   O10247050   4.321   3.575   5.407  0.2564 -0.4815  0.3685
  195MOL   C10347051   4.244   3.684   5.375  0.1973 -0.0520 -0.0440
  195MOL   H10447052   4.315   3.181   5.485 -0.7532 -0.4627 -0.6487
  195MOL   H10547053   4.279   3.316   5.362  3.8379 -0.4777 -0.3383
  195MOL   H10647054   4.461   3.375   5.469  0.7940 -1.1606  1.4802
  195MOL   H10747055   4.137   3.665   5.373  0.5942 -2.3671 -3.6301
  195MOL   H10847056   4.272   3.722   5.277 -1.1723 -1.7902 -1.1201
  195MOL   H10947057   4.277   3.769   5.435 -0.4333 -0.9366  1.5721
  195MOL   C11047058   4.421   3.328   5.677 -0.2934 -0.3666 -0.0562
  195MOL   C11147059   4.550   3.393   5.726 -0.2803  0.5545  0.4329
  195MOL   C11247060   4.545   3.389   5.876 -0.3563  0.4229 -0.2508
  195MOL   O11347061   4.531   3.276   5.932 -0.4538 -0.0013  0.0299
  195MOL   O11447062   4.535   3.507   5.936  0.3733 -0.1404 -0.1516
  195MOL   C11547063   4.537   3.521   6.079  0.5384  0.2817  0.6297
  195MOL   H11647064   4.339   3.358   5.742  0.6304  0.1632  0.8845
  195MOL   H11747065   4.435   3.220   5.687  1.6492 -0.3254 -1.8975
  195MOL   H11847066   4.551   3.501   5.709 -2.0534  0.0967 -2.7767
  195MOL   H11947067   4.635   3.502   6.122  0.9547 -1.2342 -0.9251
  195MOL   H12047068   4.457   3.459   6.119 -0.0624  0.3120 -0.5021
  195MOL   H12147069   4.509   3.625   6.096  1.1351  0.1850  2.2498
  195MOL   C12247070   4.683   3.334   5.671 -0.5028  0.0830  0.4009
  195MOL   C12347071   4.802   3.431   5.693 -0.0461  1.0406  0.3746
  195MOL   C12447072   4.917   3.369   5.778 -0.0853 -0.2791  0.3919
  195MOL   O12547073   5.028   3.361   5.734  0.2201  0.1679 -0.4450
  195MOL   O12647074   4.871   3.326   5.890 -0.2745  0.7687 -0.3953
  195MOL   C12747075   4.916   3.211   5.960 -0.0794  0.5405  0.5756
  195MOL   H12847076   4.696   3.235   5.714 -0.2191  0.1859  0.5520
  195MOL   H12947077   4.670   3.313   5.565 -0.0846 -2.2788  0.7915
  195MOL   H13047078   4.764   3.517   5.748 -0.9038  1.7465 -1.2713
  195MOL   H13147079   4.832   3.166   6.013 -0.4748 -0.5519 -0.9487
  195MOL   H13247080   4.988   3.244   6.035 -1.8886  0.5033  2.3654
  195MOL   H13347081   4.960   3.131   5.900  1.7974  1.1974  1.0299
  195MOL   C13447082   4.849   3.508   5.565  0.1881  0.8796  0.6069
  195MOL   C13547083   4.766   3.623   5.507  0.1257 -0.2355  0.2408
  195MOL   C13647084   4.715   3.720   5.613  0.1299  0.7028  0.4437
  195MOL   O13747085   4.787   3.791   5.680 -0.2839 -0.2045 -0.2027
  195MOL   O13847086   4.585   3.721   5.616 -0.0037  0.1428  0.3905
  195MOL   C13947087   4.518   3.814   5.693  0.2417  0.2130 -0.0176
  195MOL   H14047088   4.950   3.544   5.582  0.4263 -0.5693  2.3273
  195MOL   H14147089   4.872   3.440   5.484 -2.2232  0.8047 -0.0570
  195MOL   H14247090   4.677   3.586   5.458 -1.4183  0.6873  2.2747
  195MOL   H14347091   4.576   3.906   5.697 -0.5238  0.7204 -0.4299
  195MOL   H14447092   4.506   3.778   5.795  0.4430  0.2908  0.0336
  195MOL   H14547093   4.418   3.840   5.657  0.8044  1.3834 -0.7724
  195MOL   C14647094   4.845   3.696   5.396 -0.4384  0.4809  0.0588
  195MOL   C14747095   4.864   3.610   5.264 -0.1335 -0.1554  0.5145
  195MOL   C14847096   4.726   3.592   5.195  0.3341 -0.4101  0.1288
  195MOL   O14947097   4.670   3.480   5.194  0.4814 -0.2636  0.3907
  195MOL   O15047098   4.682   3.700   5.135 -0.1227  0.6027  0.0717
  195MOL   C15147099   4.559   3.698   5.075 -0.1386 -0.2661 -1.3092
  195MOL   H15247100   4.808   3.797   5.376 -0.6005  0.3644 -0.2210
  195MOL   H15347101   4.946   3.717   5.432 -0.6397  0.8092  0.4429
  195MOL   H15447102   4.888   3.509   5.298  0.4641  0.0411  0.6836
  195MOL   H15547103   4.534   3.796   5.034  2.0869  0.8770  0.0202
  195MOL   H15647104   4.477   3.674   5.143  0.2536 -0.9075 -1.0695
  195MOL   H15747105   4.568   3.623   4.996 -2.2357 -1.2772 -0.6223
  195MOL   C15847106   4.972   3.652   5.164  0.6597 -0.6011  0.0349
  195MOL   C15947107   5.116   3.633   5.204 -0.1717 -0.5002  0.5543
  195MOL   C16047108   5.141   3.484   5.233 -0.0692  0.2207 -0.0886
  195MOL   O16147109   5.141   3.441   5.349 -0.1853  0.4508 -0.0675
  195MOL   O16247110   5.157   3.413   5.127 -0.2033  0.0053  0.6145
  195MOL   C16347111   5.191   3.275   5.148  0.2545 -0.4472  0.2259
  195MOL   H16447112   4.943   3.606   5.069 -0.6115 -0.7361  0.4761
  195MOL   H16547113   4.964   3.760   5.152  0.0067 -0.5670  0.7262
  195MOL   H16647114   5.140   3.701   5.286  1.3903 -1.4568  0.9068
  195MOL   H16747115   5.269   3.262   5.224  2.2196  0.5211 -1.5507
  195MOL   H16847116   5.232   3.240   5.053  0.2732  0.7414 -0.2069
  195MOL   H16947117   5.110   3.211   5.183 -2.4452  2.4969 -0.5363
  195MOL   C17047118   5.211   3.694   5.090  0.4820 -0.4131  0.2652
  195MOL   C17147119   5.355   3.641   5.075 -0.1585 -0.2020 -0.8523
  195MOL   C17247120   5.417   3.725   4.956 -0.6701 -0.2274  0.0368
  195MOL   O17347121   5.368   3.831   4.915 -0.2676  0.7508 -0.1486
  195MOL   O17447122   5.537   3.674   4.908  0.5003  0.3032 -0.1116
  195MOL   C17547123   5.615   3.755   4.828 -0.1856  0.5910 -0.3471
  195MOL   H17647124   5.171   3.675   4.990  2.4685  0.4341 -0.7284
  195MOL   H17747125   5.208   3.803   5.094 -2.3152 -0.3260 -2.4331
  195MOL   H17847126   5.351   3.536   5.046  0.5817 -0.1997 -0.9615
  195MOL   H17947127   5.553   3.800   4.750 -0.5569  0.8431  0.0930
  195MOL   H18047128   5.689   3.701   4.769 -0.7259 -0.5276 -0.0256
  195MOL   H18147129   5.657   3.824   4.901 -0.1254 -1.0153  1.1836
  195MOL   C18247130   5.430   3.655   5.203 -0.2949  0.2069  0.3120
  195MOL   C18347131   5.572   3.594   5.216 -1.2587  0.4366 -0.6696
  195MOL   C18447132   5.635   3.646   5.349  0.4928  0.0957  0.2962
  195MOL   O18547133   5.735   3.718   5.351  0.3896  0.5123  0.5228
  195MOL   O18647134   5.565   3.610   5.458 -0.1983 -0.1578 -0.0528
  195MOL   C18747135   5.570   3.683   5.585 -0.3180 -0.3423 -0.3107
  195MOL   H18847136   5.435   3.763   5.217 -1.1681  0.2152  0.5479
  195MOL   H18947137   5.369   3.624   5.288 -1.4593  1.7281  0.0347
  195MOL   H19047138   5.635   3.637   5.140 -0.4442  0.4620  0.0133
  195MOL   H19147139   5.670   3.722   5.606 -0.8352  0.4540  0.7261
  195MOL   H19247140   5.542   3.622   5.671  0.3739  0.3885  0.4417
  195MOL   H19347141   5.506   3.771   5.589 -0.2869 -0.3379  0.2058
  195MOL   C19447142   5.573   3.441   5.199 -0.4133 -0.3470  0.3742
  195MOL   C19547143   5.713   3.374   5.218  0.0868  0.5299 -0.4088
  195MOL   C19647144   5.710   3.216   5.206 -0.1949 -0.7140 -0.5894
  195MOL   O19747145   5.623   3.163   5.139  0.0609  0.0072 -0.3792
  195MOL   O19847146   5.807   3.164   5.275  0.4376 -0.3931 -0.7639
  195MOL   C19947147   5.829   3.025   5.279  0.2369 -0.6290 -0.0485
  195MOL   H20047148   5.516   3.401   5.282 -1.6464  1.9250  0.6498
  195MOL   H20147149   5.525   3.426   5.102 -1.1720 -0.7422  0.8127
  195MOL   H20247150   5.747   3.392   5.320 -0.1568 -0.9941 -0.0427
  195MOL   H20347151   5.847   2.998   5.384  0.3093  2.0250  0.6510
  195MOL   H20447152   5.914   3.015   5.213  0.6363  2.2087 -0.0165
  195MOL   H20547153   5.750   2.968   5.230 -0.9635  0.0562  1.0264
  195MOL   C20647154   5.816   3.430   5.118  0.2137 -0.2272 -0.1887
  195MOL   C20747155   5.923   3.525   5.176  0.3212 -0.5566  0.9272
  195MOL   C20847156   6.040   3.440   5.230 -0.3293  0.2181 -0.2930
  195MOL   O20947157   6.128   3.405   5.154  0.8747  0.1803 -0.0395
  195MOL   O21047158   6.029   3.409   5.362  0.4282 -0.6633 -0.1753
  195MOL   C21147159   6.133   3.333   5.413 -0.0194  0.6462  0.1133
  195MOL   H21247160   5.865   3.344   5.073 -2.4919 -2.1808  0.4937
  195MOL   H21347161   5.777   3.486   5.033 -0.9528  2.4059  1.9890
  195MOL   H21447162   5.891   3.584   5.261  0.6577  1.1400 -0.1126
  195MOL   H21547163   6.114   3.329   5.520 -0.0775  1.3429  0.1287
  195MOL   H21647164   6.227   3.376   5.381  1.1364 -1.5660  0.4512
  195MOL   H21747165   6.127   3.233   5.368  1.8450  0.4105  0.3464
  195MOL   C21847166   5.975   3.630   5.065  0.1481  0.4756  0.2324
  195MOL   C21947167   5.941   3.781   5.091 -0.4953 -0.3089  0.1766
  195MOL   C22047168   6.021   3.823   5.219 -0.3066 -0.5035 -0.0673
  195MOL   O22147169   6.105   3.756   5.271 -0.4901 -0.0930  0.2411
  195MOL   O22247170   5.980   3.940   5.267 -0.0157 -0.2131  0.0366
  195MOL   C22347171   6.021   3.987   5.391  0.2331  0.1727 -0.7760
  195MOL   H22447172   6.083   3.618   5.058  0.2899  0.1347  2.5259
  195MOL   H22547173   5.945   3.597   4.966  2.1877  0.2792 -0.3518
  195MOL   H22647174   5.835   3.797   5.113 -1.0402  1.4198 -3.3658
  195MOL   H22747175   6.013   4.096   5.392 -0.7118  0.1133 -0.9482
  195MOL   H22847176   6.124   3.968   5.422  0.5664 -0.6687 -2.3519
  195MOL   H22947177   5.950   3.948   5.465  0.7501 -1.6306 -1.2011
  195MOL   C23047178   5.975   3.865   4.968  0.5952  0.0352 -0.3135
  195MOL   C23147179   5.897   3.997   4.965 -0.5142 -0.4966 -0.0515
  195MOL   C23247180   5.966   4.129   4.965  0.6218 -0.5402 -0.4094
  195MOL   O23347181   6.089   4.143   4.951  0.0084 -0.5310  0.6678
  195MOL   O23447182   5.882   4.236   4.970 -0.1147 -0.2725 -0.0037
  195MOL   C23547183   5.931   4.363   4.967 -0.5114 -0.1974  0.3715
  195MOL   H23647184   6.078   3.880   4.935  0.9451  2.0263  1.6015
  195MOL   H23747185   5.932   3.802   4.890  1.6650  2.3461 -2.8540
  195MOL   H23847186   5.810   4.004   5.031  0.8297  0.1656  1.6871
  195MOL   H23947187   5.862   4.435   5.011 -2.7551 -0.2180 -2.9647
  195MOL   H24047188   5.956   4.396   4.866 -0.0485  1.4689  1.0120
  195MOL   H24147189   6.022   4.366   5.027 -0.0474 -0.7728 -0.2957
  195MOL   H24247190   5.857   4.001   4.864 -0.4824  0.0202 -0.0420
  196MOL     C147191   6.497   1.761   1.070 -0.1283 -0.1942  0.0374
  196MOL     C247192   6.571   1.662   1.158 -0.2530 -0.9271  0.5044
  196MOL     C347193   6.476   1.555   1.222 -0.3941  0.1785 -0.6550
  196MOL     O447194   6.462   1.554   1.347 -0.0381  0.8372  0.0344
  196MOL     O547195   6.404   1.486   1.136  0.4439 -0.1542 -0.2473
  196MOL     C647196   6.299   1.402   1.174  0.3342 -0.3460  0.0348
  196MOL     H747197   6.452   1.707   0.986 -1.8005  1.3753 -0.1089
  196MOL     H847198   6.569   1.840   1.048  0.8985 -0.8581  0.9680
  196MOL     H947199   6.606   1.712   1.248  0.0166  0.4106 -0.3353
  196MOL    H1047200   6.338   1.314   1.225 -1.6071 -2.4213 -1.9493
  196MOL    H1147201   6.246   1.377   1.082 -1.0080  1.5351  0.2760
  196MOL    H1247202   6.227   1.451   1.239  0.7127 -1.2468  1.1551
  196MOL    H1347203   6.416   1.811   1.123 -0.5149 -1.3523  0.5589
  196MOL    C1447204   6.686   1.588   1.078 -0.0693  0.0447  0.7520
  196MOL    C1547205   6.798   1.676   1.018 -0.5635 -0.0703 -0.3445
  196MOL    C1647206   6.874   1.735   1.142  0.2623  0.2363  0.6842
  196MOL    O1747207   6.954   1.661   1.206  0.0591  0.4913 -0.0133
  196MOL    O1847208   6.847   1.860   1.160  0.0815  0.2175 -0.4085
  196MOL    C1947209   6.922   1.931   1.258 -0.0183 -0.2059 -0.0525
  196MOL    H2047210   6.718   1.504   1.140  0.3782  0.1338  0.6471
  196MOL    H2147211   6.628   1.538   1.000  2.4510  1.8261 -2.4057
  196MOL    H2247212   6.750   1.747   0.951 -2.9109 -3.0338 -1.9553
  196MOL    H2347213   6.890   2.035   1.260 -0.3154 -0.3038  0.3688
  196MOL    H2447214   7.026   1.936   1.227  0.0073  1.0445  0.2084
  196MOL    H2547215   6.921   1.881   1.355  2.3883 -0.9153 -0.3596
  196MOL    C2647216   6.893   1.585   0.932  0.7015  0.8663 -0.3402
  196MOL    C2747217   7.003   1.644   0.837 -0.6300 -0.5859 -0.0820
  196MOL    C2847218   6.948   1.744   0.731  0.1596  0.2546  0.5705
  196MOL    O2947219   6.925   1.865   0.752  0.0081 -0.0750  0.1730
  196MOL    O3047220   6.907   1.685   0.611  0.6393  0.0181  0.9926
  196MOL    C3147221   6.865   1.770   0.499  0.2977 -0.4432 -0.0165
  196MOL    H3247222   6.923   1.507   1.003 -1.2981 -0.5953 -1.0572
  196MOL    H3347223   6.828   1.538   0.858  0.4914  1.2224 -0.3816
  196MOL    H3447224   7.029   1.561   0.771 -3.1403 -3.5336  2.4528
  196MOL    H3547225   6.826   1.708   0.418 -0.0917 -0.9869  0.5840
  196MOL    H3647226   6.947   1.831   0.462  0.2572  0.3602  1.1883
  196MOL    H3747227   6.789   1.841   0.531  0.4523 -0.7544  1.0725
  196MOL    C3847228   7.136   1.692   0.903  0.2332 -0.0411 -0.8241
  196MOL    C3947229   7.218   1.587   0.977  0.0207  0.0983 -0.5910
  196MOL    C4047230   7.308   1.515   0.879 -0.0801  0.7922  0.4651
  196MOL    O4147231   7.430   1.534   0.877 -0.2826 -0.3993  0.0342
  196MOL    O4247232   7.237   1.441   0.800 -0.3177  0.0463  0.2088
  196MOL    C4347233   7.309   1.372   0.700  0.4606 -0.0015 -0.4990
  196MOL    H4447234   7.193   1.751   0.832  1.7249 -0.4692  0.0040
  196MOL    H4547235   7.106   1.769   0.973 -0.5080  0.5703 -1.7931
  196MOL    H4647236   7.153   1.513   1.025  2.0605 -2.1445 -1.2040
  196MOL    H4747237   7.384   1.302   0.736 -0.7741 -1.6531 -1.0774
  196MOL    H4847238   7.369   1.438   0.637 -0.1305  3.5162  2.5000
  196MOL    H4947239   7.243   1.309   0.639  0.6771 -1.9224  1.1898
  196MOL    C5047240   7.297   1.655   1.096  0.0276 -0.0361 -0.5620
  196MOL    C5147241   7.344   1.550   1.202 -0.3220 -0.5010  0.5047
  196MOL    C5247242   7.479   1.595   1.261 -0.1949 -0.3923 -0.9695
  196MOL    O5347243   7.484   1.645   1.376 -0.1828 -0.5729 -0.4752
  196MOL    O5447244   7.575   1.582   1.171  0.4487  0.1544  0.0318
  196MOL    C5547245   7.695   1.647   1.186  0.0218  0.1472  0.3392
  196MOL    H5647246   7.378   1.708   1.047  1.3999 -1.3597  0.2596
  196MOL    H5747247   7.236   1.732   1.143  0.7079  0.3564 -0.3197
  196MOL    H5847248   7.358   1.457   1.146  3.3211  0.8274 -0.9727
  196MOL    H5947249   7.673   1.741   1.238 -1.8756 -0.2339  0.2870
  196MOL    H6047250   7.734   1.665   1.086 -0.5766 -0.6599 -0.0471
  196MOL    H6147251   7.764   1.585   1.243  1.2447  2.1204  1.0839
  196MOL    C6247252   7.234   1.531   1.311 -0.3214 -0.1342 -0.1752
  196MOL    C6347253   7.278   1.428   1.415 -0.1441  0.1081 -0.4568
  196MOL    C6447254   7.221   1.462   1.555  0.0859 -0.0960 -0.3706
  196MOL    O6547255   7.115   1.520   1.564 -0.0216 -0.2324 -0.5630
  196MOL    O6647256   7.299   1.428   1.656 -0.1732  0.1512 -0.1825
  196MOL    C6747257   7.271   1.463   1.784  0.3717  0.6524  0.4928
  196MOL    H6847258   7.210   1.628   1.355 -3.1038 -0.0669 -1.7407
  196MOL    H6947259   7.137   1.503   1.270 -1.2269  1.4458  0.8769
  196MOL    H7047260   7.383   1.444   1.437  0.0022 -3.1272  1.4674
  196MOL    H7147261   7.240   1.382   1.850  0.0073 -0.6561 -1.2513
  196MOL    H7247262   7.194   1.541   1.783  1.6568  1.9338 -0.3216
  196MOL    H7347263   7.356   1.511   1.832  2.2347 -0.5455 -1.5643
  196MOL    C7447264   7.245   1.287   1.378 -0.1290 -0.4057 -0.1722
  196MOL    C7547265   7.374   1.196   1.387  0.2868 -0.3456  0.0641
  196MOL    C7647266   7.482   1.229   1.282 -0.0222 -0.6536 -0.0059
  196MOL    O7747267   7.587   1.285   1.314  0.3850  0.2200 -0.4798
  196MOL    O7847268   7.460   1.188   1.156  0.1977  0.2382  0.4132
  196MOL    C7947269   7.544   1.225   1.047 -0.6080  0.3093 -0.0697
  196MOL    H8047270   7.154   1.273   1.434  0.6476 -2.0305  0.7045
  196MOL    H8147271   7.211   1.277   1.275 -1.8637  1.0514  0.2355
  196MOL    H8247272   7.334   1.099   1.357 -0.3622  0.0941 -0.5052
  196MOL    H8347273   7.616   1.143   1.046 -0.5157  0.3155  2.1460
  196MOL    H8447274   7.583   1.327   1.048 -0.7972  0.3972  2.9025
  196MOL    H8547275   7.482   1.216   0.958 -1.7745 -0.1351  0.7714
  196MOL    C8647276   7.415   1.177   1.537 -0.4237 -0.6286  0.0200
  196MOL    C8747277   7.506   1.055   1.572 -0.0634  0.5012 -0.0250
  196MOL    C8847278   7.651   1.101   1.562 -0.1891 -0.2129 -0.4668
  196MOL    O8947279   7.709   1.165   1.651  0.2054 -0.3935 -0.3103
  196MOL    O9047280   7.708   1.055   1.444 -0.1052 -0.1255 -0.4350
  196MOL    C9147281   7.850   1.063   1.431 -0.5077  0.0425 -0.1556
  196MOL    H9247282   7.456   1.272   1.574 -2.9531 -0.1511  1.7426
  196MOL    H9347283   7.330   1.180   1.605  2.4243 -1.1290  3.7480
  196MOL    H9447284   7.485   0.971   1.506 -3.2069  1.7410 -0.7021
  196MOL    H9547285   7.892   1.037   1.528  0.6536  0.4778 -0.5392
  196MOL    H9647286   7.889   1.160   1.402  0.1780  0.1865  1.2473
  196MOL    H9747287   7.882   0.985   1.362 -0.1094  0.9065 -0.9510
  196MOL    C9847288   7.470   1.007   1.718 -0.7505 -0.2135 -0.1581
  196MOL    C9947289   7.545   0.894   1.783 -0.0787  0.2112 -0.7162
  196MOL   C10047290   7.544   0.766   1.695  0.5378  0.0453 -0.4875
  196MOL   O10147291   7.475   0.667   1.716 -0.2883 -0.0964 -0.0303
  196MOL   O10247292   7.612   0.783   1.579  0.1559 -0.0529 -0.2460
  196MOL   C10347293   7.591   0.695   1.470  0.2423  0.3269  0.2085
  196MOL   H10447294   7.487   1.097   1.778 -0.7330  0.9394 -1.8605
  196MOL   H10547295   7.363   0.988   1.717 -0.6644 -0.6278 -2.2488
  196MOL   H10647296   7.496   0.869   1.877  0.6651  0.1005 -0.3544
  196MOL   H10747297   7.492   0.650   1.461  0.6900 -0.9041  1.2535
  196MOL   H10847298   7.659   0.610   1.475 -0.0884 -0.0135 -1.1595
  196MOL   H10947299   7.624   0.741   1.377  1.8075  0.1583  0.6550
  196MOL   C11047300   7.694   0.926   1.822 -0.1247 -0.0084 -0.8396
  196MOL   C11147301   7.754   0.827   1.926 -0.0422  0.4750  0.0964
  196MOL   C11247302   7.898   0.786   1.868 -0.2236 -0.5254 -0.0774
  196MOL   O11347303   7.932   0.668   1.852  0.6291 -0.6843 -0.2624
  196MOL   O11447304   0.055   0.893   1.857  0.0894  0.0594  0.1948
  196MOL   C11547305   0.183   0.876   1.811 -0.8767 -1.0591  0.0525
  196MOL   H11647306   7.758   0.924   1.735 -0.3790 -0.3247 -1.0201
  196MOL   H11747307   7.709   1.022   1.872  1.4980  0.1791 -1.6594
  196MOL   H11847308   7.696   0.735   1.924  0.9769 -0.1584 -1.4927
  196MOL   H11947309   0.227   0.789   1.861  0.5126 -0.3159  0.1362
  196MOL   H12047310   0.234   0.967   1.840 -0.6064 -1.0071 -0.5844
  196MOL   H12147311   0.182   0.873   1.702  2.3629  0.0877 -0.0728
  196MOL   C12247312   7.748   0.874   2.070  0.6894  0.0477 -0.0422
  196MOL   C12347313   7.605   0.892   2.130  0.5813  0.0179 -0.5612
  196MOL   C12447314   7.547   0.750   2.163 -0.3679 -0.1438 -0.7522
  196MOL   O12547315   7.537   0.713   2.279 -0.4136 -0.0069 -0.1703
  196MOL   O12647316   7.520   0.674   2.059  0.0350 -0.0015 -0.1898
  196MOL   C12747317   7.476   0.540   2.087  0.3128 -0.3316 -0.4972
  196MOL   H12847318   7.807   0.804   2.130 -0.8927 -1.2978 -0.0129
  196MOL   H12947319   7.816   0.959   2.079  0.7991 -0.1636  1.2388
  196MOL   H13047320   7.531   0.936   2.064  0.8206  0.4834 -0.5207
  196MOL   H13147321   7.457   0.499   1.988  3.2332  0.0517 -1.2742
  196MOL   H13247322   7.374   0.537   2.126 -0.1571 -1.2265 -1.7758
  196MOL   H13347323   7.539   0.481   2.154  0.5857  1.3162  0.7280
  196MOL   C13447324   7.623   0.979   2.255 -0.8034 -0.0303  0.6578
  196MOL   C13547325   7.652   1.126   2.235  0.6676  0.4743  0.7200
  196MOL   C13647326   7.545   1.191   2.142  0.3530 -0.1749  0.4383
  196MOL   O13747327   7.573   1.208   2.024 -0.1132 -0.2843  0.1363
  196MOL   O13847328   7.426   1.208   2.196  0.3068  0.2547  0.5407
  196MOL   C13947329   7.317   1.272   2.129  0.7258  0.6981 -0.5262
  196MOL   H14047330   7.527   0.980   2.308 -1.5990  0.0742 -0.7525
  196MOL   H14147331   7.701   0.933   2.314  0.6083 -0.7577 -1.7181
  196MOL   H14247332   7.751   1.125   2.189 -0.2384 -3.7799 -1.4499
  196MOL   H14347333   7.319   1.251   2.022 -0.6298  2.3028 -0.8844
  196MOL   H14447334   7.317   1.380   2.142 -0.1996  0.7407 -0.8531
  196MOL   H14547335   7.225   1.243   2.179  2.1130  2.2395  3.1427
  196MOL   C14647336   7.655   1.197   2.364 -0.1129  0.3773 -0.2029
  196MOL   C14747337   7.666   1.348   2.363 -0.3950 -0.5595  0.0547
  196MOL   C14847338   7.658   1.397   2.518 -0.3382  0.4501 -0.2752
  196MOL   O14947339   7.610   1.323   2.604 -0.3132  0.6732 -0.4113
  196MOL   O15047340   7.717   1.518   2.537  0.0614  0.5448 -0.3210
  196MOL   C15147341   7.720   1.560   2.671  0.0388 -0.1721 -0.3844
  196MOL   H15247342   7.565   1.173   2.422  0.1901  0.8861  0.4929
  196MOL   H15347343   7.735   1.157   2.427  0.7793  3.5096  0.7381
  196MOL   H15447344   7.577   1.390   2.317 -0.9997  0.5125  2.1488
  196MOL   H15547345   7.624   1.597   2.708  1.2927  3.0696 -0.2057
  196MOL   H15647346   7.802   1.631   2.677  0.2892 -0.5858  1.2868
  196MOL   H15747347   7.752   1.476   2.732 -0.7808 -0.8319 -0.8371
  196MOL   C15847348   7.791   1.398   2.285  0.3950  0.0947 -0.6039
  196MOL   C15947349   0.003   1.354   2.328 -0.0942  0.0160  0.2778
  196MOL   C16047350   0.075   1.274   2.211 -0.6337 -0.8371 -0.2969
  196MOL   O16147351   0.123   1.334   2.118 -0.2614  0.0501 -0.0193
  196MOL   O16247352   0.084   1.151   2.242  0.5123 -0.3452 -1.0110
  196MOL   C16347353   0.132   1.062   2.142 -0.2377  0.3190 -0.1881
  196MOL   H16447354   7.778   1.376   2.179 -1.5786  2.3500 -0.8870
  196MOL   H16547355   7.788   1.506   2.300 -3.3960 -0.5331  4.4661
  196MOL   H16647356   7.932   1.282   2.410 -0.1098  1.3987  1.5217
  196MOL   H16747357   0.163   0.967   2.186  0.3381  0.4924 -0.2156
  196MOL   H16847358   0.221   1.094   2.086 -0.0890  0.9898  0.4288
  196MOL   H16947359   0.060   1.045   2.062 -0.7955 -1.6326  0.6947
  196MOL   C17047360   0.090   1.470   2.384 -0.4561  0.2102  0.8112
  196MOL   C17147361   0.224   1.442   2.443  0.4400  0.7898 -0.0494
  196MOL   C17247362   0.341   1.424   2.354  0.2895  0.1834  0.6412
  196MOL   O17347363   0.420   1.328   2.364 -0.5974 -0.2146 -0.8148
  196MOL   O17447364   0.347   1.512   2.261  0.2273 -0.0192 -0.4583
  196MOL   C17547365   0.432   1.485   2.152 -0.1825 -0.8283  0.4876
  196MOL   H17647366   0.106   1.546   2.307  1.1039  0.8781  1.7936
  196MOL   H17747367   0.030   1.516   2.463 -0.5154  0.5224  0.5873
  196MOL   H17847368   0.219   1.349   2.499  0.9692 -0.2422 -1.6962
  196MOL   H17947369   0.412   1.395   2.094  0.0547 -0.5011 -0.1012
  196MOL   H18047370   0.528   1.494   2.202  0.3011  1.7139 -0.8151
  196MOL   H18147371   0.430   1.574   2.089  2.2522 -1.8482 -1.1122
  196MOL   C18247372   0.260   1.553   2.554 -0.2914  0.3473  0.1089
  196MOL   C18347373   0.382   1.518   2.646  0.2950  1.3752 -0.7387
  196MOL   C18447374   0.421   1.643   2.723 -0.1291 -0.1673 -0.1513
  196MOL   O18547375   0.421   1.655   2.845  0.5678 -0.2953 -0.4907
  196MOL   O18647376   0.461   1.734   2.636 -0.0851 -0.3938  0.9418
  196MOL   C18747377   0.536   1.844   2.680 -0.4157 -0.2003  0.4799
  196MOL   H18847378   0.287   1.641   2.496 -1.2323 -0.3825 -1.4550
  196MOL   H18947379   0.172   1.579   2.614  0.0645  1.8714  0.0077
  196MOL   H19047380   0.463   1.476   2.587 -0.1582 -0.4317 -0.0972
  196MOL   H19147381   0.608   1.808   2.753  0.2687 -1.3234 -0.7322
  196MOL   H19247382   0.466   1.912   2.729  1.4839  1.2376  1.2703
  196MOL   H19347383   0.593   1.894   2.601  2.0822 -1.4518  1.4360
  196MOL   C19447384   0.358   1.395   2.748  0.4700  0.5169 -0.7300
  196MOL   C19547385   0.495   1.347   2.807  0.2872 -0.4333 -0.6441
  196MOL   C19647386   0.467   1.256   2.928  0.3348  0.1075  0.0959
  196MOL   O19747387   0.367   1.185   2.942  0.0244  0.8293  0.1292
  196MOL   O19847388   0.569   1.253   3.011 -0.9122  0.5091 -0.8196
  196MOL   C19947389   0.562   1.184   3.135  0.0875  0.1959  0.5351
  196MOL   H20047390   0.296   1.432   2.830  1.6286  0.1629  0.3302
  196MOL   H20147391   0.303   1.310   2.708  0.5041  0.3080 -0.3343
  196MOL   H20247392   0.545   1.438   2.842  0.7391 -0.9458  0.0454
  196MOL   H20347393   0.650   1.216   3.191  0.1791  0.2440  0.3636
  196MOL   H20447394   0.553   1.076   3.131  1.3738  0.1352 -1.2430
  196MOL   H20547395   0.477   1.223   3.192 -1.5636 -2.3052 -0.1484
  196MOL   C20647396   0.584   1.274   2.705 -0.3568 -0.2974  0.4765
  196MOL   C20747397   0.732   1.247   2.750 -0.5129  0.5731  0.4430
  196MOL   C20847398   0.802   1.169   2.638 -0.4565  0.0745  0.5147
  196MOL   O20947399   0.871   1.216   2.549  0.0235 -0.6837  0.3029
  196MOL   O21047400   0.779   1.047   2.654 -0.2056  1.5263 -0.7532
  196MOL   C21147401   0.824   0.954   2.554  0.7238  1.0256  0.0533
  196MOL   H21247402   0.532   1.179   2.693 -1.7150  0.4211  0.6273
  196MOL   H21347403   0.589   1.312   2.603  0.5437 -1.6365 -0.0038
  196MOL   H21447404   0.729   1.187   2.841  0.9679 -0.5925 -0.2473
  196MOL   H21547405   0.865   0.869   2.609 -1.0567  0.7501  1.0075
  196MOL   H21647406   0.905   0.996   2.495 -0.3097  3.5406  0.3501
  196MOL   H21747407   0.739   0.913   2.499 -0.0203 -0.8132  2.4426
  196MOL   C21847408   0.818   1.376   2.791  1.2183  0.1395  0.1711
  196MOL   C21947409   0.947   1.334   2.875  0.6202  0.1816  0.2029
  196MOL   C22047410   1.063   1.427   2.864 -0.2477 -0.3555  0.6918
  196MOL   O22147411   1.050   1.546   2.850  0.1890  0.1973 -0.6496
  196MOL   O22247412   1.181   1.369   2.866 -0.2973  0.0775 -0.6836
  196MOL   C22347413   1.295   1.442   2.833 -0.1144 -0.1050  0.4078
  196MOL   H22447414   0.853   1.416   2.696 -0.2513 -2.8399 -1.7025
  196MOL   H22547415   0.765   1.457   2.840 -0.4419 -1.8732  1.8187
  196MOL   H22647416   0.971   1.243   2.821  0.3294  1.8787 -2.9193
  196MOL   H22747417   1.274   1.539   2.878 -1.9586 -0.7147  0.9312
  196MOL   H22847418   1.296   1.450   2.724 -1.0086 -1.8577  0.2486
  196MOL   H22947419   1.385   1.398   2.875 -0.1361 -2.3935 -1.8054
  196MOL   C23047420   0.928   1.309   3.028  0.0914  0.2089  0.6792
  196MOL   C23147421   0.984   1.177   3.080  0.1870 -0.2078 -0.2481
  196MOL   C23247422   0.907   1.050   3.035 -0.4307  0.1583  0.0821
  196MOL   O23347423   0.800   1.017   3.088 -0.0881 -0.5222  0.3394
  196MOL   O23447424   0.963   0.986   2.923 -0.2512 -0.1266  0.0856
  196MOL   C23547425   0.901   0.870   2.876 -0.2075  0.2650  0.1451
  196MOL   H23647426   0.975   1.389   3.086  0.8693  2.2156 -2.5718
  196MOL   H23747427   0.823   1.309   3.059 -0.2945  1.2267 -0.6085
  196MOL   H23847428   0.975   1.172   3.189 -0.7781  1.4209 -0.2399
  196MOL   H23947429   0.885   0.787   2.944 -1.6171 -0.3360 -0.8834
  196MOL   H24047430   0.953   0.827   2.790  0.4502 -0.4704  0.8991
  196MOL   H24147431   0.804   0.907   2.844 -0.6429 -0.2482  0.8831
  196MOL   H24247432   1.092   1.181   3.068  0.0974 -1.0823 -1.4401
  197MOL     C147433   6.861   6.697   5.068  1.0097 -0.4356  0.2728
  197MOL     C247434   6.731   6.765   5.116 -0.3792  0.5953  0.0346
  197MOL     C347435   6.690   6.717   5.254 -0.0134 -0.0524 -0.4151
  197MOL     O447436   6.581   6.656   5.260  0.1323  0.8198  0.8109
  197MOL     O547437   6.773   6.751   5.356 -0.3901  0.2056 -0.1174
  197MOL     C647438   6.744   6.714   5.485  0.5812  0.2564  0.4394
  197MOL     H747439   6.949   6.717   5.129  1.0785  2.5503 -0.7323
  197MOL     H847440   6.894   6.726   4.968  0.8502  1.3172  0.7109
  197MOL     H947441   6.659   6.733   5.041  0.2116 -0.6802  0.0025
  197MOL    H1047442   6.735   6.606   5.498  3.2798 -0.2791 -1.7843
  197MOL    H1147443   6.654   6.763   5.525  0.1173 -0.8912  0.8180
  197MOL    H1247444   6.836   6.734   5.539  0.4639 -1.1441  1.1619
  197MOL    H1347445   6.842   6.590   5.066 -2.5507  0.1463 -1.1898
  197MOL    C1447446   6.736   6.917   5.094 -0.7482 -0.3442 -0.3336
  197MOL    C1547447   6.602   6.985   5.094 -0.4617  0.3590  0.5285
  197MOL    C1647448   6.602   7.132   5.135  0.5343  0.9845 -0.0809
  197MOL    O1747449   6.522   7.172   5.220 -0.0969  0.3771  0.5280
  197MOL    O1847450   6.698   7.209   5.069  0.2510  0.4527 -0.7286
  197MOL    C1947451   6.704   7.346   5.090  0.1978 -0.6503 -1.0471
  197MOL    H2047452   6.798   6.957   5.174 -0.1800 -0.5164 -0.6786
  197MOL    H2147453   6.787   6.936   4.999 -1.9216 -1.5760 -1.2313
  197MOL    H2247454   6.547   6.943   5.178 -1.9366 -0.4473 -0.8238
  197MOL    H2347455   6.795   7.366   5.146  0.5205  1.3706 -2.2341
  197MOL    H2447456   6.617   7.382   5.145 -0.7982 -2.4199 -1.4247
  197MOL    H2547457   6.736   7.406   5.004 -0.4888  2.0620  0.5373
  197MOL    C2647458   6.516   6.969   4.966 -0.1456 -0.7263 -0.3433
  197MOL    C2747459   6.360   6.982   4.984  0.0729  0.8138 -0.5849
  197MOL    C2847460   6.296   7.012   4.847 -0.6538  0.0784  0.3536
  197MOL    O2947461   6.223   7.107   4.828  0.3047  0.4264  0.6728
  197MOL    O3047462   6.332   6.926   4.754 -0.6070  0.5378  0.1871
  197MOL    C3147463   6.262   6.924   4.629  0.3572 -0.0718 -0.2510
  197MOL    H3247464   6.535   7.050   4.895 -1.2792  0.6843  0.9003
  197MOL    H3347465   6.547   6.876   4.920 -2.0310 -0.9597 -1.2101
  197MOL    H3447466   6.337   7.073   5.039  1.5817  1.9938 -1.8682
  197MOL    H3547467   6.162   6.967   4.632 -0.0323 -0.9259 -0.9144
  197MOL    H3647468   6.273   6.829   4.576  0.2909 -0.0103 -0.3762
  197MOL    H3747469   6.311   6.984   4.552 -0.5505  1.8456  0.6280
  197MOL    C3847470   6.305   6.859   5.045 -0.3226  0.6235  0.3911
  197MOL    C3947471   6.197   6.856   5.158 -0.1306  0.1549  1.1027
  197MOL    C4047472   6.248   6.864   5.301  0.2227 -0.3642  0.5012
  197MOL    O4147473   6.198   6.792   5.390 -0.0418 -0.3872  0.4796
  197MOL    O4247474   6.347   6.957   5.323 -0.1209 -0.2914 -0.2478
  197MOL    C4347475   6.407   6.974   5.451 -0.1696  0.1791 -0.2634
  197MOL    H4447476   6.278   6.794   4.962  0.6196  2.4371 -1.3786
  197MOL    H4547477   6.380   6.802   5.100 -0.1151 -0.3462 -0.8598
  197MOL    H4647478   6.137   6.765   5.157 -2.1373  1.4266  1.9648
  197MOL    H4747479   6.486   6.904   5.478 -0.1233  0.0534 -0.7344
  197MOL    H4847480   6.323   6.956   5.519 -0.4472 -0.0081 -0.6482
  197MOL    H4947481   6.438   7.078   5.456  2.0809 -0.5533  2.2475
  197MOL    C5047482   6.094   6.968   5.144  1.0057 -1.1494 -0.2806
  197MOL    C5147483   5.951   6.935   5.196 -0.3408  0.1969 -0.1349
  197MOL    C5247484   5.914   7.047   5.303  0.4519 -0.6917  0.1723
  197MOL    O5347485   5.941   7.017   5.418 -0.4529 -0.8083  0.2738
  197MOL    O5447486   5.847   7.157   5.264 -0.4539 -0.5425 -0.1960
  197MOL    C5547487   5.822   7.249   5.369  0.5238 -0.0496  0.7140
  197MOL    H5647488   6.134   7.059   5.188 -1.2490 -0.6554  0.8199
  197MOL    H5747489   6.094   6.999   5.040  2.0751 -0.4185 -0.0746
  197MOL    H5847490   5.955   6.851   5.265  0.3817  2.0697  2.1800
  197MOL    H5947491   5.790   7.343   5.325  1.2987  0.2770  0.8480
  197MOL    H6047492   5.908   7.271   5.432  0.7039 -0.4676  0.6157
  197MOL    H6147493   5.739   7.212   5.429 -2.3988  2.3997 -1.6540
  197MOL    C6247494   5.862   6.906   5.075 -0.1061 -0.1125  0.9562
  197MOL    C6347495   5.908   6.783   4.988 -0.4777 -0.7273  0.3327
  197MOL    C6447496   5.877   6.649   5.057 -0.2689  0.5131  0.5059
  197MOL    O6547497   5.784   6.628   5.133  0.7026 -0.2600  0.3125
  197MOL    O6647498   5.970   6.562   5.024 -0.3066 -0.4225  0.2896
  197MOL    C6747499   5.954   6.418   5.044 -0.2700 -0.6610 -0.3749
  197MOL    H6847500   5.758   6.893   5.103 -0.6735  0.3009 -0.8983
  197MOL    H6947501   5.870   6.998   5.018  1.4843  0.7250  2.4934
  197MOL    H7047502   6.014   6.799   4.964 -0.5797  0.8942  0.8662
  197MOL    H7147503   5.984   6.402   5.148  1.1867 -0.4374 -0.7458
  197MOL    H7247504   6.021   6.376   4.969  0.9038  2.2888 -1.0702
  197MOL    H7347505   5.858   6.371   5.023  0.6185 -1.9317 -1.6071
  197MOL    C7447506   5.851   6.781   4.839  0.1027  0.4486  0.4519
  197MOL    C7547507   5.883   6.661   4.752 -0.4937  0.4806  0.8479
  197MOL    C7647508   5.784   6.642   4.635 -0.0694  0.9854 -0.6351
  197MOL    O7747509   5.714   6.542   4.632 -0.6476 -0.8302  0.0915
  197MOL    O7847510   5.783   6.743   4.548  0.3617 -0.1457  0.1852
  197MOL    C7947511   5.705   6.761   4.435  0.5255  0.2606  0.8118
  197MOL    H8047512   5.743   6.797   4.840  0.1958  1.1358 -0.1733
  197MOL    H8147513   5.885   6.869   4.784  3.0241 -0.1931  1.1324
  197MOL    H8247514   5.879   6.563   4.801 -3.2148  0.6448  1.0439
  197MOL    H8347515   5.597   6.752   4.450  0.0330 -2.5044 -3.2706
  197MOL    H8447516   5.731   6.680   4.366 -2.7654 -0.6317  0.4995
  197MOL    H8547517   5.715   6.858   4.386 -0.5478  0.3846  0.8343
  197MOL    C8647518   6.036   6.650   4.706  0.3014  0.6987 -0.5339
  197MOL    C8747519   6.081   6.507   4.688 -0.6672  0.2234  0.9495
  197MOL    C8847520   6.034   6.451   4.553  0.1657  0.1393  0.0009
  197MOL    O8947521   6.049   6.505   4.447  0.0216 -0.1962  0.4820
  197MOL    O9047522   5.966   6.338   4.567  0.3966  0.0542  0.2401
  197MOL    C9147523   5.910   6.276   4.455 -0.1690  0.7608  0.2809
  197MOL    H9247524   6.045   6.710   4.615  1.2955  1.4567  0.0548
  197MOL    H9347525   6.094   6.693   4.787 -1.3521  0.2959  0.9031
  197MOL    H9447526   6.053   6.449   4.776  2.7747 -0.6003  1.5963
  197MOL    H9547527   5.888   6.174   4.486  2.4478  0.1166  0.1290
  197MOL    H9647528   5.991   6.282   4.382  0.2196 -1.6458  0.4733
  197MOL    H9747529   5.817   6.323   4.424 -1.1462 -2.2718 -1.7266
  197MOL    C9847530   6.234   6.506   4.702  0.5044 -0.6772 -0.4285
  197MOL    C9947531   6.300   6.375   4.646  0.0845  0.0083  0.2239
  197MOL   C10047532   6.454   6.402   4.637 -0.4300  0.1506  0.7814
  197MOL   O10147533   6.502   6.489   4.702  0.2514 -0.4139  0.8374
  197MOL   O10247534   6.522   6.321   4.553 -0.4531 -0.2321  0.2791
  197MOL   C10347535   6.658   6.346   4.538  0.0735  0.4410 -0.2956
  197MOL   H10447536   6.265   6.600   4.657 -0.6190  1.0358  2.2738
  197MOL   H10547537   6.261   6.522   4.806 -1.5473  1.2890 -0.1411
  197MOL   H10647538   6.268   6.358   4.543  1.3255  1.2338 -0.3864
  197MOL   H10747539   6.682   6.449   4.512 -1.7162  1.3399  1.4874
  197MOL   H10847540   6.704   6.277   4.468 -3.4701  0.4090 -2.7300
  197MOL   H10947541   6.706   6.327   4.634 -0.1107  1.3754 -0.0093
  197MOL   C11047542   6.255   6.261   4.747 -0.3625  0.4203  0.0483
  197MOL   C11147543   6.282   6.113   4.693  0.9418 -0.3605 -0.0424
  197MOL   C11247544   6.290   6.019   4.815 -0.3755 -0.2933  0.0557
  197MOL   O11347545   6.372   5.933   4.827  0.4169 -0.0694  0.0732
  197MOL   O11447546   6.199   6.046   4.907  0.1357  0.3695  0.3135
  197MOL   C11547547   6.185   5.956   5.015 -0.6589 -0.2796  0.5840
  197MOL   H11647548   6.314   6.276   4.837  2.1777 -2.2297 -1.0819
  197MOL   H11747549   6.152   6.261   4.781 -0.0055  0.7178  1.1417
  197MOL   H11847550   6.385   6.125   4.662  0.3703  1.9637 -1.1513
  197MOL   H11947551   6.276   5.929   5.070 -0.2092  2.8953  1.5097
  197MOL   H12047552   6.147   5.863   4.974  1.3476 -0.7151 -0.3725
  197MOL   H12147553   6.106   5.995   5.079 -1.0690 -0.0162 -0.0824
  197MOL   C12247554   6.194   6.070   4.574  0.7160  0.3085 -0.1184
  197MOL   C12347555   6.184   5.913   4.557  0.9794 -1.0306 -0.1878
  197MOL   C12447556   6.057   5.867   4.481  0.6067  0.6598 -0.5999
  197MOL   O12547557   5.986   5.775   4.523  0.1664  0.2616 -1.0469
  197MOL   O12647558   6.030   5.943   4.379 -0.0954  1.1708  0.1148
  197MOL   C12747559   5.934   5.902   4.294  0.0051  0.5946  0.1818
  197MOL   H12847560   6.096   6.109   4.601  0.2121  0.4683 -2.1209
  197MOL   H12947561   6.237   6.106   4.481  0.0248  2.1182  0.2549
  197MOL   H13047562   6.157   5.872   4.655  0.8244  0.0531  0.2244
  197MOL   H13147563   5.965   5.851   4.203 -1.2660  0.2445 -0.0628
  197MOL   H13247564   5.872   5.990   4.279 -0.7498  0.0586  0.1342
  197MOL   H13347565   5.858   5.838   4.340 -0.2057  2.3979  2.4412
  197MOL   C13447566   6.313   5.842   4.525 -0.6476  0.5734 -0.6725
  197MOL   C13547567   6.360   5.845   4.382 -0.2123  0.2019  0.3132
  197MOL   C13647568   6.510   5.854   4.348 -0.5264 -0.2979 -0.5318
  197MOL   O13747569   6.571   5.956   4.303 -0.1367 -0.2549  0.0088
  197MOL   O13847570   6.572   5.741   4.396 -0.2668  0.1634  0.1564
  197MOL   C13947571   6.717   5.729   4.398  0.8828 -0.4022  0.8352
  197MOL   H14047572   6.401   5.882   4.575 -0.1677  0.0596 -1.1028
  197MOL   H14147573   6.296   5.738   4.554 -0.8392  0.4842 -1.1060
  197MOL   H14247574   6.317   5.937   4.342 -2.7376 -0.4642  1.3910
  197MOL   H14347575   6.748   5.625   4.400 -0.6602 -0.8842  0.5437
  197MOL   H14447576   6.755   5.778   4.487 -0.2679 -0.1681  1.2052
  197MOL   H14547577   6.758   5.768   4.304  0.5556 -0.3356  0.7180
  197MOL   C14647578   6.299   5.731   4.297  0.1536 -0.5812  0.3406
  197MOL   C14747579   6.302   5.591   4.347 -0.3128  0.0613  0.2781
  197MOL   C14847580   6.169   5.537   4.397 -0.1224 -0.7276 -0.0782
  197MOL   O14947581   6.175   5.470   4.499 -0.4236 -1.0743 -0.9368
  197MOL   O15047582   6.065   5.554   4.308 -0.3700  0.0636 -0.0278
  197MOL   C15147583   5.949   5.487   4.339  0.0588 -0.2837  0.1003
  197MOL   H15247584   6.200   5.767   4.268  1.2508  1.9041 -0.4140
  197MOL   H15347585   6.329   5.733   4.193  0.0838  1.2542  0.3395
  197MOL   H15447586   6.360   5.596   4.440  0.3749  0.0294 -0.1449
  197MOL   H15547587   5.913   5.491   4.442 -0.2443 -4.2368  0.2504
  197MOL   H15647588   5.960   5.381   4.315 -0.0030 -0.5419  1.1684
  197MOL   H15747589   5.888   5.543   4.269  0.8155  0.7017  0.2135
  197MOL   C15847590   6.364   5.496   4.245 -0.2527 -0.5172 -0.1515
  197MOL   C15947591   6.376   5.350   4.292  0.4968 -0.1531 -0.6594
  197MOL   C16047592   6.275   5.255   4.224 -0.0393 -0.4772 -0.1365
  197MOL   O16147593   6.162   5.225   4.271 -0.2999 -0.2251  0.1297
  197MOL   O16247594   6.314   5.219   4.110 -0.2286 -1.1528 -0.0287
  197MOL   C16347595   6.226   5.160   4.011 -0.0710 -0.4480 -0.1467
  197MOL   H16447596   6.319   5.510   4.147 -0.1686 -0.3666 -0.1689
  197MOL   H16547597   6.465   5.520   4.213  0.3865 -1.4943  1.0659
  197MOL   H16647598   6.348   5.338   4.397 -0.4730 -0.6992 -0.9733
  197MOL   H16747599   6.134   5.218   4.004  0.0871 -0.1168  0.4924
  197MOL   H16847600   6.185   5.063   4.039 -0.3460 -0.9707 -2.2312
  197MOL   H16947601   6.262   5.167   3.908 -0.1745  1.6647 -0.0697
  197MOL   C17047602   6.515   5.286   4.296  0.4199 -0.0444 -0.2149
  197MOL   C17147603   6.622   5.350   4.393  0.9597  0.2302 -0.2821
  197MOL   C17247604   6.565   5.346   4.536  0.6387  0.4882 -0.1824
  197MOL   O17347605   6.523   5.445   4.594  0.1706 -0.0066 -0.4337
  197MOL   O17447606   6.566   5.217   4.587 -0.1802 -0.3096 -0.4254
  197MOL   C17547607   6.538   5.199   4.727  0.2064  0.5488  0.4197
  197MOL   H17647608   6.491   5.186   4.331  2.4587 -0.5996 -0.3813
  197MOL   H17747609   6.558   5.275   4.196  3.9726 -0.7644  1.3191
  197MOL   H17847610   6.632   5.457   4.371 -1.7994  0.8870  1.3496
  197MOL   H17947611   6.432   5.221   4.740 -0.1699 -0.6499 -0.5640
  197MOL   H18047612   6.595   5.264   4.794 -1.6012  1.0839  1.4606
  197MOL   H18147613   6.550   5.093   4.750 -0.2636  1.2091  4.0236
  197MOL   C18247614   6.757   5.277   4.382  0.0158 -0.2503  0.0144
  197MOL   C18347615   6.871   5.303   4.483 -0.5709  0.0275 -0.2310
  197MOL   C18447616   6.971   5.184   4.467  0.5598  0.4462  0.0789
  197MOL   O18547617   6.977   5.100   4.557  0.0724  0.3490 -0.4287
  197MOL   O18647618   7.051   5.186   4.359  0.4716 -0.3364  0.3176
  197MOL   C18747619   7.128   5.071   4.322  0.1690 -0.4738 -0.6141
  197MOL   H18847620   6.726   5.173   4.392 -1.7103  0.4742  2.6258
  197MOL   H18947621   6.785   5.282   4.276  0.6299 -0.0381  0.1826
  197MOL   H19047622   6.818   5.288   4.577 -4.6144  0.7250 -2.2852
  197MOL   H19147623   7.070   4.979   4.315 -1.7565  0.7632 -1.4501
  197MOL   H19247624   7.203   5.055   4.399 -1.0330 -1.7655  0.3273
  197MOL   H19347625   7.178   5.072   4.225 -0.1404  2.5034 -0.7806
  197MOL   C19447626   6.936   5.442   4.475  0.0877  0.1474  0.7058
  197MOL   C19547627   7.077   5.459   4.552  0.4014 -0.0550  0.4497
  197MOL   C19647628   7.099   5.611   4.557  0.0569 -0.6666 -0.1022
  197MOL   O19747629   7.092   5.669   4.664 -0.4964  1.0853 -0.1093
  197MOL   O19847630   7.120   5.673   4.442 -0.3322 -0.0957 -0.1259
  197MOL   C19947631   7.134   5.813   4.439 -0.2015 -0.0309  0.0615
  197MOL   H20047632   6.936   5.467   4.369  1.0430  2.1168  1.1446
  197MOL   H20147633   6.865   5.507   4.526  0.0585 -0.4282  1.4168
  197MOL   H20247634   7.166   5.443   4.490 -0.0884  0.4891 -0.3991
  197MOL   H20347635   7.086   5.852   4.350 -0.1695 -0.6620 -0.2366
  197MOL   H20447636   7.240   5.837   4.441 -0.0515 -0.6620 -0.1152
  197MOL   H20547637   7.094   5.862   4.528 -0.6586  0.0307 -0.1763
  197MOL   C20647638   7.091   5.398   4.694  0.2851  0.5371 -0.4364
  197MOL   C20747639   7.232   5.395   4.754 -0.0142 -0.1195 -0.0983
  197MOL   C20847640   7.227   5.368   4.907 -0.2098 -0.2271  0.7359
  197MOL   O20947641   7.264   5.451   4.986 -0.1442  0.3686 -0.0327
  197MOL   O21047642   7.174   5.248   4.942  0.0158 -0.0526 -0.2131
  197MOL   C21147643   7.157   5.219   5.081  0.1606  0.1074  0.7847
  197MOL   H21247644   7.029   5.456   4.763  1.0388 -1.3536  1.8640
  197MOL   H21347645   7.037   5.304   4.691  0.2337  0.5165  0.8350
  197MOL   H21447646   7.273   5.496   4.743  0.9925 -0.4169  0.8072
  197MOL   H21547647   7.146   5.111   5.079  0.5368  0.0458  2.0197
  197MOL   H21647648   7.071   5.268   5.126 -0.3008  2.2887 -2.3083
  197MOL   H21747649   7.240   5.238   5.149 -1.0429 -1.1640  2.6237
  197MOL   C21847650   7.317   5.282   4.689 -0.0188 -0.1583  0.6635
  197MOL   C21947651   7.459   5.331   4.653  1.0030  0.1475 -0.0404
  197MOL   C22047652   7.526   5.355   4.786  0.7671  0.5668 -0.6153
  197MOL   O22147653   7.555   5.472   4.816  0.2579 -0.2408 -0.1795
  197MOL   O22247654   7.553   5.251   4.856 -0.4197 -0.3280 -0.3640
  197MOL   C22347655   7.615   5.255   4.988 -0.9907 -0.9373  0.1269
  197MOL   H22447656   7.336   5.193   4.750  1.8800  0.8135  1.5346
  197MOL   H22547657   7.256   5.236   4.611  1.3381 -0.0581 -0.4767
  197MOL   H22647658   7.457   5.420   4.591  1.5152  1.0769  1.2553
  197MOL   H22747659   7.633   5.152   5.018  1.3844  0.0713  2.4439
  197MOL   H22847660   7.539   5.302   5.051  1.7463  1.0470  2.0815
  197MOL   H22947661   7.709   5.311   4.990 -0.8865 -1.1034 -0.0871
  197MOL   C23047662   7.539   5.225   4.576 -0.2572 -0.1723  0.1670
  197MOL   C23147663   7.491   5.195   4.432  0.5198 -0.5620  0.1679
  197MOL   C23247664   7.530   5.055   4.392  0.6494  0.9575  0.1986
  197MOL   O23347665   7.453   4.957   4.398 -0.2209 -0.3780 -0.3067
  197MOL   O23447666   7.659   5.038   4.364 -0.1315 -0.7743 -0.1728
  197MOL   C23547667   7.710   4.929   4.292  0.0608  0.1522  0.2315
  197MOL   H23647668   7.644   5.255   4.578 -0.9475  2.4396 -0.0764
  197MOL   H23747669   7.539   5.131   4.630 -1.4789  0.4178  1.2317
  197MOL   H23847670   7.526   5.276   4.368  1.8874 -0.7899  0.6029
  197MOL   H23947671   7.818   4.945   4.292  0.1281  0.1372  3.7588
  197MOL   H24047672   7.670   4.933   4.191  1.5968 -0.1594 -0.4007
  197MOL   H24147673   7.672   4.836   4.335 -1.4767  1.8246  2.6760
  197MOL   H24247674   7.382   5.187   4.435  0.5336 -0.6719  0.3404
  198MOL     C147675   2.169   4.737   0.414  0.1184  0.2414  0.8594
  198MOL     C247676   2.113   4.878   0.379 -0.8375  0.3302 -0.0355
  198MOL     C347677   2.035   4.940   0.496 -0.1465 -0.3045  0.0378
  198MOL     O447678   1.914   4.935   0.497 -0.3335  0.4993  0.0426
  198MOL     O547679   2.114   5.015   0.570 -0.1008  0.0236 -0.0281
  198MOL     C647680   2.060   5.097   0.672  0.1919  0.1052 -0.9513
  198MOL     H747681   2.251   4.711   0.347 -0.6908 -0.1699  0.0089
  198MOL     H847682   2.100   4.652   0.420 -1.6277  1.4981 -0.6707
  198MOL     H947683   2.042   4.862   0.298 -0.6131  0.1586 -0.1961
  198MOL    H1047684   1.988   5.171   0.638  0.3535  1.1079  0.8350
  198MOL    H1147685   2.146   5.144   0.720  1.4278 -2.3835 -0.6332
  198MOL    H1247686   2.010   5.033   0.744  0.1760  1.1007 -0.0727
  198MOL    H1347687   2.214   4.745   0.512  0.4700  0.7572  0.6550
  198MOL    C1447688   2.233   4.969   0.331  0.4208 -0.2688 -0.1275
  198MOL    C1547689   2.301   4.934   0.195 -0.4234  0.0058 -0.3340
  198MOL    C1647690   2.204   4.947   0.080 -0.6863 -0.3156 -0.0512
  198MOL    O1747691   2.203   5.047   0.009  0.2484 -0.2849  0.0837
  198MOL    O1847692   2.126   4.842   0.061  0.0859  0.1997  0.0004
  198MOL    C1947693   2.055   4.840   7.874  0.1935  0.4069  0.0335
  198MOL    H2047694   2.186   5.066   0.313 -0.1299 -0.6915 -0.9599
  198MOL    H2147695   2.309   4.976   0.410 -1.9393  2.9383  1.9643
  198MOL    H2247696   2.326   4.828   0.199  0.1004 -0.0324 -3.2086
  198MOL    H2347697   1.957   4.886   7.885  1.0192  1.2761  4.3658
  198MOL    H2447698   2.053   4.737   7.837  0.1795  0.6354 -0.6133
  198MOL    H2547699   2.094   4.907   7.798 -0.1563  2.0600  1.2722
  198MOL    C2647700   2.436   5.019   0.173 -0.1771  0.5374  0.5467
  198MOL    C2747701   2.516   4.984   0.048  0.7844  0.2937 -0.0506
  198MOL    C2847702   2.582   5.112   7.930 -0.0904 -0.3806 -0.8782
  198MOL    O2947703   2.572   5.222   0.053  0.3129  0.3985  0.4102
  198MOL    O3047704   2.653   5.098   7.815 -0.0516 -0.0397  0.4848
  198MOL    C3147705   2.729   5.199   7.761 -0.1244 -0.2985  0.3346
  198MOL    H3247706   2.392   5.118   0.162  0.3083  0.4061 -2.9613
  198MOL    H3347707   2.506   5.028   0.256  0.8843 -3.0720  0.1024
  198MOL    H3447708   2.439   4.958   7.909  0.6183 -0.9074  0.5525
  198MOL    H3547709   2.765   5.259   7.844 -0.4416 -1.5110  1.3610
  198MOL    H3647710   2.674   5.261   7.690 -1.5221 -0.2029  1.4895
  198MOL    H3747711   2.818   5.157   7.715  0.2582  0.4666  0.3769
  198MOL    C3847712   2.606   4.858   0.066  0.2443  0.3349  0.0901
  198MOL    C3947713   2.594   4.732   7.908  0.1988  0.3689  0.4290
  198MOL    C4047714   2.460   4.658   7.923 -0.7699  0.1496  0.0721
  198MOL    O4147715   2.389   4.645   7.826  0.4661  0.2791 -0.2830
  198MOL    O4247716   2.432   4.611   0.110  0.0844 -0.6042 -0.4843
  198MOL    C4347717   2.324   4.526   0.140 -0.2627  0.0144 -0.5200
  198MOL    H4447718   2.712   4.885   0.064  0.2939  0.1905  0.5893
  198MOL    H4547719   2.600   4.826   0.170 -0.8084  1.1037  0.2696
  198MOL    H4647720   2.667   4.665   0.020  0.1257 -0.8745 -1.2806
  198MOL    H4747721   2.239   4.549   0.076 -0.6560 -0.7763 -0.2922
  198MOL    H4847722   2.294   4.548   0.242  1.3281  2.5845 -0.5548
  198MOL    H4947723   2.353   4.421   0.138 -1.8826 -0.4327 -1.4519
  198MOL    C5047724   2.634   4.765   7.765 -0.7607  0.3583  0.5151
  198MOL    C5147725   2.788   4.782   7.737  0.0100 -0.2470  0.5707
  198MOL    C5247726   2.859   4.651   7.754 -0.1145  0.2741 -0.4787
  198MOL    O5347727   2.803   4.549   7.704  0.3997 -0.5912 -0.4457
  198MOL    O5447728   2.976   4.674   7.815 -0.1528 -0.4165 -0.4518
  198MOL    C5547729   3.052   4.559   7.852  0.3339 -0.5242  0.6162
  198MOL    H5647730   2.599   4.684   7.702  0.5720  0.2961 -0.1811
  198MOL    H5747731   2.573   4.845   7.724 -1.0056 -0.1044 -0.0336
  198MOL    H5847732   2.821   4.856   7.810 -1.5232  1.4417 -0.4167
  198MOL    H5947733   3.049   4.487   7.770 -0.4346  0.8172 -0.5485
  198MOL    H6047734   3.017   4.514   0.012  0.6233 -1.5718  0.2198
  198MOL    H6147735   3.155   4.592   7.865  0.5317 -1.5102  1.6755
  198MOL    C6247736   2.807   4.836   7.591  0.4611  0.8921  0.1499
  198MOL    C6347737   2.952   4.838   7.536  0.5337  0.7434 -0.7403
  198MOL    C6447738   2.983   4.732   7.428  0.4892 -0.1489  0.0484
  198MOL    O6547739   3.082   4.660   7.440  0.0498  0.5466 -0.4376
  198MOL    O6647740   2.892   4.726   7.331 -0.2471  0.0727 -0.0827
  198MOL    C6747741   2.910   4.637   7.226 -0.0978  0.0422 -0.1574
  198MOL    H6847742   2.743   4.794   7.513  0.4207  0.9836  0.1330
  198MOL    H6947743   2.770   4.938   7.600  0.8121  0.9222  1.2957
  198MOL    H7047744   3.024   4.821   7.616  0.3187 -2.5433 -1.1937
  198MOL    H7147745   2.880   4.534   7.244  0.2455  0.4034  2.6019
  198MOL    H7247746   3.015   4.626   7.201  0.0860  0.1341  0.5911
  198MOL    H7347747   2.845   4.659   7.141 -2.7428 -0.6921  1.6216
  198MOL    C7447748   2.979   4.985   7.486  0.8249 -0.1372  0.0005
  198MOL    C7547749   3.128   5.035   7.485  0.9812 -0.5111  0.3866
  198MOL    C7647750   3.138   5.162   7.403 -0.3624  0.0210  0.5416
  198MOL    O7747751   3.037   5.227   7.373  0.4047 -0.0635 -0.0036
  198MOL    O7847752   3.261   5.185   7.365 -0.7240  0.1801 -0.3515
  198MOL    C7947753   3.297   5.299   7.279 -0.6969  0.6219 -0.1865
  198MOL    H8047754   2.940   4.997   7.385 -0.0158  0.6199  0.4011
  198MOL    H8147755   2.918   5.058   7.540  0.4953 -1.7800  1.9321
  198MOL    H8247756   3.170   4.957   7.421 -0.2416 -2.1878  1.5748
  198MOL    H8347757   3.214   5.369   7.276 -1.1096  0.1426 -0.1613
  198MOL    H8447758   3.333   5.282   7.178  1.7248  0.0497  0.7207
  198MOL    H8547759   3.374   5.345   7.341 -1.4491  0.0028  1.2459
  198MOL    C8647760   3.191   5.043   7.625 -0.2406  0.6215 -0.7536
  198MOL    C8747761   3.326   4.969   7.619  0.3887 -0.0383 -0.2117
  198MOL    C8847762   3.446   5.034   7.544  0.3462  0.4791 -1.2323
  198MOL    O8947763   3.482   4.986   7.436 -0.1332  0.5478  0.4169
  198MOL    O9047764   3.502   5.131   7.620  0.3866 -0.4955 -0.0141
  198MOL    C9147765   3.623   5.183   7.578 -0.7842 -0.3402 -0.2678
  198MOL    H9247766   3.200   5.149   7.650 -1.4146  0.5539  0.0033
  198MOL    H9347767   3.128   5.004   7.705  1.1574 -1.1978 -0.5145
  198MOL    H9447768   3.309   4.882   7.555 -0.6994 -0.9535  1.2809
  198MOL    H9547769   3.636   5.279   7.629 -0.0039  0.4390 -1.9048
  198MOL    H9647770   3.631   5.202   7.471 -2.5808 -2.4803 -0.8397
  198MOL    H9747771   3.697   5.110   7.609 -0.5301 -0.3626 -0.9415
  198MOL    C9847772   3.366   4.920   7.758 -0.1084  0.3289  0.4316
  198MOL    C9947773   3.479   4.807   7.756 -0.6471 -0.2085 -0.2414
  198MOL   C10047774   3.559   4.795   7.885 -0.5830 -0.1867  0.3369
  198MOL   O10147775   3.500   4.784   0.059 -0.6913 -0.5144  0.4510
  198MOL   O10247776   3.700   4.805   7.861  0.0070 -0.5431 -0.5218
  198MOL   C10347777   3.774   4.793   0.040 -0.4484 -0.3214  0.5329
  198MOL   H10447778   3.415   5.005   7.805 -0.3548  0.5016  0.3758
  198MOL   H10547779   3.282   4.891   7.821 -0.6620  2.1960  0.5637
  198MOL   H10647780   3.551   4.824   7.676 -0.6645  1.9333  0.1477
  198MOL   H10747781   3.882   4.799   0.022 -0.3337 -0.9080  1.0336
  198MOL   H10847782   3.750   4.707   0.102  1.7643 -0.6593  0.9699
  198MOL   H10947783   3.751   4.886   0.092 -0.0444  2.2660 -3.6696
  198MOL   C11047784   3.411   4.682   7.721 -0.4195 -0.1947 -0.6111
  198MOL   C11147785   3.489   4.586   7.637  0.0832 -0.9349  0.9304
  198MOL   C11247786   3.452   4.437   7.665  0.5764  0.0881 -0.4159
  198MOL   O11347787   3.335   4.401   7.677 -0.4556 -0.4867  0.3147
  198MOL   O11447788   3.552   4.348   7.647 -0.1051 -0.0799  0.0754
  198MOL   C11547789   3.537   4.207   7.673  0.7276  0.0463  1.0697
  198MOL   H11647790   3.382   4.628   7.811  1.6978  0.2251  0.3463
  198MOL   H11747791   3.309   4.704   7.689  0.9015  2.6936 -3.1198
  198MOL   H11847792   3.593   4.574   7.667  0.2132 -0.5037  0.6551
  198MOL   H11947793   3.621   4.151   7.631 -0.7437 -0.4188 -1.3213
  198MOL   H12047794   3.445   4.164   7.634  0.8688 -0.1148  0.9095
  198MOL   H12147795   3.519   4.197   7.780  0.9422 -2.2541  0.9220
  198MOL   C12247796   3.476   4.617   7.484  0.3372 -0.3017  0.3229
  198MOL   C12347797   3.599   4.670   7.408 -0.3200 -1.0438  0.3360
  198MOL   C12447798   3.727   4.595   7.431 -0.3241 -0.5423 -1.2677
  198MOL   O12547799   3.832   4.645   7.471 -0.1655  0.1195 -0.5060
  198MOL   O12647800   3.718   4.466   7.393  0.1075 -0.2412 -0.2099
  198MOL   C12747801   3.837   4.391   7.382 -0.0866  0.1680 -0.4718
  198MOL   H12847802   3.426   4.534   7.434  1.4158 -2.1486  2.2334
  198MOL   H12947803   3.408   4.701   7.469  2.2218  1.4860  1.6428
  198MOL   H13047804   3.610   4.772   7.446 -1.3734 -0.5278 -0.6997
  198MOL   H13147805   3.916   4.440   7.326  0.2460  0.2711  0.0882
  198MOL   H13247806   3.812   4.301   7.326 -0.7679 -0.1042  0.2496
  198MOL   H13347807   3.874   4.366   7.481 -0.4652 -0.4754 -0.4870
  198MOL   C13447808   3.572   4.687   7.253 -1.1462  0.8139 -0.3800
  198MOL   C13547809   3.654   4.814   7.207 -0.2105 -0.5956  0.1284
  198MOL   C13647810   3.799   4.772   7.162  0.2173 -0.0934 -0.2529
  198MOL   O13747811   3.823   4.728   7.047  0.1368  0.2415  0.1967
  198MOL   O13847812   3.886   4.812   7.250  0.4868  0.5148 -0.0892
  198MOL   C13947813   4.021   4.784   7.211 -0.4077 -0.3470  0.2120
  198MOL   H14047814   3.602   4.598   7.197  0.1697  0.6696  0.5209
  198MOL   H14147815   3.464   4.690   7.236 -0.8612  0.7983 -2.2893
  198MOL   H14247816   3.670   4.886   7.288  0.7089 -0.2955 -0.3186
  198MOL   H14347817   4.040   4.681   7.181 -1.1506 -0.0353 -1.3909
  198MOL   H14447818   4.083   4.796   7.300  2.6850  1.3414 -2.0853
  198MOL   H14547819   4.057   4.851   7.133  0.6677 -0.7541  0.3598
  198MOL   C14647820   3.570   4.883   7.091 -0.2410  0.6041 -0.6853
  198MOL   C14747821   3.624   5.016   7.046  0.5653 -0.0472 -1.3708
  198MOL   C14847822   3.566   5.064   6.916 -0.4140 -0.5733 -0.3832
  198MOL   O14947823   3.637   5.067   6.815 -0.7155 -0.5109 -0.5401
  198MOL   O15047824   3.428   5.085   6.922 -0.2944 -0.5430  0.5884
  198MOL   C15147825   3.362   5.139   6.810  0.0460 -0.1066  0.7603
  198MOL   H15247826   3.581   4.820   7.002 -1.9013  0.2738 -0.6581
  198MOL   H15347827   3.465   4.879   7.118 -0.7152 -3.3824 -2.6873
  198MOL   H15447828   3.728   5.003   7.015  1.2835  0.9746  0.5235
  198MOL   H15547829   3.306   5.076   6.740 -0.4861  1.4703 -0.2437
  198MOL   H15647830   3.421   5.200   6.742 -0.2533 -0.3530  0.2762
  198MOL   H15747831   3.290   5.207   6.856 -0.3480 -0.6764  1.0016
  198MOL   C15847832   3.624   5.132   7.147  0.1895  0.5663  0.2655
  198MOL   C15947833   3.703   5.256   7.101  0.5654 -0.0631  0.4638
  198MOL   C16047834   3.662   5.376   7.190  0.1813 -0.5480  0.0649
  198MOL   O16147835   3.585   5.459   7.151 -0.2697 -0.3123  0.0638
  198MOL   O16247836   3.709   5.374   7.311 -0.0212  0.5000  0.5285
  198MOL   C16347837   3.693   5.489   7.397 -0.3674  0.4604 -0.0331
  198MOL   H16447838   3.518   5.151   7.165  0.3163  1.1019  0.4435
  198MOL   H16547839   3.651   5.102   7.248 -0.5678  1.1300  0.6445
  198MOL   H16647840   3.673   5.280   6.999  0.9300 -2.3387 -0.2115
  198MOL   H16747841   3.726   5.474   7.500 -0.0043 -1.0218 -0.3502
  198MOL   H16847842   3.592   5.531   7.398 -0.7125 -0.3232 -1.1011
  198MOL   H16947843   3.754   5.570   7.355  0.8742 -0.6338 -0.3722
  198MOL   C17047844   3.861   5.228   7.109 -0.4679 -0.1053 -0.0987
  198MOL   C17147845   3.923   5.216   6.971  1.0593  0.0930 -0.3795
  198MOL   C17247846   3.928   5.354   6.891  0.2312  0.7264  0.4335
  198MOL   O17347847   3.858   5.377   6.793 -0.0095  0.0203  0.1010
  198MOL   O17447848   4.021   5.432   6.942 -0.4876 -0.3958  0.4154
  198MOL   C17547849   4.034   5.564   6.886  0.1157  0.0903 -0.3710
  198MOL   H17647850   3.906   5.307   7.168 -0.4137  0.8192 -1.3415
  198MOL   H17747851   3.870   5.132   7.159  3.3927 -0.2559 -0.9209
  198MOL   H17847852   3.855   5.154   6.913 -0.1314  1.1216 -0.1224
  198MOL   H17947853   3.969   5.633   6.941 -0.0687 -0.7032  0.4326
  198MOL   H18047854   4.023   5.565   6.778  2.3506 -0.8254 -0.6221
  198MOL   H18147855   4.135   5.599   6.908  0.6419 -0.6528 -1.5788
  198MOL   C18247856   4.062   5.157   6.975 -0.4939 -0.2785  0.2253
  198MOL   C18347857   4.117   5.132   6.836  0.6031 -0.4190 -0.5515
  198MOL   C18447858   4.273   5.150   6.839  0.4360 -0.4328 -0.2829
  198MOL   O18547859   4.353   5.065   6.804  0.3507  0.8833 -0.2133
  198MOL   O18647860   4.303   5.269   6.891  0.1918 -0.0360 -0.1946
  198MOL   C18747861   4.435   5.291   6.923 -0.4058 -0.5050 -0.0045
  198MOL   H18847862   4.122   5.215   7.046  0.5804 -0.7562 -0.2762
  198MOL   H18947863   4.065   5.063   7.029 -1.1699 -1.5918 -1.9732
  198MOL   H19047864   4.085   5.219   6.778  0.2417  0.3790  0.8407
  198MOL   H19147865   4.499   5.291   6.835 -1.9760 -2.1983 -1.1540
  198MOL   H19247866   4.467   5.208   6.986  3.0305  1.1192  0.5460
  198MOL   H19347867   4.437   5.386   6.978  0.5436 -0.9009  0.6632
  198MOL   C19447868   4.062   4.996   6.778 -0.0120 -0.1783 -0.1047
  198MOL   C19547869   4.038   4.993   6.629  0.0817  0.2128 -0.1869
  198MOL   C19647870   4.047   4.849   6.579  0.4542 -0.4623  0.7183
  198MOL   O19747871   3.950   4.772   6.577 -0.0883 -0.1276  0.6160
  198MOL   O19847872   4.170   4.821   6.550  1.4739 -0.1936 -0.5003
  198MOL   C19947873   4.198   4.697   6.488  0.3257 -0.0927  0.6090
  198MOL   H20047874   4.125   4.913   6.809  0.2283 -0.6617 -1.8313
  198MOL   H20147875   3.969   4.965   6.826  0.5370  1.3499  1.9668
  198MOL   H20247876   4.121   5.045   6.582  0.8380  0.7274  1.6641
  198MOL   H20347877   4.125   4.666   6.413 -0.0595  1.5355  0.2875
  198MOL   H20447878   4.181   4.632   6.574  3.4098 -0.3955  1.0319
  198MOL   H20547879   4.297   4.690   6.445 -0.7863 -0.5137 -1.9874
  198MOL   C20647880   3.904   5.067   6.605 -0.2686 -1.3853 -0.3714
  198MOL   C20747881   3.874   5.095   6.452 -1.0740 -0.4354 -0.9660
  198MOL   C20847882   3.729   5.134   6.429 -0.0459  0.4823  0.4635
  198MOL   O20947883   3.671   5.105   6.323 -0.0635 -0.7586 -0.1065
  198MOL   O21047884   3.686   5.214   6.519 -0.5215  0.8149  0.2373
  198MOL   C21147885   3.560   5.271   6.509 -0.1904  0.4018  0.3004
  198MOL   H21247886   3.823   5.011   6.652 -1.4046  0.5058 -0.0479
  198MOL   H21347887   3.898   5.164   6.654  0.5848 -2.1389  1.2650
  198MOL   H21447888   3.897   5.007   6.392  4.0634 -0.4551  0.8204
  198MOL   H21547889   3.544   5.348   6.585 -0.1796  0.1472  0.5628
  198MOL   H21647890   3.493   5.185   6.518  1.1900 -0.8588 -1.0769
  198MOL   H21747891   3.556   5.312   6.409  3.6700 -1.7051 -0.8248
  198MOL   C21847892   3.969   5.211   6.394 -0.2910  0.5727 -0.3383
  198MOL   C21947893   3.954   5.353   6.464  0.1791  0.3298 -0.2423
  198MOL   C22047894   4.095   5.408   6.483  0.2097  0.0126  0.2103
  198MOL   O22147895   4.138   5.508   6.432 -0.0368 -0.4397  0.2998
  198MOL   O22247896   4.175   5.333   6.557 -0.2674 -0.9563 -0.2625
  198MOL   C22347897   4.317   5.364   6.572  0.5999  0.5868  0.0758
  198MOL   H22447898   4.071   5.173   6.407  0.5515  3.4651  2.1447
  198MOL   H22547899   3.964   5.221   6.286  1.7642  0.7479 -0.4506
  198MOL   H22647900   3.899   5.339   6.557 -2.1201 -1.1767 -1.7643
  198MOL   H22747901   4.366   5.373   6.475 -1.7392  0.0529 -1.1894
  198MOL   H22847902   4.361   5.289   6.637 -1.9347 -1.0328 -0.0103
  198MOL   H22947903   4.328   5.454   6.633  1.5074 -0.0828  0.9035
  198MOL   C23047904   3.863   5.439   6.380 -0.3272 -0.2130 -0.6230
  198MOL   C23147905   3.831   5.563   6.471 -0.3058 -0.4766 -0.1577
  198MOL   C23247906   3.722   5.646   6.405 -0.2667 -0.7591  0.1909
  198MOL   O23347907   3.624   5.695   6.465 -1.0271  0.0122  0.1985
  198MOL   O23447908   3.753   5.664   6.275  0.1861 -0.2061 -0.0202
  198MOL   C23547909   3.684   5.755   6.189 -0.1920 -0.1259 -0.4380
  198MOL   H23647910   3.910   5.465   6.285  3.1109  1.1422  1.3495
  198MOL   H23747911   3.768   5.388   6.361 -0.3807 -1.1110  1.8866
  198MOL   H23847912   3.918   5.629   6.475  0.4674 -1.4100 -1.1896
  198MOL   H23947913   3.690   5.722   6.085 -0.2697 -1.6379  0.0250
  198MOL   H24047914   3.726   5.855   6.192  0.4330 -0.4280  1.4390
  198MOL   H24147915   3.579   5.769   6.216  0.3486 -0.5915  1.9445
  198MOL   H24247916   3.800   5.539   6.573 -0.6742  1.9680  0.3415
  199MOL     C147917   6.649   6.262   6.745  0.0280 -0.1702  0.4378
  199MOL     C247918   6.771   6.343   6.695 -0.2339  0.0844  0.7167
  199MOL     C347919   6.731   6.482   6.646 -0.8688  0.5017  0.3403
  199MOL     O447920   6.752   6.578   6.726 -0.0801  0.1221  0.6888
  199MOL     O547921   6.694   6.494   6.518  0.2402 -0.1581 -0.3155
  199MOL     C647922   6.634   6.614   6.472  0.3116  0.4552 -0.6431
  199MOL     H747923   6.622   6.294   6.846 -2.3874  0.9288 -0.5082
  199MOL     H847924   6.655   6.153   6.743 -2.2988 -0.3067 -0.9135
  199MOL     H947925   6.788   6.278   6.609 -0.6718 -1.7352  1.9684
  199MOL    H1047926   6.543   6.649   6.522  0.9439 -0.6776  1.3450
  199MOL    H1147927   6.607   6.594   6.369  0.1906  2.8464 -1.0982
  199MOL    H1247928   6.700   6.698   6.451  2.1887 -0.2771  2.0069
  199MOL    H1347929   6.562   6.275   6.681 -0.5646 -1.0873  1.0439
  199MOL    C1447930   6.896   6.334   6.790  0.3784 -0.2410 -0.3762
  199MOL    C1547931   7.033   6.394   6.748 -0.4369 -0.3638 -0.0272
  199MOL    C1647932   7.125   6.445   6.861 -0.5977 -0.2062  0.1060
  199MOL    O1747933   7.142   6.567   6.863 -0.4643 -0.5511  0.5111
  199MOL    O1847934   7.178   6.345   6.946 -0.1535 -0.3368  1.5257
  199MOL    C1947935   7.280   6.373   7.043  0.4207 -0.1396  0.5886
  199MOL    H2047936   6.861   6.388   6.878  1.9197 -0.1895  0.2126
  199MOL    H2147937   6.904   6.231   6.825  1.6123  0.0011  0.0962
  199MOL    H2247938   7.009   6.481   6.686  0.7355 -0.7914 -1.1043
  199MOL    H2347939   7.224   6.399   7.133  1.7536  0.8752  1.1403
  199MOL    H2447940   7.335   6.465   7.021 -0.0073  0.2582  1.1700
  199MOL    H2547941   7.346   6.287   7.054  1.2173  0.2938 -0.6219
  199MOL    C2647942   7.103   6.288   6.658  0.2340  0.0871  0.3122
  199MOL    C2747943   7.156   6.355   6.531  0.4346  0.5110 -0.5263
  199MOL    C2847944   7.271   6.268   6.476  0.0402  0.4053 -0.4387
  199MOL    O2947945   7.276   6.147   6.500  0.1975 -0.4408  0.6162
  199MOL    O3047946   7.343   6.334   6.387 -0.6451  0.7396 -0.1849
  199MOL    C3147947   7.422   6.266   6.294  0.0487  0.3584 -0.3201
  199MOL    H3247948   7.173   6.216   6.702  2.0934 -1.0391 -4.2626
  199MOL    H3347949   7.018   6.226   6.629 -1.5714  2.2216  0.8812
  199MOL    H3447950   7.212   6.438   6.572  0.5207  0.9560 -1.5224
  199MOL    H3547951   7.442   6.343   6.221  2.2589  1.0439  0.9611
  199MOL    H3647952   7.359   6.186   6.254 -1.1962  1.5207 -0.7178
  199MOL    H3747953   7.517   6.239   6.340  1.3792  1.8218 -2.1639
  199MOL    C3847954   7.055   6.387   6.422 -0.5049 -0.2347  0.1915
  199MOL    C3947955   7.092   6.522   6.353 -0.5038  0.3120  0.5610
  199MOL    C4047956   7.033   6.544   6.219  0.0255  0.1615 -0.6032
  199MOL    O4147957   7.111   6.553   6.126  0.1680  0.4019 -0.8701
  199MOL    O4247958   6.897   6.549   6.224  0.2658 -0.0545 -0.4042
  199MOL    C4347959   6.832   6.595   6.108  0.2436  0.1363 -0.4378
  199MOL    H4447960   7.049   6.318   6.339  1.0973  0.6727 -0.6984
  199MOL    H4547961   6.957   6.386   6.470  0.0688 -1.6650  1.3878
  199MOL    H4647962   7.200   6.517   6.344 -0.6714  0.9547 -2.0699
  199MOL    H4747963   6.833   6.517   6.032 -2.3864  0.0447 -0.4122
  199MOL    H4847964   6.889   6.677   6.065  1.5468 -2.0601 -3.0117
  199MOL    H4947965   6.728   6.620   6.129 -0.1749 -0.9958 -1.1282
  199MOL    C5047966   7.060   6.648   6.437 -0.1419 -0.7623 -0.3119
  199MOL    C5147967   7.072   6.793   6.373 -0.0847  0.4246 -0.0247
  199MOL    C5247968   6.997   6.901   6.449 -0.3507  0.4159 -0.0415
  199MOL    O5347969   7.050   7.000   6.504  0.5340 -0.5339  0.1142
  199MOL    O5447970   6.864   6.870   6.453  0.1063 -0.0192  0.2415
  199MOL    C5547971   6.785   6.963   6.523  0.9783  0.2526 -0.0582
  199MOL    H5647972   6.958   6.636   6.473 -0.4527  2.2826 -0.0601
  199MOL    H5747973   7.125   6.652   6.525  1.2245 -0.7280 -1.3186
  199MOL    H5847974   7.007   6.796   6.285 -0.2724 -0.0116  0.0981
  199MOL    H5947975   6.683   6.924   6.525  1.0669 -0.1741 -2.3781
  199MOL    H6047976   6.764   7.058   6.474 -0.4344 -0.7419 -1.4462
  199MOL    H6147977   6.826   6.984   6.621  0.9257  1.1917 -0.2330
  199MOL    C6247978   7.216   6.830   6.336 -0.0742  0.3439  0.4572
  199MOL    C6347979   7.247   6.957   6.246  0.7258  0.3715  0.2722
  199MOL    C6447980   7.393   6.984   6.241 -0.6893 -1.0027 -0.3286
  199MOL    O6547981   7.459   6.941   6.148  0.0015  0.0935 -0.0905
  199MOL    O6647982   7.441   7.036   6.357 -0.4810 -0.0467 -0.4168
  199MOL    C6747983   7.574   7.065   6.364 -0.2401 -0.1722  0.2292
  199MOL    H6847984   7.264   6.838   6.433  2.6702 -0.5282 -0.7538
  199MOL    H6947985   7.262   6.747   6.280  1.4770  1.0138  0.7199
  199MOL    H7047986   7.204   7.042   6.298  2.2326 -0.5817  3.2060
  199MOL    H7147987   7.624   7.002   6.438  0.1394 -1.8630 -1.4126
  199MOL    H7247988   7.574   7.167   6.403 -0.1120 -0.1431  0.1529
  199MOL    H7347989   7.633   7.059   6.273  0.4230  0.7058  0.5950
  199MOL    C7447990   7.187   6.938   6.110  0.2561 -0.1221 -1.2822
  199MOL    C7547991   7.192   7.062   6.022  0.1370 -0.0400  0.0713
  199MOL    C7647992   7.128   7.043   5.880  0.2885 -0.3837  0.9117
  199MOL    O7747993   7.047   6.953   5.856 -0.0437  0.2193 -0.1541
  199MOL    O7847994   7.149   7.144   5.800  0.0620 -0.6681  0.4676
  199MOL    C7947995   7.104   7.141   5.667 -0.0516 -0.5454  0.3726
  199MOL    H8047996   7.218   6.847   6.059 -0.1569  0.6561 -2.9539
  199MOL    H8147997   7.082   6.919   6.131  0.5687  0.4831  0.8816
  199MOL    H8247998   7.298   7.078   6.004 -0.7777  2.3735 -3.7099
  199MOL    H8347999   7.177   7.187   5.600  2.4844 -3.9568  0.6930
  199MOL    H8448000   7.017   7.207   5.663  0.3792  0.2407  3.0083
  199MOL    H8548001   7.084   7.038   5.640 -0.1065 -1.1767  2.7146
  199MOL    C8648002   7.134   7.193   6.090 -0.6682 -0.0906  0.5747
  199MOL    C8748003   6.994   7.179   6.148  0.7904 -0.1034  0.3323
  199MOL    C8848004   6.995   7.279   6.269  0.6048  0.0486 -0.1844
  199MOL    O8948005   7.042   7.391   6.264  0.2173 -0.4687  0.2253
  199MOL    O9048006   6.934   7.217   6.368  0.2999 -0.3569 -0.5659
  199MOL    C9148007   6.911   7.288   6.487 -0.1193 -0.3113 -0.0679
  199MOL    H9248008   7.210   7.235   6.155  1.4000  0.8589 -2.3175
  199MOL    H9348009   7.116   7.258   6.004 -0.6869 -0.7306  0.0895
  199MOL    H9448010   6.990   7.077   6.188  2.0831 -0.2708  0.0673
  199MOL    H9548011   6.896   7.395   6.474  0.7292  0.0660  1.9167
  199MOL    H9648012   6.999   7.272   6.549  1.5029 -0.4674 -2.3285
  199MOL    H9748013   6.823   7.238   6.527 -0.5967  1.2905  0.9270
  199MOL    C9848014   6.879   7.201   6.048 -0.5398 -0.2455  0.5484
  199MOL    C9948015   6.733   7.175   6.100 -0.3419 -0.5524  0.1186
  199MOL   C10048016   6.670   7.301   6.150 -0.2593 -0.3876  0.4675
  199MOL   O10148017   6.628   7.313   6.268  0.0980 -0.6592  0.4678
  199MOL   O10248018   6.653   7.387   6.045  0.4851 -0.6649 -0.2595
  199MOL   C10348019   6.589   7.514   6.071 -0.5496  0.1386 -0.1394
  199MOL   H10448020   6.892   7.304   6.015  0.7066 -0.1309  1.3614
  199MOL   H10548021   6.889   7.152   5.951 -0.7264  2.2050 -0.7425
  199MOL   H10648022   6.752   7.107   6.183  0.1759  0.3905  0.7819
  199MOL   H10748023   6.494   7.490   6.120 -0.2199 -1.1309 -0.0988
  199MOL   H10848024   6.578   7.589   5.993  1.6388  1.5272  0.8484
  199MOL   H10948025   6.639   7.557   6.158 -0.6464  1.1628 -0.5891
  199MOL   C11048026   6.660   7.100   5.989 -0.1400 -0.5165  0.2923
  199MOL   C11148027   6.524   7.031   6.028 -0.3632 -0.0739  0.1092
  199MOL   C11248028   6.400   7.125   6.041  0.1339  0.6288  0.3047
  199MOL   O11348029   6.366   7.209   5.956 -0.0772  0.1733  0.0616
  199MOL   O11448030   6.330   7.103   6.151  0.3176 -0.6088  0.2189
  199MOL   C11548031   6.213   7.169   6.193  0.6270  0.0841 -0.0828
  199MOL   H11648032   6.653   7.167   5.903 -0.6927 -2.0454 -0.8645
  199MOL   H11748033   6.730   7.020   5.962  0.8758  0.5437 -0.2665
  199MOL   H11848034   6.535   6.991   6.128 -0.9404  0.3106  0.3309
  199MOL   H11948035   6.179   7.123   6.286 -1.5861 -0.4893 -1.1361
  199MOL   H12048036   6.131   7.167   6.122  0.2544  1.7382  0.2863
  199MOL   H12148037   6.234   7.273   6.216  1.3049  0.5052 -2.4948
  199MOL   C12248038   6.489   6.916   5.926  0.0354 -0.3724 -0.2405
  199MOL   C12348039   6.386   6.805   5.966 -0.0361 -0.0290 -0.3549
  199MOL   C12448040   6.335   6.730   5.846 -0.3325 -0.0324  0.8974
  199MOL   O12548041   6.417   6.693   5.754 -0.8092 -0.1334  0.2030
  199MOL   O12648042   6.207   6.715   5.843  0.1003 -0.1294 -0.1307
  199MOL   C12748043   6.153   6.644   5.736 -0.0738  0.3713  0.0198
  199MOL   H12848044   6.443   6.967   5.841  1.8854 -0.4456 -1.2949
  199MOL   H12948045   6.573   6.856   5.893 -0.2302 -0.4952 -0.6928
  199MOL   H13048046   6.297   6.856   6.002 -0.6965  0.0883 -2.0971
  199MOL   H13148047   6.062   6.598   5.775  0.0589  0.0103 -0.0968
  199MOL   H13248048   6.230   6.579   5.694 -0.0905  0.2499  0.1801
  199MOL   H13348049   6.126   6.718   5.660 -0.2639  0.1136 -0.1665
  199MOL   C13448050   6.435   6.726   6.086  0.1446 -0.0291  0.0264
  199MOL   C13548051   6.336   6.619   6.140 -0.6093 -0.2873 -0.2509
  199MOL   C13648052   6.395   6.480   6.133  0.1789  0.6838 -0.4001
  199MOL   O13748053   6.456   6.435   6.231  0.3855 -0.1374 -0.0605
  199MOL   O13848054   6.387   6.428   6.005 -0.1008 -0.3700 -0.2620
  199MOL   C13948055   6.463   6.306   5.977  0.1683  0.1634  1.0372
  199MOL   H14048056   6.530   6.677   6.063 -0.7999 -0.7541 -2.5732
  199MOL   H14148057   6.460   6.788   6.172 -0.3959  1.3802 -0.8180
  199MOL   H14248058   6.248   6.622   6.076  0.8840  2.1195 -2.2537
  199MOL   H14348059   6.488   6.244   6.063 -0.1689 -0.6074  0.5902
  199MOL   H14448060   6.558   6.323   5.925 -0.7489  0.5620 -0.5277
  199MOL   H14548061   6.411   6.242   5.906  1.5789  1.3798 -1.1757
  199MOL   C14648062   6.287   6.658   6.288 -0.4739 -0.1044  0.4966
  199MOL   C14748063   6.201   6.788   6.313  0.0476 -0.3746  0.3132
  199MOL   C14848064   6.068   6.789   6.235  0.7620 -0.4836  0.0215
  199MOL   O14948065   5.969   6.746   6.288 -0.2462  0.0046 -0.0079
  199MOL   O15048066   6.076   6.842   6.112  0.0296 -0.0526  0.9208
  199MOL   C15148067   5.953   6.869   6.036  0.0282 -0.0163 -1.1481
  199MOL   H15248068   6.231   6.572   6.325 -0.9480  0.2852  0.6832
  199MOL   H15348069   6.372   6.652   6.357  1.2061  0.4514 -1.4611
  199MOL   H15448070   6.264   6.869   6.275  0.4985 -0.3516  1.0992
  199MOL   H15548071   5.927   6.775   5.987  0.0285 -0.8625  0.4657
  199MOL   H15648072   5.971   6.941   5.956  0.4909  2.9381  1.5355
  199MOL   H15748073   5.865   6.907   6.088 -1.5466 -2.3651 -1.9972
  199MOL   C15848074   6.171   6.824   6.460  0.8726  0.2301  0.5207
  199MOL   C15948075   6.293   6.858   6.549  0.5361  0.0545  0.1612
  199MOL   C16048076   6.386   6.963   6.490  0.3313  0.7779 -0.1456
  199MOL   O16148077   6.463   6.933   6.401  0.2353  0.3965 -0.0743
  199MOL   O16248078   6.385   7.080   6.550  0.6174 -0.1731 -0.1321
  199MOL   C16348079   6.450   7.184   6.492 -0.0758 -0.2965  0.1323
  199MOL   H16448080   6.091   6.898   6.466  0.6095  0.1907 -1.9347
  199MOL   H16548081   6.134   6.728   6.498  2.5465 -1.3329 -1.6195
  199MOL   H16648082   6.345   6.763   6.559 -2.8659 -1.8664  0.6577
  199MOL   H16748083   6.552   7.155   6.463 -0.8540 -0.8919 -2.1430
  199MOL   H16848084   6.449   7.264   6.566 -1.3580 -1.2033  1.0992
  199MOL   H16948085   6.393   7.195   6.399  0.9445  0.4408 -0.4229
  199MOL   C17048086   6.239   6.886   6.689 -0.1290 -0.3540  0.2928
  199MOL   C17148087   6.241   6.760   6.771  0.8097  0.3595 -0.5606
  199MOL   C17248088   6.378   6.715   6.823 -0.0776 -0.1427  0.3182
  199MOL   O17348089   6.410   6.603   6.802 -0.5298 -0.0816 -0.1242
  199MOL   O17448090   6.447   6.806   6.891 -0.0350  0.9195 -0.2663
  199MOL   C17548091   6.585   6.780   6.920 -0.3032 -0.0925  0.6030
  199MOL   H17648092   6.301   6.965   6.730  0.6163 -0.5081 -0.5163
  199MOL   H17748093   6.138   6.927   6.687 -0.0488  0.1071  3.4005
  199MOL   H17848094   6.211   6.676   6.709 -0.7764 -0.7047  1.5849
  199MOL   H17948095   6.617   6.850   6.998 -2.5186  0.4356  1.0754
  199MOL   H18048096   6.647   6.790   6.832  1.5504 -1.2296  1.7475
  199MOL   H18148097   6.593   6.677   6.953  2.1199 -0.0736  0.1448
  199MOL   C18248098   6.151   6.770   6.900 -0.2245 -0.3813 -0.0025
  199MOL   C18348099   5.994   6.778   6.856  0.1416  0.3232  0.3922
  199MOL   C18448100   5.953   6.663   6.765 -0.6050 -1.1224 -0.2850
  199MOL   O18548101   5.987   6.550   6.789  0.3451  0.3616  0.0141
  199MOL   O18648102   5.892   6.705   6.651  0.6183  0.0324  0.5698
  199MOL   C18748103   5.851   6.609   6.560 -0.3962 -0.3294  0.4126
  199MOL   H18848104   6.166   6.683   6.964  0.2535  0.9545  1.7564
  199MOL   H18948105   6.183   6.859   6.955 -0.4951  0.0624 -0.5573
  199MOL   H19048106   5.974   6.869   6.800  1.0592  0.2021 -0.1424
  199MOL   H19148107   5.811   6.522   6.612  0.4178 -0.3366  1.0548
  199MOL   H19248108   5.932   6.582   6.492  0.4581 -1.9788  2.0378
  199MOL   H19348109   5.771   6.646   6.496  0.6804  0.6892 -0.3703
  199MOL   C19448110   5.912   6.785   6.984 -0.2172  0.5026  0.0268
  199MOL   C19548111   5.756   6.799   6.980  0.0226  0.1534  0.0818
  199MOL   C19648112   5.681   6.666   6.953  0.3661  0.2006  0.5356
  199MOL   O19748113   5.587   6.661   6.874  0.0477  0.4923  0.3487
  199MOL   O19848114   5.700   6.571   7.050  0.1178  0.2789  1.0359
  199MOL   C19948115   5.628   6.447   7.056  0.6230  0.2590 -0.1122
  199MOL   H20048116   5.935   6.694   7.038  1.7962  0.8684 -0.1771
  199MOL   H20148117   5.944   6.865   7.051  0.3943 -0.1350  0.4957
  199MOL   H20248118   5.732   6.858   6.892 -0.4033  1.5068  1.0986
  199MOL   H20348119   5.674   6.386   7.133  2.8058  2.1432  0.1490
  199MOL   H20448120   5.631   6.388   6.965  3.0300  0.6070 -0.2925
  199MOL   H20548121   5.521   6.454   7.080  0.1287  0.1541 -2.1638
  199MOL   C20648122   5.692   6.874   7.104 -0.5586 -0.1955  0.7405
  199MOL   C20748123   5.726   7.020   7.132 -0.6364 -0.0238 -0.7877
  199MOL   C20848124   5.641   7.103   7.033  0.4322  0.5707 -0.0901
  199MOL   O20948125   5.692   7.163   6.942 -0.0791 -0.1904  0.2025
  199MOL   O21048126   5.510   7.085   7.044  0.0340 -0.2241  0.2889
  199MOL   C21148127   5.420   7.185   7.001 -0.5449  0.6071 -0.2847
  199MOL   H21248128   5.586   6.856   7.086 -0.1312 -0.6393 -1.4722
  199MOL   H21348129   5.703   6.818   7.197  0.6115  0.3328  0.9265
  199MOL   H21448130   5.830   7.044   7.109  0.4779 -0.8767  3.0933
  199MOL   H21548131   5.320   7.143   6.991  0.1046 -0.9974 -0.3402
  199MOL   H21648132   5.448   7.238   6.910  0.0585 -1.5365 -1.3875
  199MOL   H21748133   5.428   7.268   7.071  2.6753  0.5952 -0.5505
  199MOL   C21848134   5.713   7.056   7.283  0.0991 -0.2094 -0.5839
  199MOL   C21948135   5.764   7.195   7.342  0.3859  0.6749  0.4742
  199MOL   C22048136   5.734   7.319   7.264 -0.7030  0.2812 -0.1374
  199MOL   O22148137   5.819   7.387   7.213  0.1385 -0.6510  0.6067
  199MOL   O22248138   5.598   7.343   7.250  0.0621  0.3234 -0.1011
  199MOL   C22348139   5.560   7.460   7.175 -0.1404  0.2871  0.9174
  199MOL   H22448140   5.605   7.051   7.300  0.0636  2.3042  0.1715
  199MOL   H22548141   5.762   6.977   7.339 -0.9965 -0.5177 -0.0445
  199MOL   H22648142   5.873   7.192   7.340  0.3722  0.4493  0.0775
  199MOL   H22748143   5.616   7.466   7.083 -0.6723 -1.6949  0.4402
  199MOL   H22848144   5.582   7.556   7.222  1.2725  1.9833 -3.0206
  199MOL   H22948145   5.452   7.447   7.162 -0.3737 -0.0619  2.9456
  199MOL   C23048146   5.721   7.216   7.485  0.8460  0.6908  0.2248
  199MOL   C23148147   5.780   7.340   7.559  0.6203  0.0457  0.0733
  199MOL   C23248148   5.930   7.327   7.602 -0.0192 -0.1856 -0.5901
  199MOL   O23348149   5.984   7.220   7.598  0.2959 -0.1002  0.4646
  199MOL   O23448150   5.986   7.438   7.649 -0.1795 -0.6967 -0.3444
  199MOL   C23548151   6.121   7.438   7.707  0.2131 -0.5424 -0.0919
  199MOL   H23648152   5.613   7.227   7.481  0.6841 -0.9028 -0.1327
  199MOL   H23748153   5.742   7.131   7.551  0.4220 -0.1571 -0.7207
  199MOL   H23848154   5.734   7.360   7.656 -2.1606  0.7901 -1.3467
  199MOL   H23948155   6.157   7.541   7.710  0.4768 -0.6721  3.0080
  199MOL   H24048156   6.188   7.375   7.649 -0.5460 -2.4245  1.0249
  199MOL   H24148157   6.109   7.404   7.810 -0.7939 -0.7185 -0.2674
  199MOL   H24248158   5.768   7.437   7.511 -0.2297  0.7254  1.6339
  200MOL     C148159   0.404   3.930   1.866 -0.2181 -0.2115 -0.4400
  200MOL     C248160   0.479   3.853   1.976  0.4105  0.0835 -0.4326
  200MOL     C348161   0.535   3.727   1.907 -0.9195 -0.1806 -0.7931
  200MOL     O448162   0.521   3.693   1.790 -0.3161 -0.5157 -0.4613
  200MOL     O548163   0.603   3.662   1.998 -0.0900  0.3125  0.0662
  200MOL     C648164   0.667   3.542   1.963  0.0792  0.9125 -0.2486
  200MOL     H748165   0.342   4.010   1.907  1.3999  1.0566 -0.4276
  200MOL     H848166   0.335   3.865   1.812  0.2768 -1.8950  0.9023
  200MOL     H948167   0.403   3.825   2.048 -0.0548  2.7354  0.1642
  200MOL    H1048168   0.727   3.514   2.049  0.1498 -0.1125 -0.6271
  200MOL    H1148169   0.741   3.564   1.886 -0.6630  3.4780 -0.2945
  200MOL    H1248170   0.593   3.468   1.932  0.0568  0.2458  1.3019
  200MOL    H1348171   0.472   3.964   1.788  0.1091 -2.8324 -1.3599
  200MOL    C1448172   0.577   3.954   2.051 -0.0852 -0.6438  0.6535
  200MOL    C1548173   0.624   3.909   2.188  0.6475  0.1918 -0.0065
  200MOL    C1648174   0.750   3.993   2.226  0.3194  0.7021  0.1614
  200MOL    O1748175   0.858   3.942   2.219 -0.6981  0.5399  0.3306
  200MOL    O1848176   0.723   4.116   2.272  0.3143  0.3501 -0.2452
  200MOL    C1948177   0.830   4.203   2.297 -0.3980  0.2704  0.1475
  200MOL    H2048178   0.654   3.978   1.978 -0.9953  0.7019  0.1045
  200MOL    H2148179   0.528   4.051   2.062 -0.7719 -1.0694  1.4380
  200MOL    H2248180   0.653   3.806   2.172  2.1537  0.4471  0.9344
  200MOL    H2348181   0.806   4.306   2.326 -3.2192 -1.0571  2.8518
  200MOL    H2448182   0.893   4.202   2.208 -1.2498 -0.3627 -0.4484
  200MOL    H2548183   0.890   4.155   2.375  0.1305 -1.3299 -1.2368
  200MOL    C2648184   0.507   3.924   2.296 -0.2470  0.4859  0.1475
  200MOL    C2748185   0.543   3.877   2.442 -0.5667 -0.3873  0.6898
  200MOL    C2848186   0.488   3.971   2.542  0.1432 -0.7019 -0.1040
  200MOL    O2948187   0.367   3.977   2.578 -0.0717  0.1249  0.3533
  200MOL    O3048188   0.589   4.044   2.592 -0.2139  0.4847 -0.4588
  200MOL    C3148189   0.560   4.145   2.682  0.1026  0.3007  0.2166
  200MOL    H3248190   0.483   4.030   2.302  1.2525  0.7671  1.3889
  200MOL    H3348191   0.418   3.879   2.253  1.3456 -1.7996 -0.8655
  200MOL    H3448192   0.652   3.882   2.444 -0.5667  0.1881 -0.4692
  200MOL    H3548193   0.636   4.223   2.676 -1.1405  1.5826  0.7929
  200MOL    H3648194   0.552   4.098   2.779 -0.8240 -1.7019 -0.8013
  200MOL    H3748195   0.464   4.193   2.662 -0.1143 -1.0922 -2.3422
  200MOL    C3848196   0.501   3.729   2.473  0.1949  1.1141 -0.0252
  200MOL    C3948197   0.593   3.610   2.408  0.0971  0.1396 -0.5622
  200MOL    C4048198   0.741   3.616   2.432  0.1688  0.2402  0.0078
  200MOL    O4148199   0.784   3.620   2.545 -0.9028 -0.2814 -0.1633
  200MOL    O4248200   0.814   3.615   2.326 -0.3146  0.4987  0.3193
  200MOL    C4348201   0.951   3.650   2.336  1.3308  0.4929 -0.3574
  200MOL    H4448202   0.485   3.701   2.577 -0.4836 -0.2140 -0.4719
  200MOL    H4548203   0.406   3.702   2.428  0.7767  0.2486 -0.7460
  200MOL    H4648204   0.574   3.638   2.304  0.1692  0.5465 -0.4669
  200MOL    H4748205   0.970   3.689   2.437 -0.9367  0.7142  0.0137
  200MOL    H4848206   0.981   3.726   2.264 -0.3163  0.0683 -1.4949
  200MOL    H4948207   1.010   3.567   2.299  2.0474  1.2964 -1.0406
  200MOL    C5048208   0.534   3.468   2.437 -0.0893 -0.5076 -0.1693
  200MOL    C5148209   0.549   3.364   2.321  0.4236  0.1224 -0.6466
  200MOL    C5248210   0.697   3.326   2.305  0.3186  0.3014  0.3706
  200MOL    O5348211   0.760   3.337   2.194  0.4379  0.0560 -0.1313
  200MOL    O5448212   0.757   3.285   2.419  0.0850  0.0944  0.1172
  200MOL    C5548213   0.899   3.278   2.413  0.7376 -0.7565 -0.6343
  200MOL    H5648214   0.583   3.435   2.528 -0.3639  1.8078  0.8494
  200MOL    H5748215   0.432   3.477   2.475 -1.0667 -2.1584 -2.2997
  200MOL    H5848216   0.510   3.405   2.228 -0.1234  2.6778  0.6568
  200MOL    H5948217   0.937   3.378   2.434  2.0188 -0.9461 -1.9658
  200MOL    H6048218   0.946   3.231   2.327 -0.4028 -3.0185 -0.0434
  200MOL    H6148219   0.932   3.226   2.502 -1.1584  1.1622  1.2686
  200MOL    C6248220   0.454   3.240   2.356 -0.1988 -0.1194 -0.0279
  200MOL    C6348221   0.365   3.186   2.237 -0.0693  0.1645 -0.6620
  200MOL    C6448222   0.442   3.188   2.102  0.1968  0.1975 -0.0281
  200MOL    O6548223   0.421   3.273   2.019  0.3043 -0.3599 -0.2687
  200MOL    O6648224   0.542   3.094   2.088  0.1055 -0.4157 -0.3753
  200MOL    C6748225   0.624   3.110   1.972 -0.1927 -0.4147  0.0336
  200MOL    H6848226   0.508   3.160   2.407 -0.0561  0.1933  0.3202
  200MOL    H6948227   0.386   3.271   2.436  0.6097  2.2414 -0.2079
  200MOL    H7048228   0.276   3.247   2.232 -0.0517  0.3369  0.9799
  200MOL    H7148229   0.682   3.018   1.976 -2.3083 -1.7841  0.3617
  200MOL    H7248230   0.698   3.186   1.994  0.4560 -1.7022  2.4380
  200MOL    H7348231   0.555   3.119   1.888 -0.3545 -1.1086  0.0822
  200MOL    C7448232   0.309   3.046   2.271  0.1378  0.1081  0.3340
  200MOL    C7548233   0.225   2.953   2.173 -0.1583  0.2267  0.0431
  200MOL    C7648234   0.177   2.822   2.245  0.0749 -0.0537  0.0718
  200MOL    O7748235   0.211   2.711   2.201  0.2822  0.2776 -0.2250
  200MOL    O7848236   0.094   2.840   2.348  0.0341 -0.5667 -0.2104
  200MOL    C7948237   0.060   2.727   2.420  0.1369  0.2007 -0.3089
  200MOL    H8048238   0.398   2.990   2.300  1.2213  1.0548 -1.0977
  200MOL    H8148239   0.245   3.052   2.359 -0.4852 -0.4109 -0.0812
  200MOL    H8248240   0.299   2.926   2.098 -1.2784  0.3965 -1.1453
  200MOL    H8348241   7.932   2.665   2.355  1.2023 -0.5025 -0.6417
  200MOL    H8448242   0.008   2.772   2.504 -0.0151  0.8601 -0.7503
  200MOL    H8548243   0.143   2.660   2.444  0.1298  0.1823 -0.3365
  200MOL    C8648244   0.103   3.012   2.104 -0.1770  0.2125 -0.3354
  200MOL    C8748245   0.129   3.079   1.969  0.4719 -0.0276  0.4153
  200MOL    C8848246   0.184   2.988   1.860  0.1442  0.1686 -0.0222
  200MOL    O8948247   0.121   2.899   1.804  0.3760  0.4165 -0.7257
  200MOL    O9048248   0.315   3.000   1.849 -0.2845  0.3482 -0.3899
  200MOL    C9148249   0.375   2.927   1.739 -0.2093 -0.4357  0.1440
  200MOL    H9248250   0.028   2.939   2.075  2.1891 -2.7668  0.7936
  200MOL    H9348251   0.054   3.082   2.172 -1.8244 -0.3147 -0.9662
  200MOL    H9448252   0.209   3.153   1.975  1.8374 -1.4210 -0.0270
  200MOL    H9548253   0.353   2.820   1.747 -2.5758  0.0770  0.7186
  200MOL    H9648254   0.483   2.938   1.746 -0.4164  1.4054  0.5164
  200MOL    H9748255   0.340   2.954   1.640 -0.1983 -0.2212  0.1997
  200MOL    C9848256   0.003   3.149   1.908  0.1336 -0.2684 -0.8008
  200MOL    C9948257   7.892   3.285   1.974 -0.1856  0.2236  0.2952
  200MOL   C10048258   0.066   3.394   1.977 -0.1247  0.5066 -0.3670
  200MOL   O10148259   0.086   3.460   2.083  0.7849 -0.3169 -0.1295
  200MOL   O10248260   0.130   3.416   1.864 -0.5389  0.0718  0.2316
  200MOL   C10348261   0.246   3.503   1.859 -0.4891  0.0750  0.5389
  200MOL   H10448262   0.019   3.179   1.804  0.0962 -1.3670 -1.1366
  200MOL   H10548263   7.850   3.081   1.908 -0.4355  0.4206  1.8702
  200MOL   H10648264   7.878   3.250   2.076  0.3946 -0.2425  0.2184
  200MOL   H10748265   0.226   3.610   1.849 -0.0272  0.1325  0.2126
  200MOL   H10848266   0.309   3.469   1.777  0.8471 -0.3117  1.7050
  200MOL   H10948267   0.301   3.489   1.952 -0.9229 -0.5491  0.7040
  200MOL   C11048268   7.761   3.337   1.910 -0.1210  0.1502  0.6337
  200MOL   C11148269   7.696   3.460   1.983  0.3309 -0.1867 -0.4109
  200MOL   C11248270   7.651   3.560   1.877  0.2161  1.3240  0.1037
  200MOL   O11348271   7.703   3.671   1.876 -0.1284 -0.5946 -0.7781
  200MOL   O11448272   7.551   3.522   1.804  0.1174  0.3914  0.0741
  200MOL   C11548273   7.493   3.610   1.708  0.0456  0.5200  0.4947
  200MOL   H11648274   7.784   3.363   1.807 -0.1187  2.3605  1.1648
  200MOL   H11748275   7.690   3.255   1.920  1.3660 -1.3718 -1.0571
  200MOL   H11848276   7.775   3.517   2.032 -0.2612  1.0107 -0.8291
  200MOL   H11948277   7.565   3.646   1.634 -2.1459  1.4540 -1.2445
  200MOL   H12048278   7.450   3.701   1.751 -0.7477 -0.6433  2.2098
  200MOL   H12148279   7.415   3.562   1.650  0.5474  0.6298 -0.2773
  200MOL   C12248280   7.566   3.426   2.073 -0.0343 -0.7341 -0.0104
  200MOL   C12348281   7.599   3.342   2.199 -0.2715  0.0459  0.4314
  200MOL   C12448282   7.664   3.415   2.318 -0.6319  0.5244 -0.3571
  200MOL   O12548283   7.600   3.433   2.420 -0.1179  0.3931  0.3010
  200MOL   O12648284   7.796   3.433   2.302  0.0665 -0.1345 -0.0878
  200MOL   C12748285   7.877   3.469   2.412 -0.6357 -0.1756 -0.6332
  200MOL   H12848286   7.510   3.515   2.102  1.0353  0.9962 -3.0302
  200MOL   H12948287   7.503   3.362   2.011  0.8648 -2.5855  0.9601
  200MOL   H13048288   7.680   3.277   2.165  0.7967  0.8027  1.5037
  200MOL   H13148289   7.858   3.406   2.499 -0.8682  1.1052  0.2405
  200MOL   H13248290   7.855   3.567   2.454 -1.0831 -0.7918  0.5905
  200MOL   H13348291   0.048   3.474   2.379 -0.6424  2.3567 -0.3289
  200MOL   C13448292   7.484   3.253   2.248  0.0939  0.2990  0.0414
  200MOL   C13548293   7.462   3.124   2.166  0.0254  0.2424  0.6730
  200MOL   C13648294   7.585   3.033   2.185  0.0799 -0.4198 -0.3814
  200MOL   O13748295   7.670   3.023   2.092 -0.1863 -0.1029  0.2837
  200MOL   O13848296   7.599   2.971   2.300 -0.1170  0.1133 -0.2640
  200MOL   C13948297   7.713   2.889   2.324 -0.5821 -0.6436  0.1391
  200MOL   H14048298   7.514   3.216   2.346  0.0110 -1.2904 -0.5252
  200MOL   H14148299   7.390   3.308   2.249  0.4358  0.9544 -1.9635
  200MOL   H14248300   7.477   3.145   2.060  0.4388  3.0837  1.2384
  200MOL   H14348301   7.802   2.951   2.327 -1.2570  0.3884 -0.5657
  200MOL   H14448302   7.734   2.802   2.261 -2.3060  0.8351 -2.5607
  200MOL   H14548303   7.701   2.851   2.425 -0.4790  1.0618  0.8061
  200MOL   C14648304   7.330   3.054   2.201 -0.5087  0.6182  0.1893
  200MOL   C14748305   7.259   3.030   2.076  0.3477  0.5809  0.3923
  200MOL   C14848306   7.216   3.170   2.010 -0.3352  0.8511 -0.5560
  200MOL   O14948307   7.109   3.226   2.043 -0.1447  0.0657 -0.1210
  200MOL   O15048308   7.309   3.224   1.925 -0.0092  0.1270  0.6927
  200MOL   C15148309   7.266   3.332   1.845  0.6940 -0.0555  0.6202
  200MOL   H15248310   7.333   2.951   2.235  3.5650 -0.0727 -1.9804
  200MOL   H15348311   7.269   3.114   2.269 -0.0328 -0.2868  1.4228
  200MOL   H15448312   7.166   2.980   2.105  0.6579  0.9297  2.0003
  200MOL   H15548313   7.195   3.394   1.900  1.3417 -0.8195  2.3627
  200MOL   H15648314   7.218   3.306   1.751 -0.5872 -0.3544  1.3382
  200MOL   H15748315   7.350   3.398   1.825 -0.1122  0.8102  0.0813
  200MOL   C15848316   7.319   2.925   1.978 -0.2854  0.9539 -0.2746
  200MOL   C15948317   7.210   2.847   1.899  0.2492 -1.0032  0.7736
  200MOL   C16048318   7.182   2.918   1.761  0.4861  0.0522  0.1312
  200MOL   O16148319   7.072   2.967   1.751  0.0423 -0.1266 -0.0248
  200MOL   O16248320   7.276   2.921   1.672  0.2511  0.3311  0.0667
  200MOL   C16348321   7.244   2.981   1.540 -0.0118 -0.3567  0.1811
  200MOL   H16448322   7.393   2.981   1.920  2.1260 -1.0575  0.7417
  200MOL   H16548323   7.384   2.853   2.027 -0.3981  2.0397  1.5031
  200MOL   H16648324   7.116   2.853   1.953  1.0579 -1.3226  2.2280
  200MOL   H16748325   7.331   3.024   1.492  1.9347 -2.7820  1.4318
  200MOL   H16848326   7.160   3.050   1.549 -2.0614 -2.8013  0.5242
  200MOL   H16948327   7.214   2.901   1.472 -2.6598  0.1545  0.6841
  200MOL   C17048328   7.249   2.703   1.878 -0.3414  0.8342 -0.6669
  200MOL   C17148329   7.226   2.625   2.014  0.7500  0.0185  0.5600
  200MOL   C17248330   7.075   2.608   2.028  0.0607 -0.3107  0.0151
  200MOL   O17348331   7.011   2.689   2.099  0.6837 -0.0086 -0.3521
  200MOL   O17448332   7.020   2.507   1.962 -0.1853  0.1882 -0.4032
  200MOL   C17548333   6.879   2.505   1.954  0.1520  0.0831  0.0195
  200MOL   H17648334   7.211   2.637   1.799  0.1866 -0.8719  0.4726
  200MOL   H17748335   7.354   2.704   1.851 -0.4328  2.1717 -1.0089
  200MOL   H17848336   7.255   2.674   2.107 -2.3945  0.2250  1.4825
  200MOL   H17948337   6.842   2.463   1.861 -2.8713  0.3058  1.0647
  200MOL   H18048338   6.834   2.604   1.959  0.7150  0.4102 -1.2142
  200MOL   H18148339   6.841   2.452   2.041 -1.5346 -1.0267 -1.3602
  200MOL   C18248340   7.308   2.488   2.015  0.1682  0.2869  0.2813
  200MOL   C18348341   7.466   2.494   2.033  0.3678  0.2077 -0.1008
  200MOL   C18448342   7.517   2.593   2.138 -0.4460 -0.6418  0.0866
  200MOL   O18548343   7.579   2.702   2.110 -0.0794 -0.0212 -0.4998
  200MOL   O18648344   7.485   2.557   2.265 -0.5154 -0.0577  0.4478
  200MOL   C18748345   7.495   2.653   2.364  0.7245 -0.4782  0.7051
  200MOL   H18848346   7.266   2.426   2.095 -1.5416 -0.8915 -1.4797
  200MOL   H18948347   7.292   2.439   1.919  0.4709  1.0012 -0.1338
  200MOL   H19048348   7.497   2.523   1.932  2.6494  0.3700  0.6166
  200MOL   H19148349   7.583   2.641   2.427  1.0113 -1.4869  0.1295
  200MOL   H19248350   7.400   2.646   2.417 -0.6317 -2.0303 -1.8228
  200MOL   H19348351   7.502   2.754   2.324 -0.8579  0.2286  2.1627
  200MOL   C19448352   7.524   2.353   2.054 -0.4344  0.2047 -0.4137
  200MOL   C19548353   7.642   2.320   1.962 -0.0202 -0.9765  0.3623
  200MOL   C19648354   7.775   2.392   2.000  0.6938  0.9235 -0.0217
  200MOL   O19748355   7.867   2.329   2.062 -0.5066 -0.6705 -0.4677
  200MOL   O19848356   7.784   2.512   1.935 -0.5539  0.3410 -0.3880
  200MOL   C19948357   7.908   2.576   1.935 -0.3187  0.1867  0.2238
  200MOL   H20048358   7.549   2.331   2.158 -2.8008  1.7123  0.5183
  200MOL   H20148359   7.452   2.277   2.023  0.9294 -0.0375 -3.1269
  200MOL   H20248360   7.634   2.347   1.857  0.3817 -0.1095  0.5485
  200MOL   H20348361   7.902   2.672   1.883  2.1577 -0.7215 -1.8204
  200MOL   H20448362   0.062   2.516   1.908 -1.4084 -1.8320  1.1244
  200MOL   H20548363   0.006   2.605   2.036 -1.4984  0.6019  0.4750
  200MOL   C20648364   7.662   2.171   1.935 -0.0108  0.6155  0.5674
  200MOL   C20748365   7.677   2.078   2.057 -0.9041 -0.2377  0.0124
  200MOL   C20848366   7.544   2.033   2.117 -0.2604  0.6605 -0.0862
  200MOL   O20948367   7.504   2.048   2.238 -0.0851  0.2863  0.7150
  200MOL   O21048368   7.475   1.959   2.028  0.5580  0.4545  0.4019
  200MOL   C21148369   7.380   1.865   2.068  0.4396 -0.8628  0.4715
  200MOL   H21248370   7.592   2.120   1.869  0.3577  1.6283 -0.6176
  200MOL   H21348371   7.750   2.163   1.872 -0.3338  1.7003 -0.0362
  200MOL   H21448372   7.718   2.147   2.131  0.2545  1.2277 -1.9263
  200MOL   H21548373   7.334   1.887   2.165 -0.3895 -2.0266  0.3570
  200MOL   H21648374   7.421   1.764   2.067 -1.1337 -1.5173 -0.0140
  200MOL   H21748375   7.296   1.855   1.999 -0.6634 -0.3685  1.7139
  200MOL   C21848376   7.783   1.974   2.025  0.7555  0.1378  0.0701
  200MOL   C21948377   7.831   1.879   2.136  0.0728  0.3188  0.1244
  200MOL   C22048378   7.904   1.756   2.072  0.0241  0.0677  0.2524
  200MOL   O22148379   7.863   1.641   2.102  0.5618 -0.4770 -0.2954
  200MOL   O22248380   0.076   1.784   1.993 -0.6330  0.2321  0.1355
  200MOL   C22348381   0.166   1.681   1.966 -0.2523  0.4793 -0.6681
  200MOL   H22448382   7.743   1.906   1.951  0.3636  0.5500 -0.0997
  200MOL   H22548383   7.871   2.018   1.979  0.6483 -0.6958 -0.9235
  200MOL   H22648384   7.733   1.849   2.173  0.4545  1.2633  1.9574
  200MOL   H22748385   0.240   1.717   1.895  0.6982 -0.6324 -0.2590
  200MOL   H22848386   0.110   1.599   1.919 -1.7422  1.6683 -1.0098
  200MOL   H22948387   0.216   1.642   2.054 -0.9252 -2.1114 -1.3830
  200MOL   C23048388   7.916   1.948   2.243  0.1922 -0.3234  0.0411
  200MOL   C23148389   0.043   1.867   2.356 -0.1646 -0.0968  0.5284
  200MOL   C23248390   0.065   1.951   2.476  0.6941 -0.5106  0.5332
  200MOL   O23348391   0.006   1.920   2.578 -0.1218 -0.1350 -0.1375
  200MOL   O23448392   0.147   2.054   2.452  0.1037  0.1551  0.0925
  200MOL   C23548393   0.185   2.138   2.558 -0.0567 -0.2486 -0.1781
  200MOL   H23648394   0.065   1.992   2.186 -1.6931  2.9090 -0.2565
  200MOL   H23748395   7.858   2.029   2.287 -0.7918 -1.6609  1.2231
  200MOL   H23848396   0.138   1.831   2.316  0.4030  0.0937  1.6831
  200MOL   H23948397   0.288   2.134   2.595  0.0532 -1.8544 -0.6021
  200MOL   H24048398   0.116   2.127   2.641  1.2606 -1.9411  0.7384
  200MOL   H24148399   0.173   2.240   2.521  1.8623 -0.2406 -0.8813
  200MOL   H24248400   7.918   1.777   2.374 -0.6405  0.3852  1.4479
  201MOL     C148401   3.836   3.249   7.268  0.0153  0.5036 -0.0746
  201MOL     C248402   3.964   3.308   7.207 -0.4787 -0.2499 -0.4006
  201MOL     C348403   4.080   3.211   7.209 -0.7687  0.8478  0.1735
  201MOL     O448404   4.169   3.202   7.301 -0.0221  0.0837  0.2557
  201MOL     O548405   4.078   3.143   7.096  0.1421 -0.3875 -0.4267
  201MOL     C648406   4.176   3.047   7.072 -0.0393  0.2058 -0.7560
  201MOL     H748407   3.774   3.186   7.204  0.1058 -0.0857  0.4070
  201MOL     H848408   3.765   3.323   7.305 -1.3654 -0.3152 -1.0588
  201MOL     H948409   3.989   3.387   7.279 -0.8916  0.5116 -1.0853
  201MOL    H1048410   4.272   3.095   7.089 -1.0832  2.2245 -0.4509
  201MOL    H1148411   4.175   3.013   6.968 -0.1410  0.6677 -0.9078
  201MOL    H1248412   4.144   2.962   7.133  0.1346  2.2293  2.2479
  201MOL    H1348413   3.853   3.176   7.348 -1.0715 -0.7458 -0.9701
  201MOL    C1448414   3.931   3.383   7.070 -0.1483  0.2497 -0.2600
  201MOL    C1548415   3.856   3.517   7.097 -0.1852  0.4465 -0.1001
  201MOL    C1648416   3.941   3.639   7.145  0.2146 -0.5076 -0.0854
  201MOL    O1748417   3.891   3.722   7.220 -1.2461 -0.6194 -0.0777
  201MOL    O1848418   4.070   3.643   7.096 -0.3803  0.0241 -0.2041
  201MOL    C1948419   4.145   3.752   7.131 -0.0310  0.5088 -0.1186
  201MOL    H2048420   4.025   3.396   7.017  0.2356 -1.5500 -0.0598
  201MOL    H2148421   3.878   3.306   7.013  0.2009  1.3901 -2.1443
  201MOL    H2248422   3.785   3.490   7.175 -0.5943 -0.9299 -0.9179
  201MOL    H2348423   4.227   3.720   7.196 -0.3890  1.3907  0.7903
  201MOL    H2448424   4.091   3.833   7.180 -0.0849 -1.5522  3.3606
  201MOL    H2548425   4.181   3.802   7.041 -0.9386  0.9418 -0.2405
  201MOL    C2648426   3.781   3.561   6.967 -0.4586 -0.5334 -0.6743
  201MOL    C2748427   3.643   3.496   6.951  1.0369  0.0070 -0.5288
  201MOL    C2848428   3.543   3.565   7.052  0.3468  0.9093  0.5864
  201MOL    O2948429   3.473   3.655   7.020 -0.4793 -0.0521  0.1939
  201MOL    O3048430   3.555   3.511   7.179 -0.4829 -0.4380  0.4352
  201MOL    C3148431   3.481   3.556   7.289 -0.3816 -0.1619 -0.9133
  201MOL    H3248432   3.778   3.669   6.949  1.7754 -0.4358 -0.6361
  201MOL    H3348433   3.845   3.533   6.883 -0.0579  1.9515 -1.2424
  201MOL    H3448434   3.652   3.393   6.984  0.1033 -0.5035 -1.8498
  201MOL    H3548435   3.401   3.627   7.266 -2.2512 -1.2059  2.1053
  201MOL    H3648436   3.527   3.608   7.373 -1.9914 -2.0626  1.1844
  201MOL    H3748437   3.423   3.480   7.341 -0.0297  1.6620  2.3112
  201MOL    C3848438   3.580   3.510   6.813  0.1282 -0.0349  0.9020
  201MOL    C3948439   3.623   3.419   6.702 -0.4416  0.0689 -0.3739
  201MOL    C4048440   3.727   3.487   6.615  0.5586 -0.2944  0.0030
  201MOL    O4148441   3.849   3.484   6.638 -0.5170  0.0943 -0.0869
  201MOL    O4248442   3.666   3.549   6.517 -0.4167  0.2454 -0.1399
  201MOL    C4348443   3.745   3.624   6.423 -0.4800  0.3739 -0.3985
  201MOL    H4448444   3.481   3.468   6.824  0.3318 -1.1432 -1.3090
  201MOL    H4548445   3.558   3.613   6.783 -1.4600 -0.8727 -0.8781
  201MOL    H4648446   3.534   3.420   6.640 -0.4161 -0.0278 -0.4111
  201MOL    H4748447   3.725   3.574   6.328  1.0240 -0.8888 -0.0709
  201MOL    H4848448   3.854   3.618   6.429 -0.4298  2.0357  0.6884
  201MOL    H4948449   3.705   3.725   6.412 -5.2482 -1.3910 -0.0960
  201MOL    C5048450   3.645   3.270   6.740 -0.2163  0.4573 -0.2095
  201MOL    C5148451   3.521   3.177   6.756 -0.5224 -0.4624  0.6200
  201MOL    C5248452   3.440   3.166   6.625  0.0278  0.8114  0.5315
  201MOL    O5348453   3.318   3.195   6.619  0.0994 -0.6057 -0.5181
  201MOL    O5448454   3.511   3.113   6.524  0.1782 -0.4794  0.6439
  201MOL    C5548455   3.439   3.098   6.405 -0.5936  0.3970  1.0065
  201MOL    H5648456   3.719   3.231   6.669  0.2506 -0.4074  0.7430
  201MOL    H5748457   3.703   3.261   6.831  1.2255 -2.1593 -1.3131
  201MOL    H5848458   3.460   3.219   6.836 -0.4546 -0.5978  0.7420
  201MOL    H5948459   3.410   3.195   6.365 -0.6208 -0.1127 -0.2151
  201MOL    H6048460   3.356   3.028   6.402  0.7919 -1.2458  0.2501
  201MOL    H6148461   3.504   3.051   6.332 -0.8111  1.4084  0.1384
  201MOL    C6248462   3.564   3.037   6.807 -0.5315  0.5859  0.4567
  201MOL    C6348463   3.461   2.965   6.903  0.0806 -0.0713  0.5993
  201MOL    C6448464   3.433   3.043   7.038  0.3808  0.1086  0.1204
  201MOL    O6548465   3.514   3.133   7.074 -0.3802  0.0166 -0.1685
  201MOL    O6648466   3.316   3.016   7.100 -0.1796  0.2637  0.5289
  201MOL    C6748467   3.302   3.078   7.226  0.1285 -0.0484  0.2092
  201MOL    H6848468   3.589   2.965   6.729 -0.5673  1.1984 -0.1230
  201MOL    H6948469   3.662   3.038   6.855  0.0058  3.0347 -0.6152
  201MOL    H7048470   3.506   2.868   6.925  0.4863 -0.6697 -2.7396
  201MOL    H7148471   3.271   2.993   7.287 -0.4654  1.4672  2.0751
  201MOL    H7248472   3.243   3.169   7.228 -0.1669 -0.2446  2.1594
  201MOL    H7348473   3.395   3.108   7.275  1.6450  0.4632 -2.8906
  201MOL    C7448474   3.333   2.920   6.828  0.9496 -0.4152  0.1904
  201MOL    C7548475   3.283   2.790   6.887  0.3103 -0.6828  0.2480
  201MOL    C7648476   3.128   2.795   6.914  0.4513 -0.7450  0.0649
  201MOL    O7748477   3.091   2.779   7.028 -0.2569  0.2520 -0.1546
  201MOL    O7848478   3.054   2.814   6.799  0.0862  0.4290  0.0587
  201MOL    C7948479   2.912   2.812   6.813 -0.7663  0.0678 -0.2143
  201MOL    H8048480   3.258   2.999   6.822  0.4741 -0.7537  1.4590
  201MOL    H8148481   3.361   2.898   6.726 -0.7532  2.6138 -0.9973
  201MOL    H8248482   3.308   2.777   6.993  0.7886 -0.4641  0.1638
  201MOL    H8348483   2.875   2.735   6.881 -1.4310 -1.1374 -1.9075
  201MOL    H8448484   2.877   2.771   6.719  1.1972 -2.8334  0.2381
  201MOL    H8548485   2.865   2.905   6.845 -0.3569 -0.3589  1.6920
  201MOL    C8648486   3.330   2.666   6.809 -0.0708 -0.2226  0.0524
  201MOL    C8748487   3.286   2.525   6.842 -0.3581 -0.6201 -0.0770
  201MOL    C8848488   3.341   2.419   6.749 -0.2238  0.0980  0.0822
  201MOL    O8948489   3.263   2.336   6.701  0.2695 -0.1523 -0.0651
  201MOL    O9048490   3.477   2.417   6.736  0.2719 -0.5008 -0.2689
  201MOL    C9148491   3.539   2.315   6.664  0.4313 -0.2033 -0.7168
  201MOL    H9248492   3.295   2.680   6.706 -0.9207  0.1520  0.3830
  201MOL    H9348493   3.438   2.671   6.803 -0.0527  2.8843  1.8262
  201MOL    H9448494   3.178   2.534   6.827 -0.3852 -0.2855  0.2949
  201MOL    H9548495   3.644   2.334   6.683  0.3285  1.6899 -1.9380
  201MOL    H9648496   3.529   2.324   6.556  2.4171 -0.1621 -0.9040
  201MOL    H9748497   3.512   2.217   6.702 -3.6617  1.1622  0.2832
  201MOL    C9848498   3.328   2.488   6.994  0.2041  0.5700  0.6205
  201MOL    C9948499   3.234   2.373   7.049 -0.2249 -0.1418  0.3053
  201MOL   C10048500   3.326   2.250   7.093  0.5215 -0.0818  0.8653
  201MOL   O10148501   3.333   2.221   7.213 -0.1853 -0.1653  0.3654
  201MOL   O10248502   3.387   2.186   6.999  0.7636  0.2610  0.5918
  201MOL   C10348503   3.457   2.068   7.019  0.0151  0.2549 -0.7103
  201MOL   H10448504   3.433   2.460   7.006 -0.1091 -0.4025  1.2193
  201MOL   H10548505   3.312   2.572   7.061 -0.4712 -0.3173  1.5906
  201MOL   H10648506   3.173   2.332   6.968 -0.7972  0.9562  0.1626
  201MOL   H10748507   3.550   2.079   7.076 -0.8014  2.6792  0.2265
  201MOL   H10848508   3.486   2.036   6.919  1.6023  1.4338 -0.6476
  201MOL   H10948509   3.391   1.995   7.065 -0.8221  2.1443  1.1721
  201MOL   C11048510   3.127   2.424   7.157 -0.4106 -0.4327  0.0173
  201MOL   C11148511   2.995   2.346   7.193  0.1730  0.0757 -0.7211
  201MOL   C11248512   2.923   2.317   7.061 -0.5119 -0.1225 -0.3552
  201MOL   O11348513   2.901   2.206   7.027  0.3606  0.5583  0.3079
  201MOL   O11448514   2.896   2.428   6.995 -0.3290  0.3176 -0.2703
  201MOL   C11548515   2.838   2.426   6.869  0.4405 -0.3446 -0.2442
  201MOL   H11648516   3.169   2.436   7.257  0.1009  1.4859 -0.4049
  201MOL   H11748517   3.088   2.522   7.130 -1.0636 -0.2663  1.5125
  201MOL   H11848518   2.932   2.409   7.254  0.0850 -1.4270  0.7661
  201MOL   H11948519   2.873   2.512   6.812 -1.0108  0.2148 -0.3324
  201MOL   H12048520   2.729   2.425   6.872  0.4534 -0.9983  0.0748
  201MOL   H12148521   2.872   2.334   6.823  0.9663 -0.7071  0.8743
  201MOL   C12248522   3.022   2.212   7.274  0.2155  0.1529 -0.2384
  201MOL   C12348523   3.059   2.227   7.424 -0.1182 -0.3589 -0.2128
  201MOL   C12448524   2.998   2.338   7.506  0.2875 -0.0991  0.3118
  201MOL   O12548525   3.077   2.420   7.557  0.3732 -0.2986 -0.3758
  201MOL   O12648526   2.861   2.328   7.522 -0.1665 -0.1114  0.3756
  201MOL   C12748527   2.797   2.429   7.598  0.2220 -0.0902  0.2744
  201MOL   H12848528   2.926   2.160   7.279 -0.7637  1.6688 -2.6065
  201MOL   H12948529   3.085   2.144   7.216  0.9054  0.5426  0.0563
  201MOL   H13048530   3.163   2.257   7.417 -0.3309  0.3667 -0.2802
  201MOL   H13148531   2.768   2.397   7.698  1.4138 -0.7076  0.4431
  201MOL   H13248532   2.710   2.460   7.540  1.6064 -1.9373 -2.9251
  201MOL   H13348533   2.858   2.519   7.613 -1.1197  1.0609 -1.0515
  201MOL   C13448534   3.051   2.097   7.504 -0.1580  0.3801 -0.2622
  201MOL   C13548535   3.133   1.981   7.442 -0.6260  0.6036  0.5042
  201MOL   C13648536   3.246   1.935   7.532  0.6069  0.3883 -0.7121
  201MOL   O13748537   3.354   1.911   7.483  0.4011 -0.4522  0.6191
  201MOL   O13848538   3.212   1.910   7.658 -0.3422  0.0166 -0.3308
  201MOL   C13948539   3.313   1.877   7.750  0.8127 -0.2513  0.6962
  201MOL   H14048540   3.085   2.120   7.605  2.9148  1.1987 -1.4131
  201MOL   H14148541   2.952   2.054   7.518 -1.0818  2.8228  0.9233
  201MOL   H14248542   3.184   2.019   7.354  0.1051  0.5393  0.8923
  201MOL   H14348543   3.269   1.887   7.849  0.2284 -1.0365  0.5199
  201MOL   H14448544   3.393   1.949   7.736 -0.4424  0.9127 -0.6664
  201MOL   H14548545   3.340   1.772   7.740 -3.4562 -1.3811  0.1188
  201MOL   C14648546   3.049   1.857   7.405  0.7097  0.3531  0.1822
  201MOL   C14748547   3.021   1.848   7.254 -0.2212 -1.0133 -0.2024
  201MOL   C14848548   3.140   1.814   7.171  0.1746 -0.5490  0.5013
  201MOL   O14948549   3.157   1.862   7.058  0.0321 -0.2476  0.0558
  201MOL   O15048550   3.225   1.727   7.230  0.0627 -0.3671 -0.1586
  201MOL   C15148551   3.327   1.675   7.151  0.1393  0.4441 -0.2371
  201MOL   H15248552   3.101   1.764   7.430  1.0822  0.4726 -0.1632
  201MOL   H15348553   2.952   1.859   7.456 -0.0575  2.5420 -1.2787
  201MOL   H15448554   2.990   1.947   7.221 -0.1480 -1.2350 -0.9382
  201MOL   H15548555   3.396   1.602   7.194  0.5561 -0.0041 -1.6369
  201MOL   H15648556   3.383   1.752   7.097  0.0637 -0.2458 -1.3229
  201MOL   H15748557   3.274   1.615   7.077 -0.0403  0.1838  0.1003
  201MOL   C15848558   2.911   1.750   7.208  0.1389  0.1292  0.3066
  201MOL   C15948559   2.777   1.766   7.280  0.2021  0.1307 -0.0590
  201MOL   C16048560   2.723   1.906   7.268 -0.0120  0.4461  0.0733
  201MOL   O16148561   2.708   1.966   7.163  0.4183 -0.0100 -0.1256
  201MOL   O16248562   2.708   1.966   7.385  0.2164 -0.0029  0.3412
  201MOL   C16348563   2.669   2.102   7.387 -0.0969  0.1021 -0.0481
  201MOL   H16448564   2.881   1.756   7.104 -1.4739  0.0736  0.7493
  201MOL   H16548565   2.935   1.644   7.223  0.5769  0.1484 -0.2599
  201MOL   H16648566   2.786   1.745   7.387  1.0520 -0.7367 -0.2929
  201MOL   H16748567   2.685   2.149   7.485 -0.8735  0.2108  0.0324
  201MOL   H16848568   2.562   2.101   7.367  0.3020 -1.0140 -2.2750
  201MOL   H16948569   2.730   2.161   7.319  1.1535  0.3891  1.2863
  201MOL   C17048570   2.684   1.657   7.214  0.1048 -0.7224  0.5561
  201MOL   C17148571   2.532   1.674   7.230  0.3852 -0.3616 -0.2841
  201MOL   C17248572   2.456   1.569   7.137 -0.3260 -0.0176 -0.4246
  201MOL   O17348573   2.337   1.578   7.099  0.7835 -0.0853  0.0562
  201MOL   O17448574   2.537   1.453   7.110  0.0456 -0.2375  0.4311
  201MOL   C17548575   2.495   1.355   7.017 -0.1343 -0.8769  0.0895
  201MOL   H17648576   2.694   1.651   7.106  0.0570  0.3578  0.4911
  201MOL   H17748577   2.717   1.558   7.248  0.0462 -1.5084 -1.6128
  201MOL   H17848578   2.508   1.772   7.188  1.7072  0.1707  0.1608
  201MOL   H17948579   2.579   1.310   6.963 -0.3431  0.2674 -1.2311
  201MOL   H18048580   2.416   1.385   6.948  0.7581 -1.5599 -1.2620
  201MOL   H18148581   2.455   1.266   7.066 -1.3522 -0.4684 -0.1395
  201MOL   C18248582   2.491   1.673   7.377  0.6586 -0.1408  0.4479
  201MOL   C18348583   2.343   1.715   7.398  0.2500  0.0689 -1.0178
  201MOL   C18448584   2.285   1.666   7.527  0.6918 -0.0444  0.4545
  201MOL   O18548585   2.220   1.561   7.534 -0.3061  0.0505  0.3070
  201MOL   O18648586   2.313   1.739   7.633 -0.3392 -0.2909  0.6240
  201MOL   C18748587   2.243   1.717   7.756  0.2704  0.4940 -0.1959
  201MOL   H18848588   2.507   1.573   7.417  0.7143 -0.7156 -0.9674
  201MOL   H18948589   2.556   1.742   7.430 -0.9706  2.4790 -0.8330
  201MOL   H19048590   2.275   1.662   7.331 -1.3089 -0.0319  0.5798
  201MOL   H19148591   2.279   1.629   7.807  0.0905  1.7765  2.2138
  201MOL   H19248592   2.135   1.706   7.745  0.1768  0.4804  0.7640
  201MOL   H19348593   2.240   1.796   7.831  1.2823  0.0291  0.3339
  201MOL   C19448594   2.330   1.867   7.391 -0.5055  0.0560  0.1088
  201MOL   C19548595   2.179   1.921   7.399  0.7285 -0.3874 -0.2440
  201MOL   C19648596   2.189   2.076   7.413 -0.5572  0.7811 -0.1970
  201MOL   O19748597   2.296   2.135   7.396 -0.1220 -0.0917  0.1323
  201MOL   O19848598   2.074   2.130   7.446 -0.5741 -0.1777  0.0737
  201MOL   C19948599   2.067   2.268   7.464 -0.3678  0.7115  0.3807
  201MOL   H20048600   2.407   1.914   7.454  1.5314 -1.7425 -0.9694
  201MOL   H20148601   2.368   1.903   7.296 -0.2823  0.9437  0.5264
  201MOL   H20248602   2.134   1.880   7.490  1.3731 -1.1849 -0.2803
  201MOL   H20348603   2.122   2.301   7.553 -1.0267 -1.1421  1.5166
  201MOL   H20448604   1.960   2.285   7.478 -0.0272  1.5208  2.1677
  201MOL   H20548605   2.101   2.325   7.378 -1.6618  1.0039  0.0470
  201MOL   C20648606   2.085   1.889   7.277  0.2734 -0.7014 -0.5444
  201MOL   C20748607   1.931   1.915   7.306 -0.1422 -0.1113  0.2500
  201MOL   C20848608   1.881   2.021   7.214  0.0444 -0.1445  0.2506
  201MOL   O20948609   1.919   2.041   7.102 -0.0783 -1.0416  0.1475
  201MOL   O21048610   1.773   2.079   7.278 -0.4561 -0.2598  0.7327
  201MOL   C21148611   1.689   2.163   7.210  0.8409 -1.1268  0.4851
  201MOL   H21248612   2.126   1.950   7.197  1.2157 -2.3461 -1.3502
  201MOL   H21348613   2.096   1.794   7.224 -1.3266 -1.2575  0.1036
  201MOL   H21448614   1.924   1.957   7.407  1.4233  1.2732 -0.1914
  201MOL   H21548615   1.639   2.108   7.130  2.5913  0.0918 -1.5101
  201MOL   H21648616   1.743   2.252   7.177 -0.6466  0.4258  2.1221
  201MOL   H21748617   1.614   2.204   7.278  0.1000 -0.3160 -0.8023
  201MOL   C21848618   1.849   1.786   7.292 -0.5334  0.3651  0.0129
  201MOL   C21948619   1.895   1.670   7.390  0.2451  1.1914  0.4721
  201MOL   C22048620   1.848   1.691   7.532 -0.2924 -0.4747 -0.3850
  201MOL   O22148621   1.927   1.733   7.621  0.0385 -0.4753  0.2895
  201MOL   O22248622   1.720   1.662   7.545 -0.6880  0.2007  0.2791
  201MOL   C22348623   1.668   1.659   7.675  0.4750  0.1967 -0.8463
  201MOL   H22448624   1.742   1.798   7.309 -0.1181  2.9621  1.1263
  201MOL   H22548625   1.851   1.765   7.185 -0.7970  0.9209 -0.1026
  201MOL   H22648626   2.002   1.682   7.408  0.5209 -0.3002 -0.0360
  201MOL   H22748627   1.742   1.630   7.749 -0.9835  0.1488  0.6313
  201MOL   H22848628   1.586   1.588   7.682  1.0142 -0.3413  0.0174
  201MOL   H22948629   1.617   1.755   7.690 -1.2904 -0.5947 -1.6047
  201MOL   C23048630   1.868   1.526   7.335  0.1646 -0.4960  0.8286
  201MOL   C23148631   1.739   1.504   7.257  0.1119 -0.0225 -0.0078
  201MOL   C23248632   1.692   1.359   7.257  0.1724  0.3986 -0.6445
  201MOL   O23348633   1.646   1.305   7.356 -0.1679 -0.2660  0.1242
  201MOL   O23448634   1.712   1.305   7.137  0.1293 -0.6978  0.8106
  201MOL   C23548635   1.689   1.167   7.135 -0.0774  0.2332  0.4832
  201MOL   H23648636   1.945   1.489   7.267  0.4632 -0.0338  0.9141
  201MOL   H23748637   1.868   1.451   7.414 -1.7950 -3.4993 -1.8688
  201MOL   H23848638   1.747   1.533   7.152  0.3256 -2.0943 -0.5926
  201MOL   H23948639   1.760   1.113   7.197 -0.0358  0.2146  0.4192
  201MOL   H24048640   1.689   1.123   7.036 -0.3743 -1.6918  1.3138
  201MOL   H24148641   1.596   1.137   7.183  1.1054 -2.2302  1.2906
  201MOL   H24248642   1.653   1.560   7.293  0.0189 -1.1870  1.6636
  202MOL     C148643   5.683   6.993   0.511  0.0144 -0.1496  0.8210
  202MOL     C248644   5.809   7.074   0.477 -0.1402  0.0668  0.2439
  202MOL     C348645   5.919   7.062   0.579 -0.6286  0.0940 -0.7966
  202MOL     O448646   5.933   7.153   0.661 -0.0904 -0.4489  0.3187
  202MOL     O548647   5.985   6.944   0.577  0.0386 -0.1342 -0.0009
  202MOL     C648648   6.093   6.927   0.675 -0.1611 -0.0191 -0.3743
  202MOL     H748649   5.692   6.885   0.522  2.9658 -0.0497 -0.0438
  202MOL     H848650   5.596   7.009   0.447  0.3449  0.6223  0.5532
  202MOL     H948651   5.788   7.179   0.459 -1.4767 -0.0627  0.9735
  202MOL    H1048652   6.049   6.922   0.774 -1.7331 -0.0165 -1.0484
  202MOL    H1148653   6.167   7.007   0.663  0.3074 -0.4421 -0.3274
  202MOL    H1248654   6.156   6.840   0.659 -1.0172 -0.2212 -2.8663
  202MOL    H1348655   5.651   7.040   0.604 -0.2792  0.2042  0.5447
  202MOL    C1448656   5.864   7.043   0.333  0.1733 -0.1403 -0.3060
  202MOL    C1548657   5.978   7.143   0.281  0.4004 -0.7114  0.0230
  202MOL    C1648658   6.094   7.076   0.205 -0.0644 -0.0418 -0.2069
  202MOL    O1748659   6.127   7.130   0.096 -0.2165 -0.2286 -0.0936
  202MOL    O1848660   6.139   6.965   0.266  0.2817  0.5145 -0.0225
  202MOL    C1948661   6.245   6.893   0.213 -0.0002  0.2961  0.2603
  202MOL    H2048662   5.907   6.943   0.330  1.3041  0.2962  0.7474
  202MOL    H2148663   5.780   7.039   0.264 -0.3696 -0.7273  0.3843
  202MOL    H2248664   6.026   7.177   0.373 -0.0067 -0.1752  0.0416
  202MOL    H2348665   6.277   6.838   0.302 -1.4982  1.1300  1.3331
  202MOL    H2448666   6.325   6.961   0.184  0.1432  0.1034  0.1977
  202MOL    H2548667   6.223   6.820   0.135 -0.7368  1.5269 -0.7018
  202MOL    C2648668   5.927   7.270   0.213  0.3792  0.2396 -0.6494
  202MOL    C2748669   6.027   7.388   0.248  0.0584  0.5124  0.4180
  202MOL    C2848670   6.036   7.487   0.133 -0.1272  0.5516 -0.3638
  202MOL    O2948671   5.956   7.492   0.038 -0.0340 -0.1757 -0.1967
  202MOL    O3048672   6.148   7.557   0.136  0.0249 -0.7420 -0.1631
  202MOL    C3148673   6.174   7.656   0.034 -0.2041 -0.4948 -0.0823
  202MOL    H3248674   5.915   7.259   0.106 -1.3801  1.0126 -0.5379
  202MOL    H3348675   5.827   7.303   0.241  0.3239  1.7774 -2.5131
  202MOL    H3448676   6.125   7.344   0.267  1.0491  2.1744 -0.7288
  202MOL    H3548677   6.204   7.750   0.081 -0.4141 -1.0043  1.0947
  202MOL    H3648678   6.087   7.672   7.903  0.7824 -1.7590 -1.7689
  202MOL    H3748679   6.257   7.625   7.904  0.7060  0.6574  0.5330
  202MOL    C3848680   6.000   7.456   0.387  0.5304  0.6053  0.0960
  202MOL    C3948681   6.128   7.490   0.463  0.0760  0.4945 -0.3972
  202MOL    C4048682   6.121   7.611   0.559  0.4525  0.5915 -0.3308
  202MOL    O4148683   6.169   7.715   0.531  0.3919 -0.1366  0.7523
  202MOL    O4248684   6.039   7.590   0.666  0.0612 -0.3513 -0.0883
  202MOL    C4348685   6.041   7.706   0.749 -0.0216  0.6482 -0.1827
  202MOL    H4448686   5.949   7.551   0.372 -0.9060  0.1492  1.9645
  202MOL    H4548687   5.931   7.396   0.447 -0.4761  1.2371 -0.4258
  202MOL    H4648688   6.182   7.534   0.380 -2.6384  0.3060 -2.3470
  202MOL    H4748689   6.018   7.679   0.853  0.7098 -0.9654 -0.4120
  202MOL    H4848690   5.964   7.780   0.727  0.8939  2.2273  1.7716
  202MOL    H4948691   6.137   7.757   0.745 -0.2426  0.9034 -3.0006
  202MOL    C5048692   6.193   7.374   0.533 -0.4392  0.5120 -0.3009
  202MOL    C5148693   6.346   7.362   0.522 -0.4455 -0.4055  0.3695
  202MOL    C5248694   6.425   7.478   0.588  0.0369  0.3349  0.7899
  202MOL    O5348695   6.503   7.544   0.522 -0.3983 -0.3192  0.1556
  202MOL    O5448696   6.397   7.500   0.716  0.1766  0.0180  0.3420
  202MOL    C5548697   6.412   7.628   0.774 -0.7369  0.6402  1.4734
  202MOL    H5648698   6.157   7.358   0.635  1.6124 -1.8308  0.1038
  202MOL    H5748699   6.159   7.282   0.486 -1.1082  1.2711 -1.3256
  202MOL    H5848700   6.377   7.364   0.417  0.0376 -1.1534  0.4926
  202MOL    H5948701   6.361   7.631   0.871 -0.5212 -3.2500  1.7909
  202MOL    H6048702   6.361   7.709   0.722 -0.4517 -0.0709  0.0792
  202MOL    H6148703   6.512   7.669   0.784 -0.3784  0.2294 -0.3288
  202MOL    C6248704   6.388   7.231   0.593  0.2152 -0.1751 -0.3578
  202MOL    C6348705   6.539   7.190   0.601  0.3162 -0.0296  1.0853
  202MOL    C6448706   6.558   7.039   0.647  0.0452  0.7158  0.8066
  202MOL    O6548707   6.633   7.013   0.733 -0.2541  0.3526  0.0931
  202MOL    O6648708   6.486   6.951   0.587 -0.5045 -0.5070 -0.0660
  202MOL    C6748709   6.462   6.829   0.648 -0.1882  0.5041 -0.5540
  202MOL    H6848710   6.346   7.213   0.692 -0.0953  1.5691 -0.1470
  202MOL    H6948711   6.336   7.154   0.536 -1.3321 -0.7442  1.7573
  202MOL    H7048712   6.591   7.255   0.671  1.0554  1.5442 -0.8963
  202MOL    H7148713   6.400   6.844   0.736  0.4856  1.7772 -0.2863
  202MOL    H7248714   6.549   6.768   0.676  0.6307  1.4786 -0.9318
  202MOL    H7348715   6.405   6.783   0.568  0.6134  0.7322 -1.2638
  202MOL    C7448716   6.611   7.214   0.464 -0.2075 -0.1866 -0.3700
  202MOL    C7548717   6.587   7.130   0.342  0.2636 -0.4239  0.2558
  202MOL    C7648718   6.558   7.218   0.214 -0.0043  0.1497  0.0156
  202MOL    O7748719   6.649   7.274   0.160  0.2112  0.7833 -0.0696
  202MOL    O7848720   6.429   7.226   0.193 -0.0952  0.5054 -0.0866
  202MOL    C7948721   6.391   7.311   0.079 -0.0597 -0.2065 -0.3716
  202MOL    H8048722   6.582   7.316   0.441 -2.0796 -0.2807  1.3939
  202MOL    H8148723   6.718   7.219   0.484  0.0972 -2.4281 -1.2725
  202MOL    H8248724   6.499   7.066   0.342 -0.0608 -0.0984 -3.7289
  202MOL    H8348725   6.283   7.309   0.063  0.1566  1.3065 -2.1786
  202MOL    H8448726   6.446   7.295   7.918 -1.0837 -1.3739 -0.7848
  202MOL    H8548727   6.416   7.412   0.110 -0.1400  0.0177 -1.0377
  202MOL    C8648728   6.713   7.042   0.317  1.2696  0.0819 -0.4169
  202MOL    C8748729   6.717   6.924   0.214 -0.2881 -0.3868 -0.1038
  202MOL    C8848730   6.612   6.814   0.232 -0.0762 -0.5144 -0.2368
  202MOL    O8948731   6.530   6.772   0.151  0.8687 -0.3902  0.5840
  202MOL    O9048732   6.626   6.745   0.353  0.1306  0.2949  0.9660
  202MOL    C9148733   6.532   6.642   0.390 -0.0548  0.2823 -0.1789
  202MOL    H9248734   6.793   7.114   0.299  0.6494  0.4472 -1.7056
  202MOL    H9348735   6.743   6.995   0.411 -0.3149  0.7142  0.4295
  202MOL    H9448736   6.809   6.867   0.231 -0.3426 -0.2206  0.7770
  202MOL    H9548737   6.433   6.687   0.391  0.3664  1.1974  1.3484
  202MOL    H9648738   6.550   6.626   0.496  2.0003 -1.3548 -0.7475
  202MOL    H9748739   6.536   6.548   0.335 -0.2937 -0.8323  1.6676
  202MOL    C9848740   6.718   6.956   0.064 -0.0895 -0.2087  0.0814
  202MOL    C9948741   6.821   7.064   0.018  0.2258  0.3287 -0.3447
  202MOL   C10048742   6.964   7.018   0.057  0.2861  0.0394 -0.0493
  202MOL   O10148743   7.000   6.901   0.043 -0.2802 -0.2009  0.0206
  202MOL   O10248744   7.047   7.121   0.096 -0.2102 -0.0272 -0.8204
  202MOL   C10348745   7.183   7.095   0.132  0.0131 -0.8865  0.1597
  202MOL   H10448746   6.718   6.866   0.002  0.2733  0.6976 -1.2595
  202MOL   H10548747   6.624   6.997   0.030  1.0682  2.1397 -0.3942
  202MOL   H10648748   6.815   7.154   0.079 -0.0102 -1.7638  2.8066
  202MOL   H10748749   7.229   7.190   0.158 -0.4674 -1.0781  1.7414
  202MOL   H10848750   7.244   7.056   0.050 -0.5930 -0.1459 -0.6522
  202MOL   H10948751   7.201   7.031   0.219  1.3193 -0.2877  0.3557
  202MOL   C11048752   6.815   7.101   7.800 -0.0789 -0.7370  0.0752
  202MOL   C11148753   6.757   7.243   7.769 -0.0323 -0.5159  0.4244
  202MOL   C11248754   6.860   7.347   7.805 -0.5323  0.6898 -0.1015
  202MOL   O11348755   6.847   7.432   7.892  0.6921  0.2442 -0.0052
  202MOL   O11448756   6.972   7.329   7.733  0.3119  0.0269 -0.3250
  202MOL   C11548757   7.067   7.423   7.746  0.2841 -0.3393 -0.5073
  202MOL   H11648758   6.917   7.091   7.762  0.5198  0.4052  1.3367
  202MOL   H11748759   6.769   7.019   7.745 -0.1475 -1.0100  0.5394
  202MOL   H11848760   6.671   7.262   7.834 -0.2064  2.0313 -0.4649
  202MOL   H11948761   7.150   7.381   7.688  2.5674  1.8554  1.0755
  202MOL   H12048762   7.094   7.448   7.848  2.1821  3.1445 -1.7928
  202MOL   H12148763   7.034   7.511   7.692  4.9876  0.7990 -1.7308
  202MOL   C12248764   6.713   7.261   7.621  0.7921 -0.2721  0.4679
  202MOL   C12348765   6.606   7.175   7.551  0.5328  0.0217  0.0292
  202MOL   C12448766   6.471   7.180   7.632 -0.0025  0.1138 -0.4956
  202MOL   O12548767   6.417   7.285   7.646  0.2613 -0.5151  0.1877
  202MOL   O12648768   6.437   7.059   7.690 -0.3332  0.0142  0.3390
  202MOL   C12748769   6.317   7.031   7.755 -0.2825  0.2505 -0.0343
  202MOL   H12848770   6.687   7.366   7.606 -0.8089 -0.6934  0.1889
  202MOL   H12948771   6.803   7.260   7.560  1.4038 -0.4565  1.3652
  202MOL   H13048772   6.650   7.077   7.564 -0.6555 -0.5110  0.0817
  202MOL   H13148773   6.276   7.116   7.810  0.2950  0.7468 -0.3750
  202MOL   H13248774   6.327   6.945   7.821 -1.5939 -0.0512 -0.2062
  202MOL   H13348775   6.235   7.010   7.687  0.9984  0.9310 -1.8066
  202MOL   C13448776   6.585   7.212   7.404 -0.6197  0.6123  0.6906
  202MOL   C13548777   6.710   7.185   7.320 -0.3992 -0.5585  0.4916
  202MOL   C13648778   6.728   7.034   7.304 -0.4581 -0.0096  0.0714
  202MOL   O13748779   6.647   6.978   7.229 -0.7760 -0.6508  0.0221
  202MOL   O13848780   6.829   6.983   7.367 -0.0913 -0.2694 -0.6128
  202MOL   C13948781   6.845   6.845   7.374 -0.4159  0.3424 -1.0247
  202MOL   H14048782   6.508   7.145   7.366  1.1423  0.4862 -2.8651
  202MOL   H14148783   6.547   7.313   7.394 -1.4585  0.6545  3.6751
  202MOL   H14248784   6.801   7.214   7.373 -0.4323  1.5084 -0.5525
  202MOL   H14348785   6.755   6.789   7.348  0.8430 -1.0741 -2.4110
  202MOL   H14448786   6.874   6.813   7.474  0.5175  0.6540 -1.1959
  202MOL   H14548787   6.915   6.824   7.293  0.1740 -0.8551 -0.2126
  202MOL   C14648788   6.705   7.275   7.188 -0.0166 -0.1722  0.0216
  202MOL   C14748789   6.838   7.301   7.118 -0.4139 -0.6741 -0.9810
  202MOL   C14848790   6.838   7.296   6.970 -0.2937  0.0061  0.1635
  202MOL   O14948791   6.934   7.247   6.909 -0.0597 -0.2400  0.1658
  202MOL   O15048792   6.729   7.353   6.917 -0.2707  0.0441  0.4239
  202MOL   C15148793   6.706   7.333   6.775 -0.7689 -0.4003  0.1139
  202MOL   H15248794   6.637   7.232   7.115 -0.8918  0.5054  0.4267
  202MOL   H15348795   6.660   7.370   7.218  0.9324 -0.3161  1.9630
  202MOL   H15448796   6.899   7.215   7.147  0.5529  0.9417  1.9704
  202MOL   H15548797   6.768   7.401   6.717 -0.6731  2.2216  3.1917
  202MOL   H15648798   6.601   7.344   6.750 -0.7880 -0.3703  0.2058
  202MOL   H15748799   6.723   7.231   6.741  2.8607 -0.5799  2.2153
  202MOL   C15848800   6.926   7.407   7.188 -0.0590  0.1990  0.3059
  202MOL   C15948801   7.075   7.380   7.205  0.3970 -0.4522  0.4332
  202MOL   C16048802   7.162   7.511   7.207  0.4013 -0.2922  0.4590
  202MOL   O16148803   7.135   7.607   7.275 -0.8260 -0.3411  0.9489
  202MOL   O16248804   7.287   7.492   7.153  0.0230  0.3657  0.2879
  202MOL   C16348805   7.391   7.581   7.183 -0.3197  0.0450 -0.5429
  202MOL   H16448806   6.908   7.500   7.135  0.1515 -0.3241 -0.7054
  202MOL   H16548807   6.890   7.431   7.288  0.2212  1.3194  0.1393
  202MOL   H16648808   7.103   7.330   7.112 -1.4751 -3.3748  1.3922
  202MOL   H16748809   7.365   7.682   7.151 -0.1828  0.3566  0.3126
  202MOL   H16848810   7.482   7.554   7.129 -0.5519  0.5491 -1.1841
  202MOL   H16948811   7.411   7.591   7.290 -1.8631  0.9224 -0.3318
  202MOL   C17048812   7.116   7.290   7.315  0.0484 -0.0124  0.1496
  202MOL   C17148813   7.263   7.241   7.325 -0.5834 -0.4134  0.5365
  202MOL   C17248814   7.303   7.186   7.467 -0.2697  0.6270 -0.5017
  202MOL   O17348815   7.414   7.202   7.522  0.1611  0.3507  0.1932
  202MOL   O17448816   7.213   7.105   7.516 -0.2893 -0.5077 -0.4292
  202MOL   C17548817   7.206   7.067   7.650 -0.2302  0.1243  0.3341
  202MOL   H17648818   7.092   7.348   7.404  0.4581  1.9356 -0.9903
  202MOL   H17748819   7.037   7.216   7.303  0.3699 -0.2238 -0.6715
  202MOL   H17848820   7.315   7.336   7.323 -0.9093 -0.2550 -0.9080
  202MOL   H17948821   7.286   6.996   7.674  0.2834  0.6749  0.2540
  202MOL   H18048822   7.115   7.017   7.683 -0.7482 -0.6534 -2.1570
  202MOL   H18148823   7.228   7.147   7.720 -1.1157 -0.6292  1.5038
  202MOL   C18248824   7.311   7.169   7.199 -0.2799  1.1401 -0.6096
  202MOL   C18348825   7.276   7.016   7.183 -0.0758  0.3628  0.1689
  202MOL   C18448826   7.238   6.980   7.038 -0.0905 -0.4925  0.2968
  202MOL   O18548827   7.307   7.015   6.939 -0.2057 -0.1991 -0.0480
  202MOL   O18648828   7.136   6.900   7.040  0.0690 -0.2009 -0.4804
  202MOL   C18748829   7.080   6.855   6.922  0.1590 -0.0313  0.6784
  202MOL   H18848830   7.276   7.234   7.118  1.1629  2.9129  0.1588
  202MOL   H18948831   7.420   7.168   7.197 -0.2829 -1.9364 -0.9060
  202MOL   H19048832   7.184   7.020   7.242 -1.2580  1.1631 -1.6627
  202MOL   H19148833   7.021   6.765   6.938  0.0687  0.3196  2.3956
  202MOL   H19248834   7.153   6.843   6.841 -0.2338  1.4321  0.0931
  202MOL   H19348835   7.010   6.927   6.880 -0.6684 -0.8734  0.6080
  202MOL   C19448836   7.384   6.925   7.246  0.2161  0.0798  0.1107
  202MOL   C19548837   7.335   6.782   7.266  0.2680 -0.0933  0.4712
  202MOL   C19648838   7.453   6.686   7.296 -0.3989 -0.0339 -0.2438
  202MOL   O19748839   7.489   6.607   7.211  0.2970  0.0347 -0.6757
  202MOL   O19848840   7.502   6.694   7.423 -0.0227  0.2409 -0.2834
  202MOL   C19948841   7.623   6.637   7.459 -0.3295 -0.5417  0.0531
  202MOL   H20048842   7.471   6.928   7.181  1.0647  1.7401  1.2848
  202MOL   H20148843   7.416   6.964   7.342  0.2863  0.3133 -0.0072
  202MOL   H20248844   7.296   6.738   7.174 -0.8730  0.1415  0.8315
  202MOL   H20348845   7.694   6.718   7.473 -1.6675  1.0935 -2.1891
  202MOL   H20448846   7.665   6.571   7.382  0.6943  1.5361 -1.2091
  202MOL   H20548847   7.611   6.581   7.551  2.3611  0.2275  0.9218
  202MOL   C20648848   7.228   6.769   7.387  0.1064  0.2413  0.1146
  202MOL   C20748849   7.199   6.622   7.444 -0.1363 -0.5326 -0.5329
  202MOL   C20848850   7.192   6.619   7.599 -0.3458  0.1349 -0.1307
  202MOL   O20948851   7.292   6.580   7.664 -0.3704 -0.5875 -0.2373
  202MOL   O21048852   7.085   6.677   7.647 -0.3087 -0.3609 -0.3975
  202MOL   C21148853   7.043   6.645   7.780 -0.7545  0.7700  0.2157
  202MOL   H21248854   7.256   6.839   7.467 -1.5681  0.5712  0.4339
  202MOL   H21348855   7.135   6.806   7.345 -0.9550  0.3287  2.4406
  202MOL   H21448856   7.285   6.557   7.427 -0.7003 -1.8444  1.4793
  202MOL   H21548857   6.942   6.684   7.793 -1.0004 -0.1759  1.2953
  202MOL   H21648858   7.116   6.685   7.851 -0.7332  0.0300  0.6167
  202MOL   H21748859   7.042   6.537   7.800  2.4067  0.8845  1.2707
  202MOL   C21848860   7.077   6.552   7.377  0.4465 -0.8455 -0.2890
  202MOL   C21948861   7.047   6.409   7.426  0.0647  0.3688  0.3581
  202MOL   C22048862   6.939   6.399   7.536  0.6456  0.2787  0.4019
  202MOL   O22148863   6.840   6.476   7.543  0.1133 -0.1942 -0.7427
  202MOL   O22248864   6.975   6.303   7.630  0.1643 -0.3839 -0.0909
  202MOL   C22348865   6.883   6.273   7.734 -0.4234  0.7685 -1.0805
  202MOL   H22448866   6.992   6.617   7.397  0.5474 -0.8121  0.0510
  202MOL   H22548867   7.084   6.550   7.269  1.2900  2.0713 -0.3525
  202MOL   H22648868   7.131   6.356   7.470 -0.9217 -1.2118  0.3747
  202MOL   H22748869   6.934   6.191   7.785 -0.2775  0.9005 -1.0151
  202MOL   H22848870   6.784   6.243   7.697 -0.8388  0.6469  0.1099
  202MOL   H22948871   6.871   6.358   7.801 -0.1393 -0.5714  0.7010
  202MOL   C23048872   7.008   6.312   7.314  0.3469 -0.4696  0.0028
  202MOL   C23148873   7.005   6.163   7.353  0.7173 -0.3066  0.2387
  202MOL   C23248874   6.989   6.067   7.234  0.3223  0.7225 -0.0669
  202MOL   O23348875   6.967   6.104   7.119 -0.2658 -0.7584  0.3438
  202MOL   O23448876   7.005   5.939   7.276 -0.5770  0.1263  0.2155
  202MOL   C23548877   6.991   5.835   7.183  0.4272 -0.6646 -0.3852
  202MOL   H23648878   6.906   6.335   7.285 -0.0633 -1.7629  0.3863
  202MOL   H23748879   7.085   6.316   7.237  1.7514  0.6173  1.4248
  202MOL   H23848880   6.920   6.134   7.416  1.5322 -1.6476  0.7491
  202MOL   H23948881   6.894   5.831   7.133  1.1391  0.2628 -1.8645
  202MOL   H24048882   6.988   5.738   7.232 -3.0345  0.7556  2.3773
  202MOL   H24148883   7.073   5.849   7.112 -0.5002  3.7326 -0.7231
  202MOL   H24248884   7.095   6.127   7.402  0.0581 -0.1510  1.6073
  203MOL     C148885   5.303   3.841   4.584  1.0370  0.1609  0.2126
  203MOL     C248886   5.190   3.836   4.478 -0.1079  0.0391 -0.6575
  203MOL     C348887   5.221   3.749   4.356  0.2472  0.1726  0.2873
  203MOL     O448888   5.247   3.811   4.252 -0.5823 -0.2564  0.1465
  203MOL     O548889   5.218   3.619   4.371 -0.4530 -0.2408  0.0939
  203MOL     C648890   5.219   3.538   4.256 -0.6168  0.0079  0.5264
  203MOL     H748891   5.290   3.928   4.649 -1.6224  0.4372 -0.6212
  203MOL     H848892   5.399   3.873   4.545  1.4728  0.0148  1.1629
  203MOL     H948893   5.179   3.936   4.435  1.9150  1.2900  1.6374
  203MOL    H1048894   5.170   3.446   4.286 -0.8018  0.2306  0.9014
  203MOL    H1148895   5.323   3.504   4.250 -0.1844  1.3712 -0.0092
  203MOL    H1248896   5.191   3.578   4.159  2.7484 -0.7779 -0.8652
  203MOL    H1348897   5.318   3.753   4.646 -0.5745 -0.7954 -0.7245
  203MOL    C1448898   5.067   3.798   4.545  0.1919 -0.0982 -0.6373
  203MOL    C1548899   4.928   3.812   4.473  0.0918 -0.0731  0.7116
  203MOL    C1648900   4.885   3.686   4.392 -0.0134 -0.6298  0.0869
  203MOL    O1748901   4.928   3.573   4.418 -0.1898 -0.0463 -0.4733
  203MOL    O1848902   4.817   3.715   4.278  0.0143  0.0840 -0.4111
  203MOL    C1948903   4.772   3.608   4.197 -0.5492 -0.4110  0.3254
  203MOL    H2048904   5.081   3.705   4.600 -0.1828 -0.5945 -1.3719
  203MOL    H2148905   5.071   3.876   4.620  3.2017 -1.8843  1.1672
  203MOL    H2248906   4.948   3.880   4.389 -1.7501  0.0292  0.3286
  203MOL    H2348907   4.709   3.649   4.118 -1.3908 -1.2061  0.5759
  203MOL    H2448908   4.698   3.550   4.252 -0.4126 -0.6799  0.2212
  203MOL    H2548909   4.846   3.536   4.162 -2.3389 -1.8588 -0.5500
  203MOL    C2648910   4.816   3.870   4.556  0.2899 -0.8212 -0.0445
  203MOL    C2748911   4.665   3.870   4.506 -0.3600 -0.5859  0.2946
  203MOL    C2848912   4.567   3.898   4.617 -0.2115  0.2389 -0.1327
  203MOL    O2948913   4.501   3.803   4.658  0.3472 -0.1550  0.1055
  203MOL    O3048914   4.554   4.030   4.645 -0.4843  0.3980  0.0673
  203MOL    C3148915   4.466   4.057   4.749  0.5787 -0.0428 -0.9692
  203MOL    H3248916   4.811   3.809   4.647 -1.2724  1.3272  1.3676
  203MOL    H3348917   4.840   3.970   4.590 -0.2526 -0.5206 -0.5400
  203MOL    H3448918   4.638   3.769   4.478 -3.1006 -0.0258  0.8545
  203MOL    H3548919   4.485   4.005   4.843  1.7854 -1.8977 -2.2150
  203MOL    H3648920   4.364   4.055   4.712  0.2471  0.7887 -0.1470
  203MOL    H3748921   4.475   4.160   4.786 -0.4218 -0.6554  1.0662
  203MOL    C3848922   4.644   3.967   4.387 -0.2146 -0.3664 -0.0731
  203MOL    C3948923   4.506   3.965   4.324  0.2469  0.0587 -0.5027
  203MOL    C4048924   4.478   4.067   4.216 -0.6061 -0.0395  0.2547
  203MOL    O4148925   4.377   4.139   4.219  0.5104  0.0916 -0.5223
  203MOL    O4248926   4.574   4.062   4.119 -0.7236 -0.3228  0.5220
  203MOL    C4348927   4.537   4.139   3.997  0.6390  0.3270 -0.3577
  203MOL    H4448928   4.687   4.064   4.413  1.4758 -0.5443 -2.0654
  203MOL    H4548929   4.708   3.929   4.307 -2.2768 -1.4519 -1.2460
  203MOL    H4648930   4.443   4.007   4.402 -1.1368  0.4385 -1.7869
  203MOL    H4748931   4.497   4.239   4.011 -0.3479  0.2929 -2.7606
  203MOL    H4848932   4.454   4.091   3.946  0.6103 -0.2889  0.2546
  203MOL    H4948933   4.615   4.142   3.921 -1.8081  2.0926 -2.8698
  203MOL    C5048934   4.460   3.821   4.288 -0.1558 -0.5589 -0.8019
  203MOL    C5148935   4.324   3.795   4.217  0.1879  0.7292 -0.3722
  203MOL    C5248936   4.318   3.787   4.067  0.1968 -0.8609 -0.5219
  203MOL    O5348937   4.399   3.832   3.993  0.3976  0.1349  0.7571
  203MOL    O5448938   4.195   3.763   4.025  0.7136 -0.7632  0.3889
  203MOL    C5548939   4.176   3.742   3.889  0.3402  0.3297 -0.5165
  203MOL    H5648940   4.544   3.779   4.232 -0.1896  0.4994 -1.6527
  203MOL    H5748941   4.466   3.761   4.379  0.5125 -0.8193 -1.0155
  203MOL    H5848942   4.261   3.881   4.236 -0.4169 -0.1180  1.5786
  203MOL    H5948943   4.269   3.722   3.836  0.6877  1.3254 -0.3096
  203MOL    H6048944   4.133   3.836   3.853 -2.3840 -0.6418  0.0765
  203MOL    H6148945   4.100   3.665   3.880  0.3655 -0.0238  1.9491
  203MOL    C6248946   4.239   3.681   4.291  0.4657 -0.3409 -0.9436
  203MOL    C6348947   4.198   3.715   4.435 -0.3073 -0.1277  0.2367
  203MOL    C6448948   4.096   3.835   4.456 -0.3778 -0.7415  0.4862
  203MOL    O6548949   4.126   3.942   4.511 -0.0906 -0.2700 -0.0041
  203MOL    O6648950   3.969   3.809   4.404 -0.1355  0.3086 -0.2796
  203MOL    C6748951   3.879   3.915   4.418  0.3799 -1.0293  0.0148
  203MOL    H6848952   4.149   3.652   4.236  0.5645  1.8701 -2.3286
  203MOL    H6948953   4.303   3.594   4.295 -1.4711 -1.7904 -0.4104
  203MOL    H7048954   4.292   3.745   4.481 -1.1633  1.1638  1.1818
  203MOL    H7148955   3.802   3.885   4.347 -1.0211  3.1265 -0.3663
  203MOL    H7248956   3.909   4.013   4.379 -1.2225  0.2504  1.8533
  203MOL    H7348957   3.828   3.932   4.513  0.5582 -0.9270  0.0932
  203MOL    C7448958   4.144   3.598   4.514  1.3151  0.1358 -0.2530
  203MOL    C7548959   4.093   3.599   4.662 -0.1361  0.3054  0.6061
  203MOL    C7648960   4.062   3.453   4.703 -0.3508  0.0400 -0.3915
  203MOL    O7748961   4.139   3.361   4.671 -0.3850 -0.1277 -0.2548
  203MOL    O7848962   3.942   3.448   4.778 -0.0385 -0.2293 -0.0690
  203MOL    C7948963   3.911   3.324   4.842 -0.4238 -0.9174 -0.2512
  203MOL    H8048964   4.067   3.547   4.456  2.4529 -0.4638 -1.2549
  203MOL    H8148965   4.228   3.529   4.508  0.5452 -0.8405  0.0288
  203MOL    H8248966   4.000   3.655   4.667  0.6084  1.5772  0.3522
  203MOL    H8348967   3.933   3.231   4.791  0.9400 -2.0093  2.2472
  203MOL    H8448968   3.811   3.325   4.885 -0.5914 -1.5841 -0.6240
  203MOL    H8548969   3.966   3.321   4.936 -0.5953  3.0827  0.0683
  203MOL    C8648970   4.192   3.684   4.747  0.5977 -0.3907 -0.0927
  203MOL    C8748971   4.136   3.749   4.870  0.1348  0.0291  0.1416
  203MOL    C8848972   4.124   3.646   4.987  0.0510 -0.3582 -0.2914
  203MOL    O8948973   4.020   3.633   5.051  0.0253  0.0297  0.2603
  203MOL    O9048974   4.238   3.581   5.007  0.6248 -0.9772 -0.3177
  203MOL    C9148975   4.238   3.467   5.084 -0.4331 -0.1440  0.0407
  203MOL    H9248976   4.285   3.627   4.757 -0.0471 -1.4550 -0.1172
  203MOL    H9348977   4.218   3.776   4.695 -0.9342  0.5163  0.7146
  203MOL    H9448978   4.035   3.771   4.836  0.0829 -2.4221 -1.4426
  203MOL    H9548979   4.342   3.437   5.101  0.3521  1.9231 -0.9332
  203MOL    H9648980   4.190   3.385   5.030 -0.5336  0.4506 -0.7816
  203MOL    H9748981   4.191   3.471   5.182 -0.0129 -2.5572  0.3873
  203MOL    C9848982   4.206   3.884   4.911 -0.0514 -0.0239  0.1238
  203MOL    C9948983   4.113   3.952   5.020  0.2026  1.4550  0.5583
  203MOL   C10048984   4.198   3.992   5.144 -0.0662 -0.6324 -0.2616
  203MOL   O10148985   4.311   3.937   5.167  0.4784 -0.4628 -0.0750
  203MOL   O10248986   4.139   4.076   5.227  0.0087  0.7967 -0.3425
  203MOL   C10348987   4.196   4.102   5.359 -0.1419  0.6940  0.4109
  203MOL   H10448988   4.312   3.877   4.937 -0.2384 -1.1194  0.6079
  203MOL   H10548989   4.212   3.947   4.822 -0.6022 -1.0680 -0.6605
  203MOL   H10648990   4.028   3.889   5.044  0.6477  0.8535  0.5642
  203MOL   H10748991   4.280   4.169   5.340 -1.1143  1.4826 -1.1766
  203MOL   H10848992   4.222   4.008   5.407  0.3087  1.1368  1.0447
  203MOL   H10948993   4.120   4.149   5.421  0.6346  2.4395  0.0640
  203MOL   C11048994   4.036   4.074   4.957  0.0624 -0.4544 -0.3882
  203MOL   C11148995   3.959   4.053   4.818 -0.3040 -0.7120 -0.2078
  203MOL   C11248996   3.850   3.949   4.835  0.1091  0.0341 -0.0514
  203MOL   O11348997   3.782   3.954   4.937  0.0394 -0.1470  0.1801
  203MOL   O11448998   3.826   3.868   4.733  0.1454 -0.4600  0.2915
  203MOL   C11548999   3.734   3.765   4.752 -0.3577  0.3898  0.3433
  203MOL   H11649000   3.975   4.120   5.035  0.0627 -0.6914 -0.2467
  203MOL   H11749001   4.112   4.149   4.935  0.9854 -1.8551 -2.1092
  203MOL   H11849002   4.032   4.025   4.742  1.0637  1.4758  0.2604
  203MOL   H11949003   3.751   3.696   4.835  0.8902 -2.9896 -2.5926
  203MOL   H12049004   3.706   3.711   4.661  0.1091 -3.4354  2.3767
  203MOL   H12149005   3.649   3.825   4.785  0.4056  0.9917  1.2222
  203MOL   C12249006   3.897   4.189   4.770  0.1893 -0.0343 -0.5152
  203MOL   C12349007   3.990   4.312   4.739  0.5172  0.5269 -0.5484
  203MOL   C12449008   4.114   4.279   4.663  0.6377 -0.1916  0.0547
  203MOL   O12549009   4.224   4.279   4.718 -0.1010  0.1172 -0.1937
  203MOL   O12649010   4.090   4.252   4.533 -0.3771  0.8088  0.1165
  203MOL   C12749011   4.204   4.242   4.454  0.0791 -1.0657  0.0088
  203MOL   H12849012   3.827   4.172   4.688 -0.4527 -1.3550  0.2957
  203MOL   H12949013   3.834   4.223   4.852  1.2500 -0.5228  0.5095
  203MOL   H13049014   4.028   4.344   4.836  3.4018 -0.9982 -1.1274
  203MOL   H13149015   4.179   4.235   4.348 -1.8237 -0.8553  0.4290
  203MOL   H13249016   4.274   4.167   4.492 -0.2924 -0.5271  1.7431
  203MOL   H13349017   4.268   4.330   4.460 -1.3174  0.0435 -0.9852
  203MOL   C13449018   3.908   4.432   4.673 -0.4506 -0.0472  0.5079
  203MOL   C13549019   3.980   4.569   4.643 -0.3106 -0.4440 -0.1484
  203MOL   C13649020   3.875   4.656   4.561  0.4718 -0.1580 -0.4131
  203MOL   O13749021   3.892   4.701   4.449  0.1147 -0.1768 -0.0088
  203MOL   O13849022   3.764   4.689   4.646  0.0001 -0.2339  0.5592
  203MOL   C13949023   3.674   4.788   4.604 -0.3190  0.4641  0.4655
  203MOL   H14049024   3.868   4.392   4.580  0.8546  1.2781 -0.6467
  203MOL   H14149025   3.822   4.446   4.739 -0.2918  1.8212  0.3589
  203MOL   H14249026   4.064   4.563   4.574 -1.1030  0.9670 -1.2853
  203MOL   H14349027   3.587   4.752   4.551 -1.6457  0.8669  2.3099
  203MOL   H14449028   3.710   4.881   4.559  1.9572 -0.3870  0.4417
  203MOL   H14549029   3.625   4.815   4.698 -0.5520 -1.2019  0.8410
  203MOL   C14649030   4.017   4.641   4.775 -0.3504  0.1214 -0.0789
  203MOL   C14749031   4.154   4.603   4.844 -0.2572  0.7982 -0.3739
  203MOL   C14849032   4.274   4.597   4.741 -0.4767  0.2172 -0.3469
  203MOL   O14949033   4.269   4.646   4.629  0.1521  0.0337 -0.3263
  203MOL   O15049034   4.387   4.565   4.802  0.3095 -0.2291 -0.4621
  203MOL   C15149035   4.500   4.516   4.721 -0.7081 -0.2769  0.1891
  203MOL   H15249036   4.026   4.747   4.749  1.7383 -0.1136 -0.3661
  203MOL   H15349037   3.936   4.625   4.847  0.7191 -0.9042  0.9091
  203MOL   H15449038   4.140   4.502   4.881  0.2997  0.1329 -1.9262
  203MOL   H15549039   4.497   4.410   4.692 -2.6522 -0.7166  1.8918
  203MOL   H15649040   4.586   4.531   4.786 -0.2054  0.8857 -0.7313
  203MOL   H15749041   4.516   4.585   4.639 -0.7846  1.8788  1.9547
  203MOL   C15849042   4.179   4.691   4.976 -0.4905  0.5616  0.2171
  203MOL   C15949043   4.078   4.675   5.092  0.1133  0.0967 -0.0641
  203MOL   C16049044   4.070   4.535   5.140  0.0646 -0.7590  0.2703
  203MOL   O16149045   4.148   4.491   5.228 -0.5759  0.7415  0.1450
  203MOL   O16249046   3.970   4.470   5.085  0.1901  0.0807  0.7098
  203MOL   C16349047   3.926   4.355   5.151 -0.2853  0.8242 -0.1690
  203MOL   H16449048   4.274   4.649   5.011 -1.2878 -0.6222  0.9980
  203MOL   H16549049   4.181   4.795   4.943 -1.1990  0.8112  0.9305
  203MOL   H16649050   3.975   4.697   5.063  0.1137 -1.3873 -1.2727
  203MOL   H16749051   3.887   4.381   5.249  1.3723 -0.5825  0.8890
  203MOL   H16849052   4.005   4.280   5.164 -1.4628 -0.7042 -1.5817
  203MOL   H16949053   3.843   4.316   5.092  0.4153 -1.2820  0.1953
  203MOL   C17049054   4.106   4.771   5.220 -0.0121 -0.5461 -0.1628
  203MOL   C17149055   4.052   4.910   5.205  0.2970  0.1317  0.1290
  203MOL   C17249056   3.897   4.904   5.196 -0.6345 -0.5621 -0.4817
  203MOL   O17349057   3.834   4.796   5.197 -0.4522 -0.3197 -0.2359
  203MOL   O17449058   3.841   5.017   5.177  0.0639  0.3718 -0.3974
  203MOL   C17549059   3.702   5.027   5.138 -0.8516 -0.8008  0.3156
  203MOL   H17649060   4.064   4.718   5.305  0.5517 -0.8013 -0.0432
  203MOL   H17749061   4.214   4.779   5.224 -0.0797  1.0058 -0.9233
  203MOL   H17849062   4.071   4.939   5.102 -1.1674  0.4577 -0.0568
  203MOL   H17949063   3.693   4.979   5.041  0.6464 -2.0268  0.7689
  203MOL   H18049064   3.668   5.130   5.131  0.9526 -0.2057 -0.0590
  203MOL   H18149065   3.643   4.982   5.217 -1.3610  1.5864  1.3594
  203MOL   C18249066   4.117   5.031   5.292 -0.0041 -0.0178  0.2269
  203MOL   C18349067   4.102   5.025   5.445 -0.3717 -0.7402 -0.1077
  203MOL   C18449068   4.167   4.896   5.507  0.0244  0.5406  0.3249
  203MOL   O18549069   4.100   4.827   5.586  0.3091 -0.2151 -0.2932
  203MOL   O18649070   4.301   4.871   5.481  0.3601  0.0089  0.6523
  203MOL   C18749071   4.374   4.764   5.554 -0.9371 -0.6370  0.3870
  203MOL   H18849072   4.220   5.055   5.267 -0.6443  3.2288  0.4979
  203MOL   H18949073   4.065   5.121   5.259  1.2928  0.1149 -1.5683
  203MOL   H19049074   3.995   5.016   5.460 -0.6625 -0.6429 -2.0016
  203MOL   H19149075   4.316   4.673   5.566  0.2614 -1.6462 -1.1545
  203MOL   H19249076   4.396   4.804   5.653 -0.5786 -0.6348  0.3084
  203MOL   H19349077   4.463   4.737   5.497 -1.7367  1.5339 -1.9905
  203MOL   C19449078   4.157   5.153   5.511 -0.4485  0.2334  0.1179
  203MOL   C19549079   4.055   5.227   5.603  0.2260 -0.5184  0.1634
  203MOL   C19649080   3.934   5.287   5.531  0.4629 -0.8548 -0.2344
  203MOL   O19749081   3.862   5.225   5.452 -0.0561 -0.5887 -0.4763
  203MOL   O19849082   3.922   5.419   5.554  0.3423 -0.6042 -0.6665
  203MOL   C19949083   3.812   5.498   5.502  0.1178  0.5575 -0.7490
  203MOL   H20049084   4.253   5.137   5.559 -0.8192 -0.7480  0.5600
  203MOL   H20149085   4.182   5.228   5.436 -2.8924  2.1186  1.1278
  203MOL   H20249086   4.102   5.315   5.646  0.5971 -0.7549  0.2481
  203MOL   H20349087   3.808   5.497   5.393  0.4938  0.3508 -0.7611
  203MOL   H20449088   3.804   5.604   5.529  1.1298 -0.0545  2.1484
  203MOL   H20549089   3.726   5.446   5.545  0.3762 -0.4137 -1.3849
  203MOL   C20649090   4.035   5.143   5.728 -0.1151 -0.6312  0.2527
  203MOL   C20749091   3.932   5.175   5.842 -0.4423 -0.2408  0.6286
  203MOL   C20849092   3.870   5.056   5.914  0.5563 -0.3069  0.3497
  203MOL   O20949093   3.881   5.027   6.032 -0.7736 -0.2981 -0.0895
  203MOL   O21049094   3.800   4.988   5.828  0.0698  0.1447  0.1853
  203MOL   C21149095   3.754   4.856   5.864  0.0421  0.2246  0.1876
  203MOL   H21249096   3.994   5.049   5.690 -2.3282 -0.4354  1.9928
  203MOL   H21349097   4.132   5.112   5.767  0.6674 -0.9303 -1.8564
  203MOL   H21449098   3.851   5.230   5.793 -0.0639 -0.0156  0.2414
  203MOL   H21549099   3.733   4.785   5.785  0.2357 -0.0690  0.3966
  203MOL   H21649100   3.668   4.862   5.930 -0.8334 -2.8852 -0.5721
  203MOL   H21749101   3.827   4.811   5.933  0.4530 -0.0044 -0.3962
  203MOL   C21849102   4.005   5.271   5.941  0.2923 -0.1764 -0.0818
  203MOL   C21949103   3.964   5.423   5.914  0.2998  0.3852  0.4074
  203MOL   C22049104   3.814   5.438   5.947  0.3894 -0.4959 -0.5944
  203MOL   O22149105   3.737   5.480   5.867  0.0899 -0.0383  0.4717
  203MOL   O22249106   3.785   5.399   6.065 -0.4953  0.1488  0.2920
  203MOL   C22349107   3.654   5.375   6.106 -0.1152 -0.2618 -0.0395
  203MOL   H22449108   3.989   5.235   6.042 -0.4131  0.0858 -0.0975
  203MOL   H22549109   4.114   5.274   5.944  0.2719 -1.4407  2.4998
  203MOL   H22649110   3.981   5.463   5.813  1.9014 -1.3127 -0.0338
  203MOL   H22749111   3.600   5.458   6.151  0.0531  0.7841 -1.7407
  203MOL   H22849112   3.660   5.289   6.173 -0.4021 -0.1382  0.1465
  203MOL   H22949113   3.588   5.339   6.027  1.5379 -0.1447 -1.5094
  203MOL   C23049114   4.055   5.502   6.009 -0.2563 -0.5645 -0.2510
  203MOL   C23149115   4.019   5.653   6.027  0.0258  0.4233  0.4295
  203MOL   C23249116   4.105   5.709   6.138 -0.8101 -0.2153  0.5888
  203MOL   O23349117   4.056   5.754   6.241  0.3800 -0.2043  0.1532
  203MOL   O23449118   4.237   5.693   6.121 -0.3647  0.0716 -0.4295
  203MOL   C23549119   4.329   5.742   6.215  0.1098  0.9023  0.3937
  203MOL   H23649120   4.040   5.453   6.105 -0.9735 -1.7878 -0.9646
  203MOL   H23749121   4.160   5.477   5.991 -0.1831  0.6104 -1.5328
  203MOL   H23849122   3.913   5.677   6.039 -0.4387 -0.7513 -1.2016
  203MOL   H23949123   4.329   5.851   6.223 -1.2388  0.8636  1.0833
  203MOL   H24049124   4.431   5.717   6.187  0.4639  0.8887  1.6867
  203MOL   H24149125   4.301   5.699   6.311  1.4702 -0.7840  0.0704
  203MOL   H24249126   4.049   5.710   5.940  0.0200 -1.2539 -0.6865
  204MOL     C149127   0.985   0.397   1.338  0.5381 -0.0554 -0.0786
  204MOL     C249128   0.912   0.494   1.421 -0.1816 -0.2999  0.2410
  204MOL     C349129   0.967   0.495   1.565  0.0989  0.3239 -0.6762
  204MOL     O449130   0.995   0.600   1.622 -0.0822 -0.6178  0.2324
  204MOL     O549131   0.980   0.370   1.629  0.2070 -0.1891  0.4572
  204MOL     C649132   1.043   0.348   1.757 -0.1402  0.3168  0.1092
  204MOL     H749133   0.908   0.361   1.269 -0.9731 -0.6397  1.8552
  204MOL     H849134   1.014   0.306   1.389  0.6810  0.8806  1.5624
  204MOL     H949135   0.814   0.449   1.434 -0.9624  1.0731 -0.7345
  204MOL    H1049136   0.994   0.404   1.837 -1.6551 -1.8287  0.7370
  204MOL    H1149137   1.147   0.379   1.763  0.0146 -0.2404  0.2490
  204MOL    H1249138   1.031   0.242   1.780 -1.7053  0.3939 -0.2693
  204MOL    H1349139   1.068   0.427   1.275  0.1462 -0.7207 -0.9148
  204MOL    C1449140   0.890   0.641   1.365 -0.4494  0.0795 -0.6544
  204MOL    C1549141   0.775   0.650   1.257  0.6587  0.2309  0.0077
  204MOL    C1649142   0.630   0.633   1.312  0.7349 -0.0044 -0.6040
  204MOL    O1749143   0.530   0.616   1.244  0.8037  0.6343 -0.1663
  204MOL    O1849144   0.615   0.650   1.449  0.2672 -0.5402 -0.6002
  204MOL    C1949145   0.483   0.653   1.514  0.1808 -0.0021 -0.5779
  204MOL    H2049146   0.871   0.717   1.441  1.0989  0.4041 -0.5708
  204MOL    H2149147   0.986   0.659   1.317  0.0720 -0.3180  0.2351
  204MOL    H2249148   0.780   0.567   1.186 -0.6322 -0.6361  0.8936
  204MOL    H2349149   0.445   0.551   1.517 -1.2670  0.5524  0.9856
  204MOL    H2449150   0.414   0.717   1.459 -0.6405 -0.4647 -0.0761
  204MOL    H2549151   0.502   0.680   1.618  0.5800  0.7596 -0.8391
  204MOL    C2649152   0.780   0.784   1.180  0.0648 -0.6003 -0.4559
  204MOL    C2749153   0.869   0.786   1.060 -0.5419  0.9598  0.3009
  204MOL    C2849154   0.847   0.670   0.963  0.4004  0.4880  0.3822
  204MOL    O2949155   0.924   0.579   0.938  0.1840 -0.4576  0.0442
  204MOL    O3049156   0.726   0.683   0.907 -0.1805 -0.1429  0.3383
  204MOL    C3149157   0.672   0.589   0.818 -0.3841 -0.0890  0.0093
  204MOL    H3249158   0.684   0.815   1.138 -0.2512 -0.5681  0.2869
  204MOL    H3349159   0.807   0.860   1.254  0.4547 -1.4803  0.3121
  204MOL    H3449160   0.963   0.768   1.114  0.0479 -0.2656 -1.1029
  204MOL    H3549161   0.739   0.580   0.732  0.0089 -1.5473  0.4650
  204MOL    H3649162   0.575   0.624   0.784 -1.3500 -0.9682  1.8187
  204MOL    H3749163   0.666   0.492   0.867  0.2917 -0.8575 -1.3840
  204MOL    C3849164   0.856   0.932   0.996 -0.5871 -0.1065  0.0132
  204MOL    C3949165   0.951   0.948   0.875  0.2351 -0.0161  0.1345
  204MOL    C4049166   0.927   1.089   0.811  0.1151 -0.5804 -0.0431
  204MOL    O4149167   0.899   1.190   0.873 -0.5092  0.3371 -0.4448
  204MOL    O4249168   0.956   1.077   0.677 -0.1386  0.6444 -0.3667
  204MOL    C4349169   0.937   1.173   0.581  0.1825  0.2114  0.6896
  204MOL    H4449170   0.755   0.944   0.958 -0.2574  0.5473 -0.6442
  204MOL    H4549171   0.859   1.012   1.070 -1.2985 -0.3017  0.2549
  204MOL    H4649172   0.922   0.878   0.797 -1.1823  2.7574 -1.9526
  204MOL    H4749173   0.845   1.151   0.525 -0.2003  0.9870  1.0030
  204MOL    H4849174   1.016   1.156   0.509 -1.7995 -1.1219 -1.2539
  204MOL    H4949175   0.936   1.276   0.617  1.8949  0.1922  0.8068
  204MOL    C5049176   1.097   0.915   0.900  0.7319  0.3103  0.6350
  204MOL    C5149177   1.186   1.003   0.984  0.4777  0.0845  0.2592
  204MOL    C5249178   1.165   0.986   1.136 -0.1627 -0.3288 -0.1453
  204MOL    O5349179   1.121   1.080   1.206 -0.2379 -0.4694 -0.5740
  204MOL    O5449180   1.198   0.862   1.183  0.1040 -0.5421  0.5720
  204MOL    C5549181   1.207   0.845   1.326 -0.3267 -0.4469  0.1080
  204MOL    H5649182   1.100   0.810   0.928 -0.8934  0.2277  0.5657
  204MOL    H5749183   1.135   0.916   0.798 -1.1015 -1.1032 -0.0951
  204MOL    H5849184   1.158   1.104   0.955 -0.7942 -0.1029  0.8241
  204MOL    H5949185   1.109   0.847   1.375 -0.7763 -1.3886 -0.7373
  204MOL    H6049186   1.271   0.921   1.372 -0.7074  0.1153 -0.2754
  204MOL    H6149187   1.263   0.753   1.342  0.4892 -0.5518 -2.9921
  204MOL    C6249188   1.340   1.000   0.955  0.3479  0.6170  0.0378
  204MOL    C6349189   1.423   1.132   0.987  0.5471  0.6437  0.5122
  204MOL    C6449190   1.350   1.255   0.918 -0.5164 -0.2286  0.3817
  204MOL    O6549191   1.282   1.340   0.974  0.1196  0.0115 -0.7731
  204MOL    O6649192   1.352   1.241   0.783 -0.4081 -0.0695 -0.4838
  204MOL    C6749193   1.292   1.331   0.696  0.1987  0.5990  0.2577
  204MOL    H6849194   1.389   0.916   1.005 -3.0625 -0.0554  2.4205
  204MOL    H6949195   1.351   0.997   0.847 -3.3188  2.1664 -0.4468
  204MOL    H7049196   1.523   1.110   0.949 -0.5280 -0.7205 -1.6314
  204MOL    H7149197   1.340   1.427   0.680  0.7327  0.4678  1.0791
  204MOL    H7249198   1.195   1.363   0.733 -0.1006  0.8235 -0.6943
  204MOL    H7349199   1.280   1.281   0.600  0.7028 -0.1222  0.5710
  204MOL    C7449200   1.438   1.146   1.139  0.8152 -0.8340 -0.1088
  204MOL    C7549201   1.586   1.186   1.184  0.2066 -0.2868  0.1052
  204MOL    C7649202   1.641   1.316   1.118 -0.3912  0.5402 -0.3552
  204MOL    O7749203   1.761   1.324   1.078  0.2001  0.5827  0.7600
  204MOL    O7849204   1.560   1.414   1.119  0.4422 -0.0610 -0.2156
  204MOL    C7949205   1.582   1.539   1.054  0.3467 -0.2695 -0.5788
  204MOL    H8049206   1.366   1.216   1.181  1.3981 -0.9688  1.1585
  204MOL    H8149207   1.411   1.054   1.192 -0.0770  0.5005  1.8275
  204MOL    H8249208   1.651   1.111   1.139  1.0706 -0.2354  1.2371
  204MOL    H8349209   1.587   1.620   1.126 -0.7329 -1.7692  1.2240
  204MOL    H8449210   1.492   1.558   0.994  0.1132 -1.3164 -0.5648
  204MOL    H8549211   1.666   1.533   0.985  0.1163 -1.1433 -0.7908
  204MOL    C8649212   1.600   1.197   1.333  0.6408  0.4988  0.8975
  204MOL    C8749213   1.553   1.073   1.424  0.0345  0.0683 -0.1589
  204MOL    C8849214   1.647   0.953   1.405 -0.2513 -0.0767  0.8197
  204MOL    O8949215   1.600   0.836   1.389 -0.0396 -0.6896  0.0133
  204MOL    O9049216   1.777   0.985   1.410  0.6626  0.2209 -0.3532
  204MOL    C9149217   1.870   0.878   1.395 -0.4705 -0.2956 -0.2458
  204MOL    H9249218   1.702   1.229   1.355 -0.0971  2.6936  1.3114
  204MOL    H9349219   1.538   1.282   1.362 -1.0161  0.4719 -2.2742
  204MOL    H9449220   1.456   1.036   1.392  0.0654 -0.1105 -0.0418
  204MOL    H9549221   1.964   0.907   1.442 -0.4040  0.2890 -0.7334
  204MOL    H9649222   1.891   0.874   1.288  2.0267  2.7660  0.0607
  204MOL    H9749223   1.844   0.779   1.433  0.8625 -0.7457 -0.4628
  204MOL    C9849224   1.549   1.101   1.574  0.4055 -0.3660  0.2869
  204MOL    C9949225   1.455   1.212   1.628  0.0121  0.6419 -0.1422
  204MOL   C10049226   1.311   1.190   1.633 -0.4746 -0.3889 -0.0724
  204MOL   O10149227   1.255   1.129   1.721 -0.3115  0.1693 -0.1046
  204MOL   O10249228   1.247   1.252   1.532  0.6717 -0.1693 -0.1222
  204MOL   C10349229   1.105   1.256   1.527 -0.2615 -0.0303  0.1138
  204MOL   H10449230   1.518   1.010   1.625  1.0048 -0.5328  0.3551
  204MOL   H10549231   1.650   1.115   1.613  0.1135 -0.2211  1.0001
  204MOL   H10649232   1.480   1.295   1.561  1.1314  2.2023  2.1461
  204MOL   H10749233   1.081   1.353   1.571  1.7353  0.0824  0.9923
  204MOL   H10849234   1.040   1.185   1.579 -1.5032  0.6131 -0.5423
  204MOL   H10949235   1.071   1.256   1.424  0.4099  0.8798 -0.1139
  204MOL   C11049236   1.515   1.271   1.764  0.8359  0.9422 -0.3385
  204MOL   C11149237   1.639   1.372   1.760  0.1639  0.0953 -0.7988
  204MOL   C11249238   1.597   1.495   1.677 -0.0963  0.1824 -0.4120
  204MOL   O11349239   1.630   1.508   1.558 -0.3378 -0.2670  0.0255
  204MOL   O11449240   1.513   1.574   1.739  0.2849  0.1123  0.2811
  204MOL   C11549241   1.447   1.678   1.673  0.7589 -0.4094  0.2920
  204MOL   H11649242   1.436   1.330   1.812  0.5440  1.1507 -1.0694
  204MOL   H11749243   1.549   1.191   1.829  0.1475  2.0932  1.4716
  204MOL   H11849244   1.724   1.322   1.712 -1.3650 -3.2190 -0.1443
  204MOL   H11949245   1.350   1.699   1.717  2.0082  2.7072  1.7244
  204MOL   H12049246   1.423   1.638   1.574  0.0191 -0.4015  0.4637
  204MOL   H12149247   1.499   1.773   1.681  1.4996 -0.9471  2.0236
  204MOL   C12249248   1.680   1.407   1.908  0.9924  0.2571  1.1237
  204MOL   C12349249   1.800   1.500   1.919 -0.5449 -0.0559 -0.6649
  204MOL   C12449250   1.826   1.550   2.063 -0.0964 -0.9312 -0.2104
  204MOL   O12549251   1.847   1.669   2.071 -0.3845  0.2130 -0.0935
  204MOL   O12649252   1.838   1.458   2.151  0.2631  0.1227 -1.3796
  204MOL   C12749253   1.892   1.490   2.282 -0.2696 -0.4210 -0.6366
  204MOL   H12849254   1.607   1.468   1.961  1.7445  2.3879 -0.2296
  204MOL   H12949255   1.690   1.313   1.961 -1.3799 -0.1265  0.9484
  204MOL   H13049256   1.778   1.590   1.862 -2.8607  0.6110  1.1714
  204MOL   H13149257   1.988   1.440   2.273  0.4259  1.2129 -2.9665
  204MOL   H13249258   1.820   1.453   2.355  0.4277 -1.0174 -0.2429
  204MOL   H13349259   1.923   1.594   2.294  1.2060 -0.9076 -0.1250
  204MOL   C13449260   1.942   1.448   1.860  0.5289 -0.4552 -0.0137
  204MOL   C13549261   2.043   1.562   1.834 -0.1310 -0.0011  0.1332
  204MOL   C13649262   2.180   1.556   1.914 -0.4705  0.6574  0.3594
  204MOL   O13749263   2.287   1.518   1.863 -0.0793  0.3280  0.3490
  204MOL   O13849264   2.159   1.587   2.041  0.0907 -0.6259  0.2035
  204MOL   C13949265   2.259   1.593   2.139  0.5181  0.7489  0.1177
  204MOL   H14049266   1.987   1.365   1.915  2.1680 -0.5502 -1.4493
  204MOL   H14149267   1.925   1.411   1.759  0.6367 -0.5151 -0.0096
  204MOL   H14249268   1.999   1.656   1.866  1.9427  1.4833 -1.2284
  204MOL   H14349269   2.333   1.664   2.104 -0.2553  1.2486 -0.5251
  204MOL   H14449270   2.310   1.497   2.125  2.4417  1.9825 -1.5545
  204MOL   H14549271   2.232   1.612   2.243 -2.6153  0.4390 -0.5721
  204MOL   C14649272   2.074   1.590   1.685 -0.4057  0.2660  0.4029
  204MOL   C14749273   1.950   1.647   1.610  0.2158 -0.3371 -0.0012
  204MOL   C14849274   1.930   1.798   1.612  0.1640  0.1047 -0.1833
  204MOL   O14949275   2.024   1.876   1.633  0.3274 -0.2118  0.2269
  204MOL   O15049276   1.806   1.826   1.587 -0.3196  0.2638 -0.0912
  204MOL   C15149277   1.776   1.964   1.572  0.3783 -0.7375 -0.3915
  204MOL   H15249278   2.166   1.647   1.670  0.4200 -0.7327  1.4653
  204MOL   H15349279   2.110   1.500   1.635  0.7489  1.1262 -0.3494
  204MOL   H15449280   1.866   1.617   1.672 -0.5806  1.8241 -0.0205
  204MOL   H15549281   1.807   1.989   1.471 -0.7661 -1.8644 -1.0380
  204MOL   H15649282   1.827   2.029   1.643 -0.4230 -0.0422 -0.4395
  204MOL   H15749283   1.669   1.973   1.589  0.5284  2.1310 -0.6962
  204MOL   C15849284   1.932   1.585   1.477  0.4381  0.6792  0.1239
  204MOL   C15949285   2.034   1.626   1.375 -0.0934 -0.1287 -0.6079
  204MOL   C16049286   2.110   1.511   1.322  0.5005 -0.4633  0.9042
  204MOL   O16149287   2.066   1.409   1.274 -0.0824  0.7659 -0.0164
  204MOL   O16249288   2.243   1.550   1.328  0.0456 -0.4306 -1.4579
  204MOL   C16349289   2.346   1.452   1.309  0.1680 -0.3263  0.0962
  204MOL   H16449290   1.936   1.477   1.493  0.5377  0.6487 -0.1046
  204MOL   H16549291   1.829   1.593   1.443  0.5943 -0.7360 -0.7630
  204MOL   H16649292   2.106   1.694   1.421 -1.0731  0.1062  0.5828
  204MOL   H16749293   2.308   1.352   1.328  1.5854 -0.9389 -0.2220
  204MOL   H16849294   2.421   1.477   1.384  0.2901 -0.1235 -0.0929
  204MOL   H16949295   2.395   1.448   1.211 -0.6453 -0.4254 -0.3080
  204MOL   C17049296   1.964   1.710   1.272  0.8210  0.4482 -0.9654
  204MOL   C17149297   2.050   1.770   1.158  0.4010 -0.0498 -0.2556
  204MOL   C17249298   1.948   1.838   1.063 -0.2079  0.1632 -0.0316
  204MOL   O17349299   1.938   1.809   0.943 -0.2407  0.0619  0.2206
  204MOL   O17449300   1.888   1.947   1.124 -0.3663  0.8074  0.1848
  204MOL   C17549301   1.789   2.010   1.045 -0.2822  0.1439  0.4578
  204MOL   H17649302   1.897   1.635   1.230 -0.2595 -0.6261  2.5254
  204MOL   H17749303   1.923   1.792   1.329  0.1855  0.7481 -1.8460
  204MOL   H17849304   2.095   1.690   1.099 -0.0673 -0.0135 -0.6729
  204MOL   H17949305   1.838   2.079   0.976 -0.1211 -2.5333 -2.1997
  204MOL   H18049306   1.720   2.072   1.102 -1.0413 -0.3968  0.1307
  204MOL   H18149307   1.731   1.948   0.977 -0.0245 -0.8264  1.1149
  204MOL   C18249308   2.162   1.861   1.211  0.2501 -0.3597 -0.1034
  204MOL   C18349309   2.250   1.938   1.107 -0.3801 -0.0910  0.0837
  204MOL   C18449310   2.279   2.076   1.177  0.8649  0.5128 -0.7406
  204MOL   O18549311   2.208   2.174   1.162 -0.2952 -0.1012  0.0961
  204MOL   O18649312   2.394   2.061   1.253  0.6944  0.1758  0.4803
  204MOL   C18749313   2.465   2.170   1.299  0.3798  0.7450 -0.5363
  204MOL   H18849314   2.116   1.942   1.267 -1.4544  0.5105 -2.6787
  204MOL   H18949315   2.217   1.802   1.284  0.8250  2.5488  1.9039
  204MOL   H19049316   2.192   1.965   1.019  0.1437  1.3906  0.1765
  204MOL   H19149317   2.426   2.209   1.393 -0.9296 -0.9879 -0.3484
  204MOL   H19249318   2.464   2.253   1.228 -1.5883  0.2805 -1.0886
  204MOL   H19349319   2.568   2.147   1.324 -0.0454 -0.1805  0.3898
  204MOL   C19449320   2.370   1.843   1.064 -1.0506 -0.2316  0.8591
  204MOL   C19549321   2.434   1.863   0.923 -0.0032 -0.3914 -0.0540
  204MOL   C19649322   2.523   1.989   0.921  0.1489  0.2036 -0.1835
  204MOL   O19749323   2.522   2.064   0.822 -0.0037  0.2193  0.3251
  204MOL   O19849324   2.606   2.004   1.027  0.2051 -0.3044 -0.1711
  204MOL   C19949325   2.685   2.120   1.042  0.4952 -0.5181 -0.0556
  204MOL   H20049326   2.443   1.831   1.144  0.8619 -0.9905 -0.9643
  204MOL   H20149327   2.325   1.744   1.056 -0.6071 -0.3517 -0.2219
  204MOL   H20249328   2.350   1.887   0.858 -1.3945 -3.0195  0.6949
  204MOL   H20349329   2.613   2.202   1.047 -0.4508 -1.3896  0.8040
  204MOL   H20449330   2.746   2.128   0.952  1.9177  0.4227  0.9758
  204MOL   H20549331   2.743   2.109   1.134 -2.0851 -1.7482  1.4927
  204MOL   C20649332   2.515   1.736   0.871  0.2889 -0.1705  0.3788
  204MOL   C20749333   2.468   1.665   0.746 -0.3816  0.0770 -1.1422
  204MOL   C20849334   2.329   1.602   0.770  0.2482 -0.4028  0.3484
  204MOL   O20949335   2.231   1.672   0.738 -0.2958 -0.2933 -0.2953
  204MOL   O21049336   2.329   1.478   0.823  0.1402 -0.9434 -0.0400
  204MOL   C21149337   2.208   1.423   0.874 -0.0541  0.0168  1.0286
  204MOL   H21249338   2.612   1.773   0.838 -0.1353  0.4950 -0.1280
  204MOL   H21349339   2.527   1.660   0.948  1.3325 -0.2905  0.1058
  204MOL   H21449340   2.539   1.586   0.724  2.7044  1.5483  2.8124
  204MOL   H21549341   2.220   1.323   0.915 -0.3313 -0.8666 -0.9746
  204MOL   H21649342   2.134   1.408   0.796  1.2520 -0.6934 -0.1128
  204MOL   H21749343   2.178   1.483   0.960 -0.7136 -0.3965  1.0877
  204MOL   C21849344   2.482   1.758   0.628  0.3109  0.3797  0.6867
  204MOL   C21949345   2.622   1.762   0.566 -0.2285  0.1940  0.0906
  204MOL   C22049346   2.674   1.624   0.525 -0.0534  0.2560  0.5208
  204MOL   O22149347   2.776   1.572   0.576 -0.1166  0.3943  0.4257
  204MOL   O22249348   2.588   1.569   0.434 -0.1229 -0.1949 -0.2149
  204MOL   C22349349   2.614   1.438   0.387  0.2872 -0.1872  0.0371
  204MOL   H22449350   2.416   1.718   0.552 -0.3888  1.9637  0.4521
  204MOL   H22549351   2.451   1.862   0.642 -1.0576  0.0238  0.3066
  204MOL   H22649352   2.687   1.800   0.645 -2.2079  0.1138  1.8088
  204MOL   H22749353   2.521   1.380   0.388 -1.3441  2.2819 -1.7195
  204MOL   H22849354   2.701   1.393   0.433  0.3366 -1.0848 -0.9175
  204MOL   H22949355   2.627   1.451   0.279 -0.2470  1.4331  0.1535
  204MOL   C23049356   2.631   1.867   0.452 -0.5019 -0.2549  0.2033
  204MOL   C23149357   2.771   1.934   0.445  0.6077  0.1327 -0.2501
  204MOL   C23249358   2.790   2.037   0.342  0.1838 -0.4868 -0.1166
  204MOL   O23349359   2.882   2.023   0.257 -0.3724 -0.2472 -0.1154
  204MOL   O23449360   2.695   2.126   0.347  0.0547 -0.0609  0.3749
  204MOL   C23549361   2.717   2.246   0.271 -0.2283 -0.7136  0.1330
  204MOL   H23649362   2.613   1.819   0.356 -0.8001 -0.2666  0.2647
  204MOL   H23749363   2.557   1.946   0.464 -0.1347  0.2046 -0.5527
  204MOL   H23849364   2.855   1.865   0.435  0.8005  0.3627 -0.2139
  204MOL   H23949365   2.625   2.298   0.247 -0.5030 -1.6317 -0.8285
  204MOL   H24049366   2.780   2.225   0.185  1.3452  1.5435  0.6801
  204MOL   H24149367   2.778   2.313   0.332 -1.5195 -0.1325  0.7862
  204MOL   H24249368   2.787   1.992   0.535 -1.0643  2.5095 -1.4214
  205MOL     C149369   0.300   2.618   1.607 -0.8300 -0.2163  0.0141
  205MOL     C249370   0.336   2.485   1.668  0.6667 -0.4647  0.1790
  205MOL     C349371   0.415   2.507   1.802 -0.0488  0.2696  0.5264
  205MOL     O449372   0.515   2.449   1.834  0.2042  0.0449 -0.3429
  205MOL     O549373   0.348   2.596   1.878 -0.1154  0.4482  0.0170
  205MOL     C649374   0.410   2.631   2.003 -0.0605  0.0274 -0.0894
  205MOL     H749375   0.385   2.687   1.606 -0.8296 -0.2332 -1.5724
  205MOL     H849376   0.217   2.657   1.667 -0.1356  0.8056  0.3227
  205MOL     H949377   0.408   2.441   1.599  0.5789 -2.5989  1.3833
  205MOL    H1049378   0.384   2.562   2.083 -1.6770  0.7772  0.0391
  205MOL    H1149379   0.363   2.726   2.025 -1.1295 -0.1722 -1.4374
  205MOL    H1249380   0.516   2.651   1.990 -0.3676  2.0364  0.3571
  205MOL    H1349381   0.271   2.600   1.504 -1.3631  2.5600 -0.3601
  205MOL    C1449382   0.210   2.398   1.706  0.5971  0.1524 -1.1971
  205MOL    C1549383   0.207   2.258   1.641  0.3044 -0.5823 -0.6098
  205MOL    C1649384   0.330   2.176   1.662  0.2660  0.0649 -0.3687
  205MOL    O1749385   0.385   2.110   1.573  0.5673 -0.2387  0.2005
  205MOL    O1849386   0.366   2.171   1.793  0.8040  0.0924 -0.1620
  205MOL    C1949387   0.466   2.074   1.830 -0.2663  0.2601  0.5393
  205MOL    H2049388   0.204   2.386   1.814  1.0583  1.8588 -0.9749
  205MOL    H2149389   0.118   2.449   1.675  1.1493  0.5566 -2.2018
  205MOL    H2249390   0.215   2.282   1.535  1.6622 -1.1974 -0.6487
  205MOL    H2349391   0.560   2.099   1.781  0.8359 -2.5880  1.0478
  205MOL    H2449392   0.439   1.970   1.810 -0.9568  0.7762 -1.2983
  205MOL    H2549393   0.487   2.082   1.937 -0.8224  1.5804  0.5562
  205MOL    C2649394   0.071   2.192   1.652 -0.2756  0.2971 -0.1130
  205MOL    C2749395   0.057   2.055   1.578 -1.3904  0.5431  0.6402
  205MOL    C2849396   7.851   1.989   1.613  0.6771 -1.2373 -0.0292
  205MOL    O2949397   7.745   2.061   1.616 -0.4828 -0.1472  0.1455
  205MOL    O3049398   7.856   1.865   1.658 -1.0526 -0.4643  0.0949
  205MOL    C3149399   7.741   1.785   1.695  0.2677  0.3574  0.0408
  205MOL    H3249400   0.050   2.182   1.758 -0.0767 -1.1740 -0.2044
  205MOL    H3349401   7.927   2.258   1.612  1.9231  1.1770 -3.1371
  205MOL    H3449402   0.130   1.982   1.612  0.8992  1.8177 -1.2993
  205MOL    H3549403   7.765   1.699   1.758 -0.4118  0.0565 -0.1052
  205MOL    H3649404   7.680   1.742   1.616 -0.2702  1.6703 -0.2587
  205MOL    H3749405   7.672   1.849   1.749  2.2396  1.0875  1.7388
  205MOL    C3849406   0.082   2.067   1.420 -0.1190  0.2452  0.0760
  205MOL    C3949407   7.899   2.129   1.332  0.5764 -0.0887  0.3136
  205MOL    C4049408   7.921   2.274   1.294 -0.2652  0.3197 -0.4607
  205MOL    O4149409   7.822   2.349   1.300  0.5483 -0.2756 -0.0709
  205MOL    O4249410   0.104   2.298   1.238 -0.3009 -0.3793 -0.3440
  205MOL    C4349411   0.130   2.419   1.188 -0.0336  0.2774  0.0250
  205MOL    H4449412   0.178   2.117   1.409  0.6250 -1.4684 -1.4121
  205MOL    H4549413   0.105   1.967   1.384  0.9509 -0.1197  1.7303
  205MOL    H4649414   7.810   2.156   1.388  1.9175  2.8323  1.1290
  205MOL    H4749415   0.048   2.448   1.122  0.0838  2.8313  0.9508
  205MOL    H4849416   0.224   2.422   1.134  0.8747 -1.4711  1.4634
  205MOL    H4949417   0.139   2.495   1.266  0.0113 -0.2288  0.5170
  205MOL    C5049418   7.856   2.042   1.208 -0.1567  0.1539  0.6623
  205MOL    C5149419   7.705   2.053   1.180  0.6214 -0.1059  0.0755
  205MOL    C5249420   7.686   2.032   1.024  0.2540  0.0732 -0.3875
  205MOL    O5349421   7.630   2.121   0.952  0.2987 -0.0017  0.1615
  205MOL    O5449422   7.737   1.912   0.983  0.0702 -0.0454 -0.4164
  205MOL    C5549423   7.690   1.860   0.860  0.4402 -0.8477 -0.5500
  205MOL    H5649424   7.920   2.062   1.122  0.2653  0.9376  1.1457
  205MOL    H5749425   7.882   1.938   1.221  2.3859  0.6039 -0.5910
  205MOL    H5849426   7.680   2.159   1.179  0.9433 -0.0090  1.1770
  205MOL    H5949427   7.711   1.921   0.772 -0.2829  0.0702 -0.0878
  205MOL    H6049428   7.583   1.841   0.867  0.5541 -1.2359  0.2220
  205MOL    H6149429   7.736   1.762   0.842  2.0958 -0.5310  1.7294
  205MOL    C6249430   7.611   1.980   1.274  0.1056  0.3866 -0.5635
  205MOL    C6349431   7.510   2.074   1.345  0.1968 -0.2140 -0.0501
  205MOL    C6449432   7.407   2.138   1.250  0.7239 -0.1385  0.3438
  205MOL    O6549433   7.403   2.254   1.226 -0.1324  0.2749  1.0087
  205MOL    O6649434   7.328   2.048   1.201 -0.3818 -0.1494 -0.6664
  205MOL    C6749435   7.224   2.078   1.104 -0.2548  0.6167 -0.1774
  205MOL    H6849436   7.535   1.917   1.228 -0.7558  0.4954  0.6606
  205MOL    H6949437   7.665   1.920   1.347 -3.2982 -0.1639  1.6644
  205MOL    H7049438   7.568   2.158   1.384 -1.2708 -0.3003  2.4012
  205MOL    H7149439   7.138   2.117   1.159 -2.1892 -1.4526 -1.6334
  205MOL    H7249440   7.188   1.992   1.047  0.3954 -0.3595  0.8655
  205MOL    H7349441   7.261   2.163   1.046  0.1947  1.2672  1.0526
  205MOL    C7449442   7.429   2.002   1.457  0.2393 -1.1025  0.3985
  205MOL    C7549443   7.334   2.087   1.551  0.0542 -0.5747  0.0586
  205MOL    C7649444   7.258   1.996   1.644  0.0725  0.4249  0.7916
  205MOL    O7749445   7.274   1.990   1.764 -0.2114 -0.5612  0.2705
  205MOL    O7849446   7.181   1.912   1.573  0.4317 -0.5054  0.3696
  205MOL    C7949447   7.100   1.821   1.648  0.1145  1.0284  0.3509
  205MOL    H8049448   7.378   1.914   1.418 -1.3076  0.7377 -1.8597
  205MOL    H8149449   7.504   1.960   1.524  0.3801  0.9309  1.5419
  205MOL    H8249450   7.255   2.133   1.491 -1.0695 -0.6700  1.4415
  205MOL    H8349451   7.034   1.761   1.585  0.5258  1.0724 -0.1268
  205MOL    H8449452   7.038   1.874   1.720 -0.2377 -0.5678  1.2457
  205MOL    H8549453   7.160   1.757   1.712  1.5179  2.2980  0.3376
  205MOL    C8649454   7.404   2.193   1.635  0.0217 -0.3556 -0.3157
  205MOL    C8749455   7.394   2.332   1.571 -0.4313  0.0615 -0.5388
  205MOL    C8849456   7.251   2.387   1.604 -0.1910  0.2202  0.4489
  205MOL    O8949457   7.176   2.328   1.672 -0.6441 -0.1920  0.1621
  205MOL    O9049458   7.235   2.509   1.541  0.1119 -0.0115  0.2305
  205MOL    C9149459   7.100   2.565   1.534 -0.4118  0.1946  0.2067
  205MOL    H9249460   7.372   2.202   1.738 -1.3293  0.6383 -0.7992
  205MOL    H9349461   7.510   2.176   1.657 -0.1795  0.3276  1.1996
  205MOL    H9449462   7.404   2.326   1.462  2.4535  2.5073 -0.5017
  205MOL    H9549463   7.027   2.484   1.535  0.1102 -0.3533 -2.4545
  205MOL    H9649464   7.079   2.612   1.438  0.3033  0.0688 -0.0152
  205MOL    H9749465   7.074   2.640   1.609  1.2591  0.7593  0.2408
  205MOL    C9849466   7.498   2.431   1.631 -0.1912 -0.0475  0.3962
  205MOL    C9949467   7.535   2.561   1.564 -0.0176 -0.3114  0.3334
  205MOL   C10049468   7.642   2.649   1.640 -0.1820  0.3574 -0.2742
  205MOL   O10149469   7.760   2.640   1.627 -0.4204 -0.1115 -0.3872
  205MOL   O10249470   7.589   2.735   1.727 -0.0061 -0.1586 -0.3888
  205MOL   C10349471   7.672   2.830   1.801  0.4703  0.6308 -0.0241
  205MOL   H10449472   7.476   2.447   1.736  0.6349 -0.7655  0.6864
  205MOL   H10549473   7.596   2.385   1.644  0.5441  0.8608 -1.6459
  205MOL   H10649474   7.443   2.620   1.563 -1.2889 -2.2380  0.1958
  205MOL   H10749475   7.632   2.931   1.792 -0.8504  0.2044  0.9485
  205MOL   H10849476   7.778   2.829   1.773  0.6547  0.8373  0.6628
  205MOL   H10949477   7.680   2.802   1.906  1.5281  3.2215  0.6475
  205MOL   C11049478   7.586   2.540   1.416 -0.0056 -0.2395  0.1865
  205MOL   C11149479   7.502   2.589   1.293  0.0052 -0.2099 -0.2610
  205MOL   C11249480   7.483   2.748   1.311 -0.2774  0.5276  0.2696
  205MOL   O11349481   7.374   2.799   1.296 -0.2669 -0.2979 -0.4525
  205MOL   O11449482   7.600   2.804   1.343  0.4799  0.2735 -0.2942
  205MOL   C11549483   7.616   2.948   1.356  0.7239  0.0889  1.2825
  205MOL   H11649484   7.689   2.574   1.407 -0.5937  1.2825 -0.9320
  205MOL   H11749485   7.598   2.434   1.394 -0.1373 -0.2721  0.2727
  205MOL   H11849486   7.408   2.535   1.306  0.0605 -0.6398 -1.5476
  205MOL   H11949487   7.550   2.999   1.426 -0.2800 -0.4747  0.7670
  205MOL   H12049488   7.594   2.999   1.262  0.4247  0.9027  1.7872
  205MOL   H12149489   7.719   2.975   1.380  1.1896 -1.3607  0.9373
  205MOL   C12249490   7.570   2.552   1.154  0.1466  0.0620 -0.1373
  205MOL   C12349491   7.491   2.590   1.034  0.3930 -0.0238  1.2899
  205MOL   C12449492   7.585   2.595   0.921  0.7619 -0.1179 -0.7578
  205MOL   O12549493   7.602   2.695   0.849 -0.2549  0.4767 -0.5196
  205MOL   O12649494   7.652   2.481   0.911  0.8365  0.0330  0.5753
  205MOL   C12749495   7.758   2.469   0.823  0.9386  0.5539 -0.4447
  205MOL   H12849496   7.669   2.598   1.164 -2.0109  4.7574  1.5602
  205MOL   H12949497   7.595   2.447   1.147  1.0820  0.2357  0.4570
  205MOL   H13049498   7.462   2.693   1.055 -0.7286  0.3036 -1.5992
  205MOL   H13149499   7.787   2.364   0.832 -0.9967  0.0802  0.3937
  205MOL   H13249500   7.836   2.540   0.851  0.9804  0.2039  0.3228
  205MOL   H13349501   7.732   2.482   0.718  0.2313 -0.3642 -0.3867
  205MOL   C13449502   7.364   2.503   1.013  0.5657  0.3971  0.3152
  205MOL   C13549503   7.252   2.572   0.931 -0.0872 -0.3713  0.0239
  205MOL   C13649504   7.283   2.573   0.782 -0.2276  0.3374  0.3941
  205MOL   O13749505   7.255   2.666   0.712  0.2489 -0.7394 -0.5904
  205MOL   O13849506   7.332   2.452   0.737  0.7520  0.1237  0.2743
  205MOL   C13949507   7.332   2.436   0.597  0.5213  0.5726  0.6757
  205MOL   H14049508   7.390   2.416   0.953  2.3592 -0.2028  1.9237
  205MOL   H14149509   7.324   2.464   1.106  1.1360 -1.2908 -0.1360
  205MOL   H14249510   7.261   2.676   0.961  0.0195 -0.1408 -0.8130
  205MOL   H14349511   7.394   2.516   0.557  0.4379  0.2087 -0.2120
  205MOL   H14449512   7.231   2.439   0.556  0.8676  3.7025 -0.0427
  205MOL   H14549513   7.377   2.342   0.564 -1.7702  0.2684 -1.7969
  205MOL   C14649514   7.119   2.505   0.962  0.0606 -0.7683  0.2269
  205MOL   C14749515   7.054   2.567   1.090 -0.6354  0.4244 -0.1783
  205MOL   C14849516   6.962   2.691   1.052  0.2958  0.4390  0.0373
  205MOL   O14949517   6.839   2.681   1.076  0.2990 -0.5966  0.5228
  205MOL   O15049518   7.025   2.804   1.007 -0.4487 -0.4594  0.4455
  205MOL   C15149519   6.947   2.919   0.981 -0.9140  0.1753  0.3278
  205MOL   H15249520   7.041   2.525   0.889 -0.2794 -1.0398  0.5117
  205MOL   H15349521   7.125   2.396   0.967  0.8522 -0.7683 -0.5525
  205MOL   H15449522   7.131   2.603   1.159 -0.1174 -0.7070 -0.1613
  205MOL   H15549523   6.926   2.959   1.080  2.1465 -1.7789  1.8334
  205MOL   H15649524   6.849   2.898   0.938 -0.3733 -0.4549 -0.6265
  205MOL   H15749525   7.004   2.992   0.923 -0.9312 -1.2408 -1.5247
  205MOL   C15849526   6.977   2.458   1.182 -0.6202  0.0167 -0.3557
  205MOL   C15949527   6.838   2.394   1.147  0.1668  0.6839 -0.5232
  205MOL   C16049528   6.836   2.328   1.011  0.5192 -0.4616  0.1304
  205MOL   O16149529   6.764   2.365   0.917  0.1003 -0.3198 -0.1237
  205MOL   O16249530   6.923   2.230   0.998 -0.2003 -0.3269  0.5388
  205MOL   C16349531   6.942   2.164   0.876  0.0203 -0.4617  0.8384
  205MOL   H16449532   7.054   2.383   1.201 -1.4504 -0.4199  1.4459
  205MOL   H16549533   6.966   2.501   1.281  0.4528  0.6309 -0.5027
  205MOL   H16649534   6.762   2.472   1.139 -0.9426 -0.1973  1.2489
  205MOL   H16749535   6.988   2.066   0.894 -0.6572 -0.6187  1.7251
  205MOL   H16849536   7.011   2.225   0.819 -1.8011  0.8378 -0.0147
  205MOL   H16949537   6.850   2.159   0.818 -0.3256  1.0468  1.2514
  205MOL   C17049538   6.792   2.291   1.252 -0.4767  0.1987  0.1968
  205MOL   C17149539   6.734   2.344   1.385 -0.0694 -0.6907  0.0986
  205MOL   C17249540   6.608   2.426   1.371  0.1248 -0.2999  0.4354
  205MOL   O17349541   6.601   2.543   1.423 -0.0549 -0.5827 -0.1954
  205MOL   O17449542   6.514   2.380   1.292 -0.7201  0.4998  0.8091
  205MOL   C17549543   6.421   2.469   1.227  0.3081 -0.4023  0.4196
  205MOL   H17649544   6.716   2.233   1.199 -2.0197  1.4742  0.9696
  205MOL   H17749545   6.883   2.235   1.271 -0.7339  0.8425  3.8489
  205MOL   H17849546   6.810   2.412   1.424 -1.5136  0.5549  0.8181
  205MOL   H17949547   6.465   2.564   1.196  2.1257 -1.0753  0.8827
  205MOL   H18049548   6.344   2.490   1.302  2.4137  1.7527  2.0664
  205MOL   H18149549   6.382   2.417   1.140  0.2510  0.5888 -0.1582
  205MOL   C18249550   6.699   2.222   1.473  0.0240  0.4206  0.0423
  205MOL   C18349551   6.719   2.244   1.628 -0.3840  0.0532 -0.4131
  205MOL   C18449552   6.599   2.304   1.700 -0.4557 -0.3553 -0.0893
  205MOL   O18549553   6.494   2.320   1.647  0.3171  0.5861 -0.1789
  205MOL   O18649554   6.629   2.327   1.832  0.1964 -0.2158 -0.4144
  205MOL   C18749555   6.514   2.372   1.910 -0.0572 -0.3740  0.3524
  205MOL   H18849556   6.596   2.188   1.464  0.4990 -1.8340  2.4307
  205MOL   H18949557   6.761   2.137   1.445 -0.9738 -0.5294  0.6919
  205MOL   H19049558   6.799   2.318   1.638 -0.2217 -0.4831  2.8654
  205MOL   H19149559   6.539   2.402   2.012  0.1276 -2.7876  1.0432
  205MOL   H19249560   6.430   2.304   1.927 -2.6388  1.7069 -3.4677
  205MOL   H19349561   6.483   2.469   1.872  1.3428 -0.2310 -0.4328
  205MOL   C19449562   6.766   2.120   1.709  0.2078 -0.5383  1.1002
  205MOL   C19549563   6.667   2.009   1.736  0.0298 -0.2757 -0.1448
  205MOL   C19649564   6.650   1.933   1.603 -0.0115  0.3292  0.0913
  205MOL   O19749565   6.748   1.882   1.547 -0.1646 -0.1983 -0.1666
  205MOL   O19849566   6.529   1.933   1.562 -0.4073 -0.1330  0.0973
  205MOL   C19949567   6.496   1.855   1.451  0.6428  0.3008 -0.1942
  205MOL   H20049568   6.860   2.083   1.668 -1.2152 -0.6237 -2.2306
  205MOL   H20149569   6.803   2.166   1.801 -0.0391  3.1498 -0.5604
  205MOL   H20249570   6.567   2.046   1.757 -0.0599 -1.5401  1.7587
  205MOL   H20349571   6.391   1.832   1.465  0.7407  0.5968  1.0439
  205MOL   H20449572   6.550   1.761   1.448 -1.5663 -0.9808 -0.6832
  205MOL   H20549573   6.512   1.909   1.357  0.9658 -1.6297 -1.2747
  205MOL   C20649574   6.698   1.917   1.855  0.8135 -0.2863  0.4803
  205MOL   C20749575   6.710   1.983   1.998 -0.1775  0.3635 -0.1306
  205MOL   C20849576   6.572   2.025   2.051 -0.1948 -0.5648  0.0420
  205MOL   O20949577   6.477   1.956   2.046  0.2549  0.5878 -0.2702
  205MOL   O21049578   6.579   2.136   2.124  0.0326 -0.2423  0.2886
  205MOL   C21149579   6.466   2.183   2.193 -0.2411 -0.1870  0.7823
  205MOL   H21249580   6.621   1.840   1.848  1.8270 -1.2087 -0.7943
  205MOL   H21349581   6.794   1.868   1.837  1.4410  0.7137  1.0778
  205MOL   H21449582   6.772   2.070   1.979  2.2651 -0.9908  1.4573
  205MOL   H21549583   6.370   2.156   2.148  0.1701 -1.0169  0.3943
  205MOL   H21649584   6.468   2.291   2.181  1.6800 -0.0210  2.4436
  205MOL   H21749585   6.466   2.166   2.300  2.5897  2.5259  1.2597
  205MOL   C21849586   6.774   1.894   2.109 -0.1001 -0.4539 -0.1956
  205MOL   C21949587   6.919   1.862   2.085 -0.4128  0.3173 -0.4612
  205MOL   C22049588   7.002   1.988   2.079  0.1695 -0.3988 -0.1411
  205MOL   O22149589   7.032   2.025   1.966  0.1620  0.2316  0.5202
  205MOL   O22249590   7.045   2.039   2.199 -0.3647 -0.0322 -0.7490
  205MOL   C22349591   7.122   2.152   2.189 -0.0107  0.3648 -0.3740
  205MOL   H22449592   6.767   1.943   2.206 -0.3164  0.6614 -0.7664
  205MOL   H22549593   6.711   1.805   2.106  0.0655 -0.5362 -2.8182
  205MOL   H22649594   6.922   1.814   1.987  0.6599  0.3814 -0.4673
  205MOL   H22749595   7.222   2.135   2.149 -0.3042 -1.0854 -0.5429
  205MOL   H22849596   7.138   2.193   2.288  2.8239 -2.1859  0.2953
  205MOL   H22949597   7.077   2.234   2.132 -1.6928 -1.5309 -1.8831
  205MOL   C23049598   6.963   1.752   2.190 -0.2433 -0.0827  0.0559
  205MOL   C23149599   7.064   1.646   2.151 -0.2424  0.5405 -0.2768
  205MOL   C23249600   7.021   1.528   2.059  0.3966 -0.0825 -0.8071
  205MOL   O23349601   7.020   1.414   2.101  0.5327  0.6797 -0.1370
  205MOL   O23449602   6.967   1.574   1.942 -0.7393 -0.0828 -0.3020
  205MOL   C23549603   6.927   1.494   1.836  0.2136 -0.1158  0.4098
  205MOL   H23649604   7.005   1.798   2.279  2.6187 -0.3855 -1.0938
  205MOL   H23749605   6.878   1.701   2.236 -0.8303  0.0343 -0.8728
  205MOL   H23849606   7.113   1.599   2.236 -1.2074 -2.3930 -1.2820
  205MOL   H23949607   6.846   1.431   1.874 -1.8840  2.3807  0.2090
  205MOL   H24049608   7.001   1.433   1.784 -1.6623  0.2893 -2.9170
  205MOL   H24149609   6.881   1.562   1.764  1.7823 -0.2736 -0.7666
  205MOL   H24249610   7.142   1.698   2.094 -1.1006  0.8342 -1.1998
  206MOL     C149611   1.640   1.246   0.204 -0.0016 -0.4095  0.3180
  206MOL     C249612   1.547   1.300   0.321 -0.4530  0.1754  0.9729
  206MOL     C349613   1.409   1.316   0.257 -0.1183 -0.7958  0.9256
  206MOL     O449614   1.393   1.325   0.136 -0.4737  0.2283 -0.1664
  206MOL     O549615   1.305   1.330   0.348 -0.2865 -0.1887  0.1777
  206MOL     C649616   1.177   1.373   0.303 -0.4309 -0.0047  0.3400
  206MOL     H749617   1.740   1.243   0.248 -0.2477 -3.0835  0.7642
  206MOL     H849618   1.637   1.308   0.115  0.9398 -0.0379  0.5433
  206MOL     H949619   1.590   1.397   0.348 -1.0577  0.6615  0.2060
  206MOL    H1049620   1.151   1.314   0.215  2.1512 -1.2175  0.3365
  206MOL    H1149621   1.165   1.481   0.296 -0.6318  0.0409  1.2856
  206MOL    H1249622   1.108   1.352   0.385  1.0890  1.5361  2.0710
  206MOL    H1349623   1.619   1.144   0.173 -1.2642  0.0336 -0.3252
  206MOL    C1449624   1.545   1.195   0.437 -0.4201  0.3372 -0.4949
  206MOL    C1549625   1.670   1.186   0.528 -0.6651  0.3352  0.4823
  206MOL    C1649626   1.689   1.310   0.613  1.0760  0.2799 -0.4143
  206MOL    O1749627   1.584   1.360   0.660  0.1511 -0.2375  0.5825
  206MOL    O1849628   1.814   1.353   0.631 -0.2786  1.0191 -0.2337
  206MOL    C1949629   1.823   1.479   0.692  0.0740  0.5118 -0.5041
  206MOL    H2049630   1.456   1.204   0.499  0.0650 -1.4643  0.4976
  206MOL    H2149631   1.532   1.098   0.388 -2.1854  0.6466 -0.6722
  206MOL    H2249632   1.759   1.166   0.469  0.1145  1.3388  1.2871
  206MOL    H2349633   1.775   1.461   0.788  1.3958  0.0897  0.0891
  206MOL    H2449634   1.769   1.556   0.638 -0.3062  1.0076  0.5650
  206MOL    H2549635   1.927   1.513   0.688  1.3148 -3.0068 -0.0084
  206MOL    C2649636   1.656   1.061   0.619  0.2175 -0.0307 -0.8312
  206MOL    C2749637   1.763   1.040   0.727  0.0174  0.1896  0.2258
  206MOL    C2849638   1.725   0.938   0.825 -0.3240  0.7448  0.1374
  206MOL    O2949639   1.628   0.864   0.822 -0.1184 -0.1096  0.2891
  206MOL    O3049640   1.831   0.926   0.910 -0.0503  0.0705  0.3967
  206MOL    C3149641   1.830   0.826   1.007 -0.2186 -1.0772 -0.6542
  206MOL    H3249642   1.558   1.058   0.666  0.1359 -1.4155 -1.0890
  206MOL    H3349643   1.653   0.976   0.551 -0.5573 -0.6922  0.0226
  206MOL    H3449644   1.778   1.135   0.778  0.4125  0.4374 -0.3449
  206MOL    H3549645   1.760   0.860   1.083 -0.8720  0.0911 -1.7758
  206MOL    H3649646   1.929   0.818   1.052 -0.6220 -0.0927  0.4551
  206MOL    H3749647   1.786   0.735   0.966  0.4667 -1.5836 -0.2778
  206MOL    C3849648   1.908   1.004   0.672  0.0924  0.1527  0.4498
  206MOL    C3949649   1.941   0.859   0.629  0.2214 -0.7785 -0.6054
  206MOL    C4049650   1.880   0.829   0.493  0.1879 -0.1383  0.0583
  206MOL    O4149651   1.800   0.734   0.479  0.8071  0.5350 -0.2424
  206MOL    O4249652   1.928   0.910   0.399  0.3227  0.3244  0.2214
  206MOL    C4349653   1.867   0.909   0.269  0.1032  0.2934 -0.2991
  206MOL    H4449654   1.935   1.072   0.591 -1.2368  1.6188  1.2276
  206MOL    H4549655   1.987   1.035   0.740  1.2138 -1.9767  0.1578
  206MOL    H4649656   1.889   0.782   0.686 -1.3628  0.7900  0.0928
  206MOL    H4749657   1.766   0.948   0.274 -0.6515 -1.8322  1.9078
  206MOL    H4849658   1.867   0.805   0.236  0.5185  0.4157 -0.6905
  206MOL    H4949659   1.927   0.960   0.193 -1.5851  1.5347 -0.8349
  206MOL    C5049660   2.089   0.824   0.625 -0.2367  0.2315 -0.3428
  206MOL    C5149661   2.152   0.775   0.765  0.0177 -0.0132 -0.8346
  206MOL    C5249662   2.113   0.633   0.812 -0.1857  0.2729 -0.3389
  206MOL    O5349663   2.020   0.616   0.896  0.1076 -0.2827 -0.0560
  206MOL    O5449664   2.185   0.536   0.768  0.2669  0.2381 -0.9170
  206MOL    C5549665   2.159   0.398   0.794 -1.0787 -0.2816  0.5969
  206MOL    H5649666   2.112   0.746   0.552  0.7480  0.2966 -0.1076
  206MOL    H5749667   2.144   0.912   0.590  1.3493 -0.6224 -0.0323
  206MOL    H5849668   2.108   0.834   0.845 -1.9399  0.6585 -2.3720
  206MOL    H5949669   2.187   0.385   0.899  3.5202  0.4683 -0.4273
  206MOL    H6049670   2.217   0.324   0.739 -0.0370 -0.6920  2.2060
  206MOL    H6149671   2.051   0.379   0.790 -1.5301  2.2923 -0.3395
  206MOL    C6249672   2.308   0.786   0.769 -0.9286 -0.0927  0.5193
  206MOL    C6349673   2.377   0.794   0.906 -0.1389 -0.1800  0.0772
  206MOL    C6449674   2.479   0.679   0.919 -0.1904  0.1653 -0.7243
  206MOL    O6549675   2.598   0.693   0.904  0.2987  0.3081  0.4012
  206MOL    O6649676   2.427   0.565   0.930  0.1110 -0.1891  0.1891
  206MOL    C6749677   2.510   0.446   0.913  0.4873 -0.4310 -0.2193
  206MOL    H6849678   2.351   0.703   0.712  0.8569  1.1574  0.0172
  206MOL    H6949679   2.335   0.876   0.713  0.4917 -1.5231 -1.1534
  206MOL    H7049680   2.304   0.770   0.983  0.2818 -1.2582  0.1438
  206MOL    H7149681   2.457   0.370   0.857 -0.5802  1.0623 -1.2732
  206MOL    H7249682   2.539   0.403   1.009 -0.2850 -0.2121  0.1173
  206MOL    H7349683   2.599   0.451   0.849  0.7892  0.2269  0.2435
  206MOL    C7449684   2.436   0.935   0.924  0.3048 -0.1367  0.4383
  206MOL    C7549685   2.518   0.973   1.044  0.2194 -0.1765 -0.2456
  206MOL    C7649686   2.565   1.125   1.042  0.0350 -0.3911  0.4423
  206MOL    O7749687   2.497   1.221   1.005  0.0144  0.1823 -0.4723
  206MOL    O7849688   2.678   1.135   1.110  0.2611 -0.9612 -0.6990
  206MOL    C7949689   2.723   1.266   1.142  0.2215 -0.6971  0.0777
  206MOL    H8049690   2.482   0.966   0.830 -0.4638  1.5421  0.5918
  206MOL    H8149691   2.351   1.004   0.919  1.6054  1.5061  0.5837
  206MOL    H8249692   2.615   0.924   1.048 -0.4570 -1.4142  2.1577
  206MOL    H8349693   2.830   1.266   1.162  0.9241 -0.2522 -3.4471
  206MOL    H8449694   2.670   1.300   1.231  0.7281 -1.2938  0.6125
  206MOL    H8549695   2.706   1.335   1.059 -0.8176 -0.4659  0.4694
  206MOL    C8649696   2.473   0.932   1.186  0.3555 -0.7965 -0.7244
  206MOL    C8749697   2.366   1.016   1.263 -0.4680  0.2412 -0.4726
  206MOL    C8849698   2.234   1.020   1.189 -0.5382  0.1336 -0.0679
  206MOL    O8949699   2.183   0.911   1.179 -0.1957 -0.3840 -0.0729
  206MOL    O9049700   2.190   1.147   1.159 -0.1654  0.4614 -0.3674
  206MOL    C9149701   2.057   1.152   1.107  0.4311 -0.5944 -0.7460
  206MOL    H9249702   2.434   0.831   1.172  0.4714 -0.8524 -0.6417
  206MOL    H9349703   2.560   0.917   1.250 -0.2901  2.2693  1.0007
  206MOL    H9449704   2.393   1.121   1.269 -0.3754  0.2510 -1.0214
  206MOL    H9549705   2.012   1.252   1.102  0.4552 -0.4820  0.8047
  206MOL    H9649706   1.985   1.090   1.161  0.4219  0.8020  0.8987
  206MOL    H9749707   2.046   1.112   1.007  1.7466  0.3002 -1.2672
  206MOL    C9849708   2.341   0.959   1.404 -0.6443  0.1181 -0.0854
  206MOL    C9949709   2.457   0.977   1.508 -0.2574  0.4964  0.4714
  206MOL   C10049710   2.479   1.126   1.547  0.7249  0.2936 -0.0875
  206MOL   O10149711   2.591   1.171   1.552  0.3098  0.5502 -0.8492
  206MOL   O10249712   2.367   1.185   1.582  0.5101 -0.0462  0.1950
  206MOL   C10349713   2.369   1.321   1.633 -0.6201  0.1120 -0.2954
  206MOL   H10449714   2.253   1.000   1.455 -1.2448 -0.2531 -0.8039
  206MOL   H10549715   2.311   0.855   1.411 -1.6637  0.3008 -1.5930
  206MOL   H10649716   2.538   0.926   1.456  0.1364 -0.1024  1.6650
  206MOL   H10749717   2.415   1.324   1.732  0.6366  1.5927 -0.9081
  206MOL   H10849718   2.262   1.342   1.639 -0.5329  0.8031 -1.1652
  206MOL   H10949719   2.421   1.396   1.573 -0.5100  1.2062  1.1305
  206MOL   C11049720   2.420   0.894   1.632 -0.2880  0.6236 -0.5037
  206MOL   C11149721   2.538   0.872   1.724  0.0518 -0.7113  0.1729
  206MOL   C11249722   2.493   0.849   1.866  0.3463  0.0956 -0.5297
  206MOL   O11349723   2.537   0.917   1.959 -1.0141  0.3864  0.0805
  206MOL   O11449724   2.402   0.749   1.874 -0.2984 -0.4437 -0.2486
  206MOL   C11549725   2.350   0.725   2.008 -0.2775  0.0625  0.9752
  206MOL   H11649726   2.338   0.941   1.687 -0.5366 -1.3605  0.8560
  206MOL   H11749727   2.389   0.794   1.603  0.5990  0.4656 -0.9226
  206MOL   H11849728   2.587   0.969   1.732 -0.0334 -0.8414  2.7937
  206MOL   H11949729   2.303   0.818   2.041  0.3932 -0.1271  2.5296
  206MOL   H12049730   2.435   0.709   2.075 -1.7026 -1.3646  2.4770
  206MOL   H12149731   2.279   0.643   2.009 -0.6763  0.3723 -0.3112
  206MOL   C12249732   2.642   0.771   1.674  0.0408  0.0861 -0.3868
  206MOL   C12349733   2.797   0.788   1.697  0.0467 -0.0163 -0.0012
  206MOL   C12449734   2.849   0.911   1.632 -0.7236  0.3353  0.3560
  206MOL   O12549735   2.913   0.991   1.699  0.3475 -0.6487 -0.2605
  206MOL   O12649736   2.812   0.922   1.498  0.1610 -0.2399 -0.0832
  206MOL   C12749737   2.857   1.034   1.412  0.7807  0.9209  0.3324
  206MOL   H12849738   2.619   0.667   1.698 -0.2133  0.2565  0.1143
  206MOL   H12949739   2.640   0.768   1.565  2.4766 -1.0125 -0.4298
  206MOL   H13049740   2.849   0.708   1.644 -2.0883 -1.9839  0.7686
  206MOL   H13149741   2.786   1.027   1.329 -0.6340 -2.7981  1.7300
  206MOL   H13249742   2.959   1.029   1.373 -0.0040  0.6305 -1.7699
  206MOL   H13349743   2.844   1.129   1.464  1.3261  2.0163 -1.4989
  206MOL   C13449744   2.839   0.764   1.838 -0.0343 -0.4396 -0.4844
  206MOL   C13549745   2.890   0.629   1.880 -0.5705  0.1680 -0.1467
  206MOL   C13649746   2.791   0.519   1.855  0.2763  0.6635 -0.1677
  206MOL   O13749747   2.816   0.426   1.776  0.2031 -0.2237 -0.2406
  206MOL   O13849748   2.675   0.537   1.936 -0.1285  0.5197 -0.2123
  206MOL   C13949749   2.573   0.442   1.929  0.5241 -1.1038 -0.2143
  206MOL   H14049750   2.910   0.838   1.876  0.0033  0.5980 -2.4765
  206MOL   H14149751   2.754   0.783   1.903  0.8235 -0.1836  0.5679
  206MOL   H14249752   2.904   0.638   1.988  1.0052  1.0050 -0.4141
  206MOL   H14349753   2.602   0.337   1.935  2.2500 -0.6384 -0.1975
  206MOL   H14449754   2.528   0.453   1.830 -0.0142 -0.4732  0.1004
  206MOL   H14549755   2.496   0.457   2.005  2.0571  0.4778  1.0678
  206MOL   C14649756   3.029   0.600   1.815  0.3810 -0.6549  0.0193
  206MOL   C14749757   3.153   0.694   1.852 -0.5281 -0.4558 -0.4827
  206MOL   C14849758   3.175   0.689   2.011 -0.1838 -0.8602  0.1656
  206MOL   O14949759   3.153   0.788   2.075  0.2040  0.4231  0.6637
  206MOL   O15049760   3.233   0.574   2.063  0.0661  0.1736  0.4588
  206MOL   C15149761   3.264   0.571   2.205 -1.0782  0.4979  0.2322
  206MOL   H15249762   3.063   0.502   1.847 -1.1970 -1.1724  0.1486
  206MOL   H15349763   3.017   0.589   1.707 -0.6210 -0.6720  0.1252
  206MOL   H15449764   3.127   0.794   1.818 -1.6476  0.0656  1.7566
  206MOL   H15549765   3.316   0.649   2.260 -0.6989 -0.8072  1.7729
  206MOL   H15649766   3.322   0.482   2.232 -1.1452 -0.2261 -1.9044
  206MOL   H15749767   3.168   0.566   2.256  0.8420 -1.5311  3.8639
  206MOL   C15849768   3.283   0.647   1.776  0.5195  0.0021  0.1672
  206MOL   C15949769   3.414   0.721   1.809  0.3128  0.2641 -0.2542
  206MOL   C16049770   3.529   0.643   1.757 -0.3069 -0.3083 -0.3865
  206MOL   O16149771   3.621   0.588   1.824  0.5014  0.8678 -0.1834
  206MOL   O16249772   3.512   0.623   1.625 -0.4997 -0.1929  1.1240
  206MOL   C16349773   3.619   0.568   1.557  0.2587 -0.0732  0.0154
  206MOL   H16449774   3.301   0.540   1.786 -1.1738 -0.3032  0.1096
  206MOL   H16549775   3.261   0.655   1.669 -1.5155  1.2737  0.6428
  206MOL   H16649776   3.411   0.721   1.918  0.7110 -2.2351 -0.2172
  206MOL   H16749777   3.700   0.641   1.560  0.2217 -0.0367  0.1225
  206MOL   H16849778   3.589   0.554   1.453  1.9401 -0.4165 -0.4260
  206MOL   H16949779   3.654   0.471   1.593  1.6649  0.9909  1.5818
  206MOL   C17049780   3.424   0.871   1.780 -0.1215  0.5930  0.4513
  206MOL   C17149781   3.549   0.932   1.848 -0.2362 -0.5971  0.3654
  206MOL   C17249782   3.560   1.081   1.807  0.6301  0.4430  0.4208
  206MOL   O17349783   3.638   1.118   1.723  0.0332  0.0525  0.2104
  206MOL   O17449784   3.467   1.154   1.862  0.2654  0.1980  0.0709
  206MOL   C17549785   3.433   1.277   1.810  0.0055 -0.8515 -0.1413
  206MOL   H17649786   3.423   0.893   1.673 -0.8899  0.8516  0.5050
  206MOL   H17749787   3.333   0.917   1.819 -1.1907 -2.2795  1.4402
  206MOL   H17849788   3.639   0.888   1.803  1.4330  1.1617  1.8974
  206MOL   H17949789   3.376   1.332   1.886 -1.7533  1.1904 -2.8566
  206MOL   H18049790   3.362   1.255   1.730 -0.1932 -0.4505 -0.0786
  206MOL   H18149791   3.518   1.336   1.777 -0.8126  0.0844 -0.6123
  206MOL   C18249792   3.560   0.929   2.009 -0.6579  0.5760  0.6158
  206MOL   C18349793   3.641   0.820   2.078  0.0060  0.1744 -1.0602
  206MOL   C18449794   3.786   0.834   2.044 -0.9467  0.8259  0.1145
  206MOL   O18549795   3.842   0.752   1.976 -0.0595  0.3631  0.1347
  206MOL   O18649796   3.848   0.941   2.093  0.1255  0.7100 -0.7150
  206MOL   C18749797   3.993   0.954   2.092 -0.2243 -0.5547 -0.4806
  206MOL   H18849798   3.583   1.028   2.049 -0.5685  0.5891  0.5326
  206MOL   H18949799   3.461   0.917   2.054 -0.7182 -1.7850 -0.0784
  206MOL   H19049800   3.600   0.728   2.037 -1.0897  0.8693 -1.5334
  206MOL   H19149801   4.025   1.030   2.021  0.6384 -0.9944 -0.5697
  206MOL   H19249802   4.044   0.860   2.072  1.6209  0.3447 -0.1446
  206MOL   H19349803   4.032   0.988   2.188  1.5831 -0.2384 -1.3130
  206MOL   C19449804   3.615   0.797   2.226 -0.0222  0.0304 -0.2903
  206MOL   C19549805   3.698   0.687   2.290 -0.8043 -0.2211 -0.4125
  206MOL   C19649806   3.690   0.689   2.443  0.3419  0.1802  0.6620
  206MOL   O19749807   3.790   0.718   2.506  0.2033  0.6372 -0.0256
  206MOL   O19849808   3.558   0.678   2.492 -0.2083 -0.4654  0.4531
  206MOL   C19949809   3.535   0.694   2.629 -0.5258 -0.0723 -0.3923
  206MOL   H20049810   3.624   0.892   2.279 -1.1549  0.1392 -0.2804
  206MOL   H20149811   3.513   0.762   2.239  0.6763 -2.2117 -0.7120
  206MOL   H20249812   3.803   0.690   2.262 -0.4150 -2.0862  0.7298
  206MOL   H20349813   3.586   0.786   2.659 -0.9629 -0.1517  0.5839
  206MOL   H20449814   3.568   0.601   2.674  0.3250 -0.2435 -1.3364
  206MOL   H20549815   3.432   0.708   2.663 -0.2153  2.3914 -0.3649
  206MOL   C20649816   3.659   0.553   2.218  0.4369 -0.7361  0.5651
  206MOL   C20749817   3.742   0.431   2.262  0.6396  0.4566  0.0990
  206MOL   C20849818   3.639   0.338   2.337  0.0766  0.7055 -0.6540
  206MOL   O20949819   3.518   0.318   2.310 -0.2743  0.3230  0.0204
  206MOL   O21049820   3.695   0.290   2.442 -0.4228 -0.4198  0.4060
  206MOL   C21149821   3.626   0.226   2.547  0.1819 -0.2945 -1.0542
  206MOL   H21249822   3.551   0.542   2.231  0.2025  1.0713  0.3570
  206MOL   H21349823   3.671   0.553   2.109  0.9323 -2.4536  0.6034
  206MOL   H21449824   3.819   0.464   2.332 -0.3677  3.4234 -0.1377
  206MOL   H21549825   3.600   0.121   2.535  2.0081 -1.3976  3.3742
  206MOL   H21649826   3.535   0.284   2.562 -1.3945 -2.5946 -1.3622
  206MOL   H21749827   3.677   0.226   2.643 -1.3208 -0.8433 -0.2330
  206MOL   C21849828   3.804   0.349   2.146 -0.2032 -0.7987  0.2442
  206MOL   C21949829   3.911   0.429   2.055 -0.6374 -0.2333  0.1083
  206MOL   C22049830   4.041   0.457   2.136 -0.6134  0.4914  0.0398
  206MOL   O22149831   4.038   0.542   2.224  0.1920 -0.0359  0.3285
  206MOL   O22249832   4.155   0.391   2.110  0.3666 -0.0309  1.1301
  206MOL   C22349833   4.273   0.443   2.162  0.1968 -0.2008  0.1068
  206MOL   H22449834   3.853   0.256   2.172 -2.0722 -1.7592  0.4155
  206MOL   H22549835   3.723   0.311   2.083 -1.3533  0.1976  1.1017
  206MOL   H22649836   3.873   0.530   2.040  0.7544  0.4649  1.2007
  206MOL   H22749837   4.261   0.483   2.263 -1.0756 -0.5674  0.1025
  206MOL   H22849838   4.300   0.519   2.090 -1.3572 -0.1018 -0.3687
  206MOL   H22949839   4.358   0.374   2.173 -0.6938 -1.1025  1.4635
  206MOL   C23049840   3.937   0.356   1.920 -0.2692  0.1468 -0.6067
  206MOL   C23149841   4.017   0.426   1.811 -0.2086  0.0138 -0.5645
  206MOL   C23249842   4.019   0.345   1.682  0.4843 -0.1269  0.3256
  206MOL   O23349843   4.088   0.243   1.668 -0.4345 -0.0433 -0.3265
  206MOL   O23449844   3.937   0.399   1.590  0.0666  0.0451  0.1535
  206MOL   C23549845   3.918   0.329   1.470 -0.2180 -0.3327 -0.1788
  206MOL   H23649846   3.978   0.259   1.947 -0.2723  0.6964  1.3801
  206MOL   H23749847   3.837   0.333   1.882 -0.7866  0.8747  0.2841
  206MOL   H23849848   4.118   0.435   1.851 -0.6323 -0.8581  0.7123
  206MOL   H23949849   3.866   0.233   1.467  0.2839 -0.6780  1.4934
  206MOL   H24049850   4.017   0.304   1.431 -0.9623 -1.1120 -1.6499
  206MOL   H24149851   3.870   0.405   1.409 -0.9025 -0.3660  0.3173
  206MOL   H24249852   3.966   0.518   1.784  1.2070  0.5008 -1.7067
   7.93281   7.93281   7.93281
