;
; Gromacs include topology (itp) file.
; For Molecular Group XYZ
; Force field scheme: opls2005
; Produced from DL_FIELD v4.11
;


[ moleculetype ]
; name    nrexcl
XYZ    3

[ atoms ]
; nr   type   resnr   residu    atom    cgnr    charge    mass
    1        CT    1  MOL      C1     1  -0.1800000   12.0115
    2        CT    1  MOL      C2     2  -0.0600000   12.0115
    3       CO4    1  MOL      C3     3   0.5100000   12.0115
    4         O    1  MOL      O4     4  -0.4300000   15.9994
    5       OES    1  MOL      O5     5  -0.3300000   15.9994
    6        CT    1  MOL      C6     6   0.1600000   12.0115
    7        HC    1  MOL      H7     7   0.0600000    1.0080
    8        HC    1  MOL      H8     8   0.0600000    1.0080
    9       HAE    1  MOL      H9     9   0.0600000    1.0080
   10       HAE    1  MOL     H10    10   0.0300000    1.0080
   11       HAE    1  MOL     H11    11   0.0300000    1.0080
   12       HAE    1  MOL     H12    12   0.0300000    1.0080
   13        HC    1  MOL     H13    13   0.0600000    1.0080
   14        CT    1  MOL     C14    14  -0.1200000   12.0115
   15        CT    1  MOL     C15    15  -0.0600000   12.0115
   16       CO4    1  MOL     C16    16   0.5100000   12.0115
   17         O    1  MOL     O17    17  -0.4300000   15.9994
   18       OES    1  MOL     O18    18  -0.3300000   15.9994
   19        CT    1  MOL     C19    19   0.1600000   12.0115
   20        HC    1  MOL     H20    20   0.0600000    1.0080
   21        HC    1  MOL     H21    21   0.0600000    1.0080
   22       HAE    1  MOL     H22    22   0.0600000    1.0080
   23       HAE    1  MOL     H23    23   0.0300000    1.0080
   24       HAE    1  MOL     H24    24   0.0300000    1.0080
   25       HAE    1  MOL     H25    25   0.0300000    1.0080
   26        CT    1  MOL     C26    26  -0.1200000   12.0115
   27        CT    1  MOL     C27    27  -0.0600000   12.0115
   28       CO4    1  MOL     C28    28   0.5100000   12.0115
   29         O    1  MOL     O29    29  -0.4300000   15.9994
   30       OES    1  MOL     O30    30  -0.3300000   15.9994
   31        CT    1  MOL     C31    31   0.1600000   12.0115
   32        HC    1  MOL     H32    32   0.0600000    1.0080
   33        HC    1  MOL     H33    33   0.0600000    1.0080
   34       HAE    1  MOL     H34    34   0.0600000    1.0080
   35       HAE    1  MOL     H35    35   0.0300000    1.0080
   36       HAE    1  MOL     H36    36   0.0300000    1.0080
   37       HAE    1  MOL     H37    37   0.0300000    1.0080
   38        CT    1  MOL     C38    38  -0.1200000   12.0115
   39        CT    1  MOL     C39    39  -0.0600000   12.0115
   40       CO4    1  MOL     C40    40   0.5100000   12.0115
   41         O    1  MOL     O41    41  -0.4300000   15.9994
   42       OES    1  MOL     O42    42  -0.3300000   15.9994
   43        CT    1  MOL     C43    43   0.1600000   12.0115
   44        HC    1  MOL     H44    44   0.0600000    1.0080
   45        HC    1  MOL     H45    45   0.0600000    1.0080
   46       HAE    1  MOL     H46    46   0.0600000    1.0080
   47       HAE    1  MOL     H47    47   0.0300000    1.0080
   48       HAE    1  MOL     H48    48   0.0300000    1.0080
   49       HAE    1  MOL     H49    49   0.0300000    1.0080
   50        CT    1  MOL     C50    50  -0.1200000   12.0115
   51        CT    1  MOL     C51    51  -0.0600000   12.0115
   52       CO4    1  MOL     C52    52   0.5100000   12.0115
   53         O    1  MOL     O53    53  -0.4300000   15.9994
   54       OES    1  MOL     O54    54  -0.3300000   15.9994
   55        CT    1  MOL     C55    55   0.1600000   12.0115
   56        HC    1  MOL     H56    56   0.0600000    1.0080
   57        HC    1  MOL     H57    57   0.0600000    1.0080
   58       HAE    1  MOL     H58    58   0.0600000    1.0080
   59       HAE    1  MOL     H59    59   0.0300000    1.0080
   60       HAE    1  MOL     H60    60   0.0300000    1.0080
   61       HAE    1  MOL     H61    61   0.0300000    1.0080
   62        CT    1  MOL     C62    62  -0.1200000   12.0115
   63        CT    1  MOL     C63    63  -0.0600000   12.0115
   64       CO4    1  MOL     C64    64   0.5100000   12.0115
   65         O    1  MOL     O65    65  -0.4300000   15.9994
   66       OES    1  MOL     O66    66  -0.3300000   15.9994
   67        CT    1  MOL     C67    67   0.1600000   12.0115
   68        HC    1  MOL     H68    68   0.0600000    1.0080
   69        HC    1  MOL     H69    69   0.0600000    1.0080
   70       HAE    1  MOL     H70    70   0.0600000    1.0080
   71       HAE    1  MOL     H71    71   0.0300000    1.0080
   72       HAE    1  MOL     H72    72   0.0300000    1.0080
   73       HAE    1  MOL     H73    73   0.0300000    1.0080
   74        CT    1  MOL     C74    74  -0.1200000   12.0115
   75        CT    1  MOL     C75    75  -0.0600000   12.0115
   76       CO4    1  MOL     C76    76   0.5100000   12.0115
   77         O    1  MOL     O77    77  -0.4300000   15.9994
   78       OES    1  MOL     O78    78  -0.3300000   15.9994
   79        CT    1  MOL     C79    79   0.1600000   12.0115
   80        HC    1  MOL     H80    80   0.0600000    1.0080
   81        HC    1  MOL     H81    81   0.0600000    1.0080
   82       HAE    1  MOL     H82    82   0.0600000    1.0080
   83       HAE    1  MOL     H83    83   0.0300000    1.0080
   84       HAE    1  MOL     H84    84   0.0300000    1.0080
   85       HAE    1  MOL     H85    85   0.0300000    1.0080
   86        CT    1  MOL     C86    86  -0.1200000   12.0115
   87        CT    1  MOL     C87    87  -0.0600000   12.0115
   88       CO4    1  MOL     C88    88   0.5100000   12.0115
   89         O    1  MOL     O89    89  -0.4300000   15.9994
   90       OES    1  MOL     O90    90  -0.3300000   15.9994
   91        CT    1  MOL     C91    91   0.1600000   12.0115
   92        HC    1  MOL     H92    92   0.0600000    1.0080
   93        HC    1  MOL     H93    93   0.0600000    1.0080
   94       HAE    1  MOL     H94    94   0.0600000    1.0080
   95       HAE    1  MOL     H95    95   0.0300000    1.0080
   96       HAE    1  MOL     H96    96   0.0300000    1.0080
   97       HAE    1  MOL     H97    97   0.0300000    1.0080
   98        CT    1  MOL     C98    98  -0.1200000   12.0115
   99        CT    1  MOL     C99    99  -0.0600000   12.0115
  100       CO4    1  MOL    C100   100   0.5100000   12.0115
  101         O    1  MOL    O101   101  -0.4300000   15.9994
  102       OES    1  MOL    O102   102  -0.3300000   15.9994
  103        CT    1  MOL    C103   103   0.1600000   12.0115
  104        HC    1  MOL    H104   104   0.0600000    1.0080
  105        HC    1  MOL    H105   105   0.0600000    1.0080
  106       HAE    1  MOL    H106   106   0.0600000    1.0080
  107       HAE    1  MOL    H107   107   0.0300000    1.0080
  108       HAE    1  MOL    H108   108   0.0300000    1.0080
  109       HAE    1  MOL    H109   109   0.0300000    1.0080
  110        CT    1  MOL    C110   110  -0.1200000   12.0115
  111        CT    1  MOL    C111   111  -0.0600000   12.0115
  112       CO4    1  MOL    C112   112   0.5100000   12.0115
  113         O    1  MOL    O113   113  -0.4300000   15.9994
  114       OES    1  MOL    O114   114  -0.3300000   15.9994
  115        CT    1  MOL    C115   115   0.1600000   12.0115
  116        HC    1  MOL    H116   116   0.0600000    1.0080
  117        HC    1  MOL    H117   117   0.0600000    1.0080
  118       HAE    1  MOL    H118   118   0.0600000    1.0080
  119       HAE    1  MOL    H119   119   0.0300000    1.0080
  120       HAE    1  MOL    H120   120   0.0300000    1.0080
  121       HAE    1  MOL    H121   121   0.0300000    1.0080
  122        CT    1  MOL    C122   122  -0.1200000   12.0115
  123        CT    1  MOL    C123   123  -0.0600000   12.0115
  124       CO4    1  MOL    C124   124   0.5100000   12.0115
  125         O    1  MOL    O125   125  -0.4300000   15.9994
  126       OES    1  MOL    O126   126  -0.3300000   15.9994
  127        CT    1  MOL    C127   127   0.1600000   12.0115
  128        HC    1  MOL    H128   128   0.0600000    1.0080
  129        HC    1  MOL    H129   129   0.0600000    1.0080
  130       HAE    1  MOL    H130   130   0.0600000    1.0080
  131       HAE    1  MOL    H131   131   0.0300000    1.0080
  132       HAE    1  MOL    H132   132   0.0300000    1.0080
  133       HAE    1  MOL    H133   133   0.0300000    1.0080
  134        CT    1  MOL    C134   134  -0.1200000   12.0115
  135        CT    1  MOL    C135   135  -0.0600000   12.0115
  136       CO4    1  MOL    C136   136   0.5100000   12.0115
  137         O    1  MOL    O137   137  -0.4300000   15.9994
  138       OES    1  MOL    O138   138  -0.3300000   15.9994
  139        CT    1  MOL    C139   139   0.1600000   12.0115
  140        HC    1  MOL    H140   140   0.0600000    1.0080
  141        HC    1  MOL    H141   141   0.0600000    1.0080
  142       HAE    1  MOL    H142   142   0.0600000    1.0080
  143       HAE    1  MOL    H143   143   0.0300000    1.0080
  144       HAE    1  MOL    H144   144   0.0300000    1.0080
  145       HAE    1  MOL    H145   145   0.0300000    1.0080
  146        CT    1  MOL    C146   146  -0.1200000   12.0115
  147        CT    1  MOL    C147   147  -0.0600000   12.0115
  148       CO4    1  MOL    C148   148   0.5100000   12.0115
  149         O    1  MOL    O149   149  -0.4300000   15.9994
  150       OES    1  MOL    O150   150  -0.3300000   15.9994
  151        CT    1  MOL    C151   151   0.1600000   12.0115
  152        HC    1  MOL    H152   152   0.0600000    1.0080
  153        HC    1  MOL    H153   153   0.0600000    1.0080
  154       HAE    1  MOL    H154   154   0.0600000    1.0080
  155       HAE    1  MOL    H155   155   0.0300000    1.0080
  156       HAE    1  MOL    H156   156   0.0300000    1.0080
  157       HAE    1  MOL    H157   157   0.0300000    1.0080
  158        CT    1  MOL    C158   158  -0.1200000   12.0115
  159        CT    1  MOL    C159   159  -0.0600000   12.0115
  160       CO4    1  MOL    C160   160   0.5100000   12.0115
  161         O    1  MOL    O161   161  -0.4300000   15.9994
  162       OES    1  MOL    O162   162  -0.3300000   15.9994
  163        CT    1  MOL    C163   163   0.1600000   12.0115
  164        HC    1  MOL    H164   164   0.0600000    1.0080
  165        HC    1  MOL    H165   165   0.0600000    1.0080
  166       HAE    1  MOL    H166   166   0.0600000    1.0080
  167       HAE    1  MOL    H167   167   0.0300000    1.0080
  168       HAE    1  MOL    H168   168   0.0300000    1.0080
  169       HAE    1  MOL    H169   169   0.0300000    1.0080
  170        CT    1  MOL    C170   170  -0.1200000   12.0115
  171        CT    1  MOL    C171   171  -0.0600000   12.0115
  172       CO4    1  MOL    C172   172   0.5100000   12.0115
  173         O    1  MOL    O173   173  -0.4300000   15.9994
  174       OES    1  MOL    O174   174  -0.3300000   15.9994
  175        CT    1  MOL    C175   175   0.1600000   12.0115
  176        HC    1  MOL    H176   176   0.0600000    1.0080
  177        HC    1  MOL    H177   177   0.0600000    1.0080
  178       HAE    1  MOL    H178   178   0.0600000    1.0080
  179       HAE    1  MOL    H179   179   0.0300000    1.0080
  180       HAE    1  MOL    H180   180   0.0300000    1.0080
  181       HAE    1  MOL    H181   181   0.0300000    1.0080
  182        CT    1  MOL    C182   182  -0.1200000   12.0115
  183        CT    1  MOL    C183   183  -0.0600000   12.0115
  184       CO4    1  MOL    C184   184   0.5100000   12.0115
  185         O    1  MOL    O185   185  -0.4300000   15.9994
  186       OES    1  MOL    O186   186  -0.3300000   15.9994
  187        CT    1  MOL    C187   187   0.1600000   12.0115
  188        HC    1  MOL    H188   188   0.0600000    1.0080
  189        HC    1  MOL    H189   189   0.0600000    1.0080
  190       HAE    1  MOL    H190   190   0.0600000    1.0080
  191       HAE    1  MOL    H191   191   0.0300000    1.0080
  192       HAE    1  MOL    H192   192   0.0300000    1.0080
  193       HAE    1  MOL    H193   193   0.0300000    1.0080
  194        CT    1  MOL    C194   194  -0.1200000   12.0115
  195        CT    1  MOL    C195   195  -0.0600000   12.0115
  196       CO4    1  MOL    C196   196   0.5100000   12.0115
  197         O    1  MOL    O197   197  -0.4300000   15.9994
  198       OES    1  MOL    O198   198  -0.3300000   15.9994
  199        CT    1  MOL    C199   199   0.1600000   12.0115
  200        HC    1  MOL    H200   200   0.0600000    1.0080
  201        HC    1  MOL    H201   201   0.0600000    1.0080
  202       HAE    1  MOL    H202   202   0.0600000    1.0080
  203       HAE    1  MOL    H203   203   0.0300000    1.0080
  204       HAE    1  MOL    H204   204   0.0300000    1.0080
  205       HAE    1  MOL    H205   205   0.0300000    1.0080
  206        CT    1  MOL    C206   206  -0.1200000   12.0115
  207        CT    1  MOL    C207   207  -0.0600000   12.0115
  208       CO4    1  MOL    C208   208   0.5100000   12.0115
  209         O    1  MOL    O209   209  -0.4300000   15.9994
  210       OES    1  MOL    O210   210  -0.3300000   15.9994
  211        CT    1  MOL    C211   211   0.1600000   12.0115
  212        HC    1  MOL    H212   212   0.0600000    1.0080
  213        HC    1  MOL    H213   213   0.0600000    1.0080
  214       HAE    1  MOL    H214   214   0.0600000    1.0080
  215       HAE    1  MOL    H215   215   0.0300000    1.0080
  216       HAE    1  MOL    H216   216   0.0300000    1.0080
  217       HAE    1  MOL    H217   217   0.0300000    1.0080
  218        CT    1  MOL    C218   218  -0.1200000   12.0115
  219        CT    1  MOL    C219   219  -0.0600000   12.0115
  220       CO4    1  MOL    C220   220   0.5100000   12.0115
  221         O    1  MOL    O221   221  -0.4300000   15.9994
  222       OES    1  MOL    O222   222  -0.3300000   15.9994
  223        CT    1  MOL    C223   223   0.1600000   12.0115
  224        HC    1  MOL    H224   224   0.0600000    1.0080
  225        HC    1  MOL    H225   225   0.0600000    1.0080
  226       HAE    1  MOL    H226   226   0.0600000    1.0080
  227       HAE    1  MOL    H227   227   0.0300000    1.0080
  228       HAE    1  MOL    H228   228   0.0300000    1.0080
  229       HAE    1  MOL    H229   229   0.0300000    1.0080
  230        CT    1  MOL    C230   230  -0.1200000   12.0115
  231        CT    1  MOL    C231   231  -0.1200000   12.0115
  232       CO4    1  MOL    C232   232   0.5100000   12.0115
  233         O    1  MOL    O233   233  -0.4300000   15.9994
  234       OES    1  MOL    O234   234  -0.3300000   15.9994
  235        CT    1  MOL    C235   235   0.1600000   12.0115
  236        HC    1  MOL    H236   236   0.0600000    1.0080
  237        HC    1  MOL    H237   237   0.0600000    1.0080
  238       HAE    1  MOL    H238   238   0.0600000    1.0080
  239       HAE    1  MOL    H239   239   0.0300000    1.0080
  240       HAE    1  MOL    H240   240   0.0300000    1.0080
  241       HAE    1  MOL    H241   241   0.0300000    1.0080
  242       HAE    1  MOL    H242   242   0.0600000    1.0080

[ bonds ]
      1      2   1      0.1529 224262.4000
      1      7   1      0.1090 284512.0000
      1      8   1      0.1090 284512.0000
      1     13   1      0.1090 284512.0000
      2      3   1      0.1522 265265.6000
      2      9   1      0.1090 284512.0000
      2     14   1      0.1529 224262.4000
      3      4   1      0.1229 476976.0000
      3      5   1      0.1327 179075.2000
      5      6   1      0.1410 267776.0000
      6     10   1      0.1090 284512.0000
      6     11   1      0.1090 284512.0000
      6     12   1      0.1090 284512.0000
     14     15   1      0.1529 224262.4000
     14     20   1      0.1090 284512.0000
     14     21   1      0.1090 284512.0000
     15     16   1      0.1522 265265.6000
     15     22   1      0.1090 284512.0000
     15     26   1      0.1529 224262.4000
     16     17   1      0.1229 476976.0000
     16     18   1      0.1327 179075.2000
     18     19   1      0.1410 267776.0000
     19     23   1      0.1090 284512.0000
     19     24   1      0.1090 284512.0000
     19     25   1      0.1090 284512.0000
     26     27   1      0.1529 224262.4000
     26     32   1      0.1090 284512.0000
     26     33   1      0.1090 284512.0000
     27     28   1      0.1522 265265.6000
     27     34   1      0.1090 284512.0000
     27     38   1      0.1529 224262.4000
     28     29   1      0.1229 476976.0000
     28     30   1      0.1327 179075.2000
     30     31   1      0.1410 267776.0000
     31     35   1      0.1090 284512.0000
     31     36   1      0.1090 284512.0000
     31     37   1      0.1090 284512.0000
     38     39   1      0.1529 224262.4000
     38     44   1      0.1090 284512.0000
     38     45   1      0.1090 284512.0000
     39     40   1      0.1522 265265.6000
     39     46   1      0.1090 284512.0000
     39     50   1      0.1529 224262.4000
     40     41   1      0.1229 476976.0000
     40     42   1      0.1327 179075.2000
     42     43   1      0.1410 267776.0000
     43     47   1      0.1090 284512.0000
     43     48   1      0.1090 284512.0000
     43     49   1      0.1090 284512.0000
     50     51   1      0.1529 224262.4000
     50     56   1      0.1090 284512.0000
     50     57   1      0.1090 284512.0000
     51     52   1      0.1522 265265.6000
     51     58   1      0.1090 284512.0000
     51     62   1      0.1529 224262.4000
     52     53   1      0.1229 476976.0000
     52     54   1      0.1327 179075.2000
     54     55   1      0.1410 267776.0000
     55     59   1      0.1090 284512.0000
     55     60   1      0.1090 284512.0000
     55     61   1      0.1090 284512.0000
     62     63   1      0.1529 224262.4000
     62     68   1      0.1090 284512.0000
     62     69   1      0.1090 284512.0000
     63     64   1      0.1522 265265.6000
     63     70   1      0.1090 284512.0000
     63     74   1      0.1529 224262.4000
     64     65   1      0.1229 476976.0000
     64     66   1      0.1327 179075.2000
     66     67   1      0.1410 267776.0000
     67     71   1      0.1090 284512.0000
     67     72   1      0.1090 284512.0000
     67     73   1      0.1090 284512.0000
     74     75   1      0.1529 224262.4000
     74     80   1      0.1090 284512.0000
     74     81   1      0.1090 284512.0000
     75     76   1      0.1522 265265.6000
     75     82   1      0.1090 284512.0000
     75     86   1      0.1529 224262.4000
     76     77   1      0.1229 476976.0000
     76     78   1      0.1327 179075.2000
     78     79   1      0.1410 267776.0000
     79     83   1      0.1090 284512.0000
     79     84   1      0.1090 284512.0000
     79     85   1      0.1090 284512.0000
     86     87   1      0.1529 224262.4000
     86     92   1      0.1090 284512.0000
     86     93   1      0.1090 284512.0000
     87     88   1      0.1522 265265.6000
     87     94   1      0.1090 284512.0000
     87     98   1      0.1529 224262.4000
     88     89   1      0.1229 476976.0000
     88     90   1      0.1327 179075.2000
     90     91   1      0.1410 267776.0000
     91     95   1      0.1090 284512.0000
     91     96   1      0.1090 284512.0000
     91     97   1      0.1090 284512.0000
     98     99   1      0.1529 224262.4000
     98    104   1      0.1090 284512.0000
     98    105   1      0.1090 284512.0000
     99    100   1      0.1522 265265.6000
     99    106   1      0.1090 284512.0000
     99    110   1      0.1529 224262.4000
    100    101   1      0.1229 476976.0000
    100    102   1      0.1327 179075.2000
    102    103   1      0.1410 267776.0000
    103    107   1      0.1090 284512.0000
    103    108   1      0.1090 284512.0000
    103    109   1      0.1090 284512.0000
    110    111   1      0.1529 224262.4000
    110    116   1      0.1090 284512.0000
    110    117   1      0.1090 284512.0000
    111    112   1      0.1522 265265.6000
    111    118   1      0.1090 284512.0000
    111    122   1      0.1529 224262.4000
    112    113   1      0.1229 476976.0000
    112    114   1      0.1327 179075.2000
    114    115   1      0.1410 267776.0000
    115    119   1      0.1090 284512.0000
    115    120   1      0.1090 284512.0000
    115    121   1      0.1090 284512.0000
    122    123   1      0.1529 224262.4000
    122    128   1      0.1090 284512.0000
    122    129   1      0.1090 284512.0000
    123    124   1      0.1522 265265.6000
    123    130   1      0.1090 284512.0000
    123    134   1      0.1529 224262.4000
    124    125   1      0.1229 476976.0000
    124    126   1      0.1327 179075.2000
    126    127   1      0.1410 267776.0000
    127    131   1      0.1090 284512.0000
    127    132   1      0.1090 284512.0000
    127    133   1      0.1090 284512.0000
    134    135   1      0.1529 224262.4000
    134    140   1      0.1090 284512.0000
    134    141   1      0.1090 284512.0000
    135    136   1      0.1522 265265.6000
    135    142   1      0.1090 284512.0000
    135    146   1      0.1529 224262.4000
    136    137   1      0.1229 476976.0000
    136    138   1      0.1327 179075.2000
    138    139   1      0.1410 267776.0000
    139    143   1      0.1090 284512.0000
    139    144   1      0.1090 284512.0000
    139    145   1      0.1090 284512.0000
    146    147   1      0.1529 224262.4000
    146    152   1      0.1090 284512.0000
    146    153   1      0.1090 284512.0000
    147    148   1      0.1522 265265.6000
    147    154   1      0.1090 284512.0000
    147    158   1      0.1529 224262.4000
    148    149   1      0.1229 476976.0000
    148    150   1      0.1327 179075.2000
    150    151   1      0.1410 267776.0000
    151    155   1      0.1090 284512.0000
    151    156   1      0.1090 284512.0000
    151    157   1      0.1090 284512.0000
    158    159   1      0.1529 224262.4000
    158    164   1      0.1090 284512.0000
    158    165   1      0.1090 284512.0000
    159    160   1      0.1522 265265.6000
    159    166   1      0.1090 284512.0000
    159    170   1      0.1529 224262.4000
    160    161   1      0.1229 476976.0000
    160    162   1      0.1327 179075.2000
    162    163   1      0.1410 267776.0000
    163    167   1      0.1090 284512.0000
    163    168   1      0.1090 284512.0000
    163    169   1      0.1090 284512.0000
    170    171   1      0.1529 224262.4000
    170    176   1      0.1090 284512.0000
    170    177   1      0.1090 284512.0000
    171    172   1      0.1522 265265.6000
    171    178   1      0.1090 284512.0000
    171    182   1      0.1529 224262.4000
    172    173   1      0.1229 476976.0000
    172    174   1      0.1327 179075.2000
    174    175   1      0.1410 267776.0000
    175    179   1      0.1090 284512.0000
    175    180   1      0.1090 284512.0000
    175    181   1      0.1090 284512.0000
    182    183   1      0.1529 224262.4000
    182    188   1      0.1090 284512.0000
    182    189   1      0.1090 284512.0000
    183    184   1      0.1522 265265.6000
    183    190   1      0.1090 284512.0000
    183    194   1      0.1529 224262.4000
    184    185   1      0.1229 476976.0000
    184    186   1      0.1327 179075.2000
    186    187   1      0.1410 267776.0000
    187    191   1      0.1090 284512.0000
    187    192   1      0.1090 284512.0000
    187    193   1      0.1090 284512.0000
    194    195   1      0.1529 224262.4000
    194    200   1      0.1090 284512.0000
    194    201   1      0.1090 284512.0000
    195    196   1      0.1522 265265.6000
    195    202   1      0.1090 284512.0000
    195    206   1      0.1529 224262.4000
    196    197   1      0.1229 476976.0000
    196    198   1      0.1327 179075.2000
    198    199   1      0.1410 267776.0000
    199    203   1      0.1090 284512.0000
    199    204   1      0.1090 284512.0000
    199    205   1      0.1090 284512.0000
    206    207   1      0.1529 224262.4000
    206    212   1      0.1090 284512.0000
    206    213   1      0.1090 284512.0000
    207    208   1      0.1522 265265.6000
    207    214   1      0.1090 284512.0000
    207    218   1      0.1529 224262.4000
    208    209   1      0.1229 476976.0000
    208    210   1      0.1327 179075.2000
    210    211   1      0.1410 267776.0000
    211    215   1      0.1090 284512.0000
    211    216   1      0.1090 284512.0000
    211    217   1      0.1090 284512.0000
    218    219   1      0.1529 224262.4000
    218    224   1      0.1090 284512.0000
    218    225   1      0.1090 284512.0000
    219    220   1      0.1522 265265.6000
    219    226   1      0.1090 284512.0000
    219    230   1      0.1529 224262.4000
    220    221   1      0.1229 476976.0000
    220    222   1      0.1327 179075.2000
    222    223   1      0.1410 267776.0000
    223    227   1      0.1090 284512.0000
    223    228   1      0.1090 284512.0000
    223    229   1      0.1090 284512.0000
    230    231   1      0.1529 224262.4000
    230    236   1      0.1090 284512.0000
    230    237   1      0.1090 284512.0000
    231    232   1      0.1522 265265.6000
    231    238   1      0.1090 284512.0000
    231    242   1      0.1090 284512.0000
    232    233   1      0.1229 476976.0000
    232    234   1      0.1327 179075.2000
    234    235   1      0.1410 267776.0000
    235    239   1      0.1090 284512.0000
    235    240   1      0.1090 284512.0000
    235    241   1      0.1090 284512.0000

[ pairs ]
; ai   aj   funct   fudge_QQ  charge_i   charge_j   c6    c12
      7      3   2   0.50000     0.0600000    0.5100000   3.869820e-04  3.188634e-07
      7      9   2   0.50000     0.0600000    0.0600000   3.930919e-05  8.704828e-09
      7     14   2   0.50000     0.0600000   -0.1200000   2.494471e-04  1.671101e-07
      8      3   2   0.50000     0.0600000    0.5100000   3.869820e-04  3.188634e-07
      8      9   2   0.50000     0.0600000    0.0600000   3.930919e-05  8.704828e-09
      8     14   2   0.50000     0.0600000   -0.1200000   2.494471e-04  1.671101e-07
     13      3   2   0.50000     0.0600000    0.5100000   3.869820e-04  3.188634e-07
     13      9   2   0.50000     0.0600000    0.0600000   3.930919e-05  8.704828e-09
     13     14   2   0.50000     0.0600000   -0.1200000   2.494471e-04  1.671101e-07
      1      4   2   0.50000    -0.1800000   -0.4300000   1.095425e-03  1.218041e-06
      1      5   2   0.50000    -0.1800000   -0.3300000   1.026091e-03  1.187829e-06
      9      4   2   0.50000     0.0600000   -0.4300000   1.726228e-04  6.344822e-08
      9      5   2   0.50000     0.0600000   -0.3300000   1.616969e-04  6.187447e-08
     14      4   2   0.50000    -0.1200000   -0.4300000   1.095425e-03  1.218041e-06
     14      5   2   0.50000    -0.1200000   -0.3300000   1.026091e-03  1.187829e-06
      1     15   2   0.50000    -0.1800000   -0.0600000   1.015252e-03  1.866303e-06
      1     20   2   0.50000    -0.1800000    0.0600000   2.494471e-04  1.671101e-07
      1     21   2   0.50000    -0.1800000    0.0600000   2.494471e-04  1.671101e-07
      3     15   2   0.50000     0.5100000   -0.0600000   1.575021e-03  3.561100e-06
      3     20   2   0.50000     0.5100000    0.0600000   3.869820e-04  3.188634e-07
      3     21   2   0.50000     0.5100000    0.0600000   3.869820e-04  3.188634e-07
      9     15   2   0.50000     0.0600000   -0.0600000   1.599888e-04  9.721644e-08
      9     20   2   0.50000     0.0600000    0.0600000   3.930919e-05  8.704828e-09
      9     21   2   0.50000     0.0600000    0.0600000   3.930919e-05  8.704828e-09
      2      6   2   0.50000    -0.0600000    0.1600000   1.015252e-03  1.866303e-06
      4      6   2   0.50000    -0.4300000    0.1600000   1.095425e-03  1.218041e-06
      3     10   2   0.50000     0.5100000    0.0300000   2.482000e-04  1.854991e-07
      3     11   2   0.50000     0.5100000    0.0300000   2.482000e-04  1.854991e-07
      3     12   2   0.50000     0.5100000    0.0300000   2.482000e-04  1.854991e-07
      2     16   2   0.50000    -0.0600000    0.5100000   1.575021e-03  3.561100e-06
      2     22   2   0.50000    -0.0600000    0.0600000   1.599888e-04  9.721644e-08
      2     26   2   0.50000    -0.0600000   -0.1200000   1.015252e-03  1.866303e-06
     20     16   2   0.50000     0.0600000    0.5100000   3.869820e-04  3.188634e-07
     20     22   2   0.50000     0.0600000    0.0600000   3.930919e-05  8.704828e-09
     20     26   2   0.50000     0.0600000   -0.1200000   2.494471e-04  1.671101e-07
     21     16   2   0.50000     0.0600000    0.5100000   3.869820e-04  3.188634e-07
     21     22   2   0.50000     0.0600000    0.0600000   3.930919e-05  8.704828e-09
     21     26   2   0.50000     0.0600000   -0.1200000   2.494471e-04  1.671101e-07
     14     17   2   0.50000    -0.1200000   -0.4300000   1.095425e-03  1.218041e-06
     14     18   2   0.50000    -0.1200000   -0.3300000   1.026091e-03  1.187829e-06
     22     17   2   0.50000     0.0600000   -0.4300000   1.726228e-04  6.344822e-08
     22     18   2   0.50000     0.0600000   -0.3300000   1.616969e-04  6.187447e-08
     26     17   2   0.50000    -0.1200000   -0.4300000   1.095425e-03  1.218041e-06
     26     18   2   0.50000    -0.1200000   -0.3300000   1.026091e-03  1.187829e-06
     14     27   2   0.50000    -0.1200000   -0.0600000   1.015252e-03  1.866303e-06
     14     32   2   0.50000    -0.1200000    0.0600000   2.494471e-04  1.671101e-07
     14     33   2   0.50000    -0.1200000    0.0600000   2.494471e-04  1.671101e-07
     16     27   2   0.50000     0.5100000   -0.0600000   1.575021e-03  3.561100e-06
     16     32   2   0.50000     0.5100000    0.0600000   3.869820e-04  3.188634e-07
     16     33   2   0.50000     0.5100000    0.0600000   3.869820e-04  3.188634e-07
     22     27   2   0.50000     0.0600000   -0.0600000   1.599888e-04  9.721644e-08
     22     32   2   0.50000     0.0600000    0.0600000   3.930919e-05  8.704828e-09
     22     33   2   0.50000     0.0600000    0.0600000   3.930919e-05  8.704828e-09
     15     19   2   0.50000    -0.0600000    0.1600000   1.015252e-03  1.866303e-06
     17     19   2   0.50000    -0.4300000    0.1600000   1.095425e-03  1.218041e-06
     16     23   2   0.50000     0.5100000    0.0300000   2.482000e-04  1.854991e-07
     16     24   2   0.50000     0.5100000    0.0300000   2.482000e-04  1.854991e-07
     16     25   2   0.50000     0.5100000    0.0300000   2.482000e-04  1.854991e-07
     15     28   2   0.50000    -0.0600000    0.5100000   1.575021e-03  3.561100e-06
     15     34   2   0.50000    -0.0600000    0.0600000   1.599888e-04  9.721644e-08
     15     38   2   0.50000    -0.0600000   -0.1200000   1.015252e-03  1.866303e-06
     32     28   2   0.50000     0.0600000    0.5100000   3.869820e-04  3.188634e-07
     32     34   2   0.50000     0.0600000    0.0600000   3.930919e-05  8.704828e-09
     32     38   2   0.50000     0.0600000   -0.1200000   2.494471e-04  1.671101e-07
     33     28   2   0.50000     0.0600000    0.5100000   3.869820e-04  3.188634e-07
     33     34   2   0.50000     0.0600000    0.0600000   3.930919e-05  8.704828e-09
     33     38   2   0.50000     0.0600000   -0.1200000   2.494471e-04  1.671101e-07
     26     29   2   0.50000    -0.1200000   -0.4300000   1.095425e-03  1.218041e-06
     26     30   2   0.50000    -0.1200000   -0.3300000   1.026091e-03  1.187829e-06
     34     29   2   0.50000     0.0600000   -0.4300000   1.726228e-04  6.344822e-08
     34     30   2   0.50000     0.0600000   -0.3300000   1.616969e-04  6.187447e-08
     38     29   2   0.50000    -0.1200000   -0.4300000   1.095425e-03  1.218041e-06
     38     30   2   0.50000    -0.1200000   -0.3300000   1.026091e-03  1.187829e-06
     26     39   2   0.50000    -0.1200000   -0.0600000   1.015252e-03  1.866303e-06
     26     44   2   0.50000    -0.1200000    0.0600000   2.494471e-04  1.671101e-07
     26     45   2   0.50000    -0.1200000    0.0600000   2.494471e-04  1.671101e-07
     28     39   2   0.50000     0.5100000   -0.0600000   1.575021e-03  3.561100e-06
     28     44   2   0.50000     0.5100000    0.0600000   3.869820e-04  3.188634e-07
     28     45   2   0.50000     0.5100000    0.0600000   3.869820e-04  3.188634e-07
     34     39   2   0.50000     0.0600000   -0.0600000   1.599888e-04  9.721644e-08
     34     44   2   0.50000     0.0600000    0.0600000   3.930919e-05  8.704828e-09
     34     45   2   0.50000     0.0600000    0.0600000   3.930919e-05  8.704828e-09
     27     31   2   0.50000    -0.0600000    0.1600000   1.015252e-03  1.866303e-06
     29     31   2   0.50000    -0.4300000    0.1600000   1.095425e-03  1.218041e-06
     28     35   2   0.50000     0.5100000    0.0300000   2.482000e-04  1.854991e-07
     28     36   2   0.50000     0.5100000    0.0300000   2.482000e-04  1.854991e-07
     28     37   2   0.50000     0.5100000    0.0300000   2.482000e-04  1.854991e-07
     27     40   2   0.50000    -0.0600000    0.5100000   1.575021e-03  3.561100e-06
     27     46   2   0.50000    -0.0600000    0.0600000   1.599888e-04  9.721644e-08
     27     50   2   0.50000    -0.0600000   -0.1200000   1.015252e-03  1.866303e-06
     44     40   2   0.50000     0.0600000    0.5100000   3.869820e-04  3.188634e-07
     44     46   2   0.50000     0.0600000    0.0600000   3.930919e-05  8.704828e-09
     44     50   2   0.50000     0.0600000   -0.1200000   2.494471e-04  1.671101e-07
     45     40   2   0.50000     0.0600000    0.5100000   3.869820e-04  3.188634e-07
     45     46   2   0.50000     0.0600000    0.0600000   3.930919e-05  8.704828e-09
     45     50   2   0.50000     0.0600000   -0.1200000   2.494471e-04  1.671101e-07
     38     41   2   0.50000    -0.1200000   -0.4300000   1.095425e-03  1.218041e-06
     38     42   2   0.50000    -0.1200000   -0.3300000   1.026091e-03  1.187829e-06
     46     41   2   0.50000     0.0600000   -0.4300000   1.726228e-04  6.344822e-08
     46     42   2   0.50000     0.0600000   -0.3300000   1.616969e-04  6.187447e-08
     50     41   2   0.50000    -0.1200000   -0.4300000   1.095425e-03  1.218041e-06
     50     42   2   0.50000    -0.1200000   -0.3300000   1.026091e-03  1.187829e-06
     38     51   2   0.50000    -0.1200000   -0.0600000   1.015252e-03  1.866303e-06
     38     56   2   0.50000    -0.1200000    0.0600000   2.494471e-04  1.671101e-07
     38     57   2   0.50000    -0.1200000    0.0600000   2.494471e-04  1.671101e-07
     40     51   2   0.50000     0.5100000   -0.0600000   1.575021e-03  3.561100e-06
     40     56   2   0.50000     0.5100000    0.0600000   3.869820e-04  3.188634e-07
     40     57   2   0.50000     0.5100000    0.0600000   3.869820e-04  3.188634e-07
     46     51   2   0.50000     0.0600000   -0.0600000   1.599888e-04  9.721644e-08
     46     56   2   0.50000     0.0600000    0.0600000   3.930919e-05  8.704828e-09
     46     57   2   0.50000     0.0600000    0.0600000   3.930919e-05  8.704828e-09
     39     43   2   0.50000    -0.0600000    0.1600000   1.015252e-03  1.866303e-06
     41     43   2   0.50000    -0.4300000    0.1600000   1.095425e-03  1.218041e-06
     40     47   2   0.50000     0.5100000    0.0300000   2.482000e-04  1.854991e-07
     40     48   2   0.50000     0.5100000    0.0300000   2.482000e-04  1.854991e-07
     40     49   2   0.50000     0.5100000    0.0300000   2.482000e-04  1.854991e-07
     39     52   2   0.50000    -0.0600000    0.5100000   1.575021e-03  3.561100e-06
     39     58   2   0.50000    -0.0600000    0.0600000   1.599888e-04  9.721644e-08
     39     62   2   0.50000    -0.0600000   -0.1200000   1.015252e-03  1.866303e-06
     56     52   2   0.50000     0.0600000    0.5100000   3.869820e-04  3.188634e-07
     56     58   2   0.50000     0.0600000    0.0600000   3.930919e-05  8.704828e-09
     56     62   2   0.50000     0.0600000   -0.1200000   2.494471e-04  1.671101e-07
     57     52   2   0.50000     0.0600000    0.5100000   3.869820e-04  3.188634e-07
     57     58   2   0.50000     0.0600000    0.0600000   3.930919e-05  8.704828e-09
     57     62   2   0.50000     0.0600000   -0.1200000   2.494471e-04  1.671101e-07
     50     53   2   0.50000    -0.1200000   -0.4300000   1.095425e-03  1.218041e-06
     50     54   2   0.50000    -0.1200000   -0.3300000   1.026091e-03  1.187829e-06
     58     53   2   0.50000     0.0600000   -0.4300000   1.726228e-04  6.344822e-08
     58     54   2   0.50000     0.0600000   -0.3300000   1.616969e-04  6.187447e-08
     62     53   2   0.50000    -0.1200000   -0.4300000   1.095425e-03  1.218041e-06
     62     54   2   0.50000    -0.1200000   -0.3300000   1.026091e-03  1.187829e-06
     50     63   2   0.50000    -0.1200000   -0.0600000   1.015252e-03  1.866303e-06
     50     68   2   0.50000    -0.1200000    0.0600000   2.494471e-04  1.671101e-07
     50     69   2   0.50000    -0.1200000    0.0600000   2.494471e-04  1.671101e-07
     52     63   2   0.50000     0.5100000   -0.0600000   1.575021e-03  3.561100e-06
     52     68   2   0.50000     0.5100000    0.0600000   3.869820e-04  3.188634e-07
     52     69   2   0.50000     0.5100000    0.0600000   3.869820e-04  3.188634e-07
     58     63   2   0.50000     0.0600000   -0.0600000   1.599888e-04  9.721644e-08
     58     68   2   0.50000     0.0600000    0.0600000   3.930919e-05  8.704828e-09
     58     69   2   0.50000     0.0600000    0.0600000   3.930919e-05  8.704828e-09
     51     55   2   0.50000    -0.0600000    0.1600000   1.015252e-03  1.866303e-06
     53     55   2   0.50000    -0.4300000    0.1600000   1.095425e-03  1.218041e-06
     52     59   2   0.50000     0.5100000    0.0300000   2.482000e-04  1.854991e-07
     52     60   2   0.50000     0.5100000    0.0300000   2.482000e-04  1.854991e-07
     52     61   2   0.50000     0.5100000    0.0300000   2.482000e-04  1.854991e-07
     51     64   2   0.50000    -0.0600000    0.5100000   1.575021e-03  3.561100e-06
     51     70   2   0.50000    -0.0600000    0.0600000   1.599888e-04  9.721644e-08
     51     74   2   0.50000    -0.0600000   -0.1200000   1.015252e-03  1.866303e-06
     68     64   2   0.50000     0.0600000    0.5100000   3.869820e-04  3.188634e-07
     68     70   2   0.50000     0.0600000    0.0600000   3.930919e-05  8.704828e-09
     68     74   2   0.50000     0.0600000   -0.1200000   2.494471e-04  1.671101e-07
     69     64   2   0.50000     0.0600000    0.5100000   3.869820e-04  3.188634e-07
     69     70   2   0.50000     0.0600000    0.0600000   3.930919e-05  8.704828e-09
     69     74   2   0.50000     0.0600000   -0.1200000   2.494471e-04  1.671101e-07
     62     65   2   0.50000    -0.1200000   -0.4300000   1.095425e-03  1.218041e-06
     62     66   2   0.50000    -0.1200000   -0.3300000   1.026091e-03  1.187829e-06
     70     65   2   0.50000     0.0600000   -0.4300000   1.726228e-04  6.344822e-08
     70     66   2   0.50000     0.0600000   -0.3300000   1.616969e-04  6.187447e-08
     74     65   2   0.50000    -0.1200000   -0.4300000   1.095425e-03  1.218041e-06
     74     66   2   0.50000    -0.1200000   -0.3300000   1.026091e-03  1.187829e-06
     62     75   2   0.50000    -0.1200000   -0.0600000   1.015252e-03  1.866303e-06
     62     80   2   0.50000    -0.1200000    0.0600000   2.494471e-04  1.671101e-07
     62     81   2   0.50000    -0.1200000    0.0600000   2.494471e-04  1.671101e-07
     64     75   2   0.50000     0.5100000   -0.0600000   1.575021e-03  3.561100e-06
     64     80   2   0.50000     0.5100000    0.0600000   3.869820e-04  3.188634e-07
     64     81   2   0.50000     0.5100000    0.0600000   3.869820e-04  3.188634e-07
     70     75   2   0.50000     0.0600000   -0.0600000   1.599888e-04  9.721644e-08
     70     80   2   0.50000     0.0600000    0.0600000   3.930919e-05  8.704828e-09
     70     81   2   0.50000     0.0600000    0.0600000   3.930919e-05  8.704828e-09
     63     67   2   0.50000    -0.0600000    0.1600000   1.015252e-03  1.866303e-06
     65     67   2   0.50000    -0.4300000    0.1600000   1.095425e-03  1.218041e-06
     64     71   2   0.50000     0.5100000    0.0300000   2.482000e-04  1.854991e-07
     64     72   2   0.50000     0.5100000    0.0300000   2.482000e-04  1.854991e-07
     64     73   2   0.50000     0.5100000    0.0300000   2.482000e-04  1.854991e-07
     63     76   2   0.50000    -0.0600000    0.5100000   1.575021e-03  3.561100e-06
     63     82   2   0.50000    -0.0600000    0.0600000   1.599888e-04  9.721644e-08
     63     86   2   0.50000    -0.0600000   -0.1200000   1.015252e-03  1.866303e-06
     80     76   2   0.50000     0.0600000    0.5100000   3.869820e-04  3.188634e-07
     80     82   2   0.50000     0.0600000    0.0600000   3.930919e-05  8.704828e-09
     80     86   2   0.50000     0.0600000   -0.1200000   2.494471e-04  1.671101e-07
     81     76   2   0.50000     0.0600000    0.5100000   3.869820e-04  3.188634e-07
     81     82   2   0.50000     0.0600000    0.0600000   3.930919e-05  8.704828e-09
     81     86   2   0.50000     0.0600000   -0.1200000   2.494471e-04  1.671101e-07
     74     77   2   0.50000    -0.1200000   -0.4300000   1.095425e-03  1.218041e-06
     74     78   2   0.50000    -0.1200000   -0.3300000   1.026091e-03  1.187829e-06
     82     77   2   0.50000     0.0600000   -0.4300000   1.726228e-04  6.344822e-08
     82     78   2   0.50000     0.0600000   -0.3300000   1.616969e-04  6.187447e-08
     86     77   2   0.50000    -0.1200000   -0.4300000   1.095425e-03  1.218041e-06
     86     78   2   0.50000    -0.1200000   -0.3300000   1.026091e-03  1.187829e-06
     74     87   2   0.50000    -0.1200000   -0.0600000   1.015252e-03  1.866303e-06
     74     92   2   0.50000    -0.1200000    0.0600000   2.494471e-04  1.671101e-07
     74     93   2   0.50000    -0.1200000    0.0600000   2.494471e-04  1.671101e-07
     76     87   2   0.50000     0.5100000   -0.0600000   1.575021e-03  3.561100e-06
     76     92   2   0.50000     0.5100000    0.0600000   3.869820e-04  3.188634e-07
     76     93   2   0.50000     0.5100000    0.0600000   3.869820e-04  3.188634e-07
     82     87   2   0.50000     0.0600000   -0.0600000   1.599888e-04  9.721644e-08
     82     92   2   0.50000     0.0600000    0.0600000   3.930919e-05  8.704828e-09
     82     93   2   0.50000     0.0600000    0.0600000   3.930919e-05  8.704828e-09
     75     79   2   0.50000    -0.0600000    0.1600000   1.015252e-03  1.866303e-06
     77     79   2   0.50000    -0.4300000    0.1600000   1.095425e-03  1.218041e-06
     76     83   2   0.50000     0.5100000    0.0300000   2.482000e-04  1.854991e-07
     76     84   2   0.50000     0.5100000    0.0300000   2.482000e-04  1.854991e-07
     76     85   2   0.50000     0.5100000    0.0300000   2.482000e-04  1.854991e-07
     75     88   2   0.50000    -0.0600000    0.5100000   1.575021e-03  3.561100e-06
     75     94   2   0.50000    -0.0600000    0.0600000   1.599888e-04  9.721644e-08
     75     98   2   0.50000    -0.0600000   -0.1200000   1.015252e-03  1.866303e-06
     92     88   2   0.50000     0.0600000    0.5100000   3.869820e-04  3.188634e-07
     92     94   2   0.50000     0.0600000    0.0600000   3.930919e-05  8.704828e-09
     92     98   2   0.50000     0.0600000   -0.1200000   2.494471e-04  1.671101e-07
     93     88   2   0.50000     0.0600000    0.5100000   3.869820e-04  3.188634e-07
     93     94   2   0.50000     0.0600000    0.0600000   3.930919e-05  8.704828e-09
     93     98   2   0.50000     0.0600000   -0.1200000   2.494471e-04  1.671101e-07
     86     89   2   0.50000    -0.1200000   -0.4300000   1.095425e-03  1.218041e-06
     86     90   2   0.50000    -0.1200000   -0.3300000   1.026091e-03  1.187829e-06
     94     89   2   0.50000     0.0600000   -0.4300000   1.726228e-04  6.344822e-08
     94     90   2   0.50000     0.0600000   -0.3300000   1.616969e-04  6.187447e-08
     98     89   2   0.50000    -0.1200000   -0.4300000   1.095425e-03  1.218041e-06
     98     90   2   0.50000    -0.1200000   -0.3300000   1.026091e-03  1.187829e-06
     86     99   2   0.50000    -0.1200000   -0.0600000   1.015252e-03  1.866303e-06
     86    104   2   0.50000    -0.1200000    0.0600000   2.494471e-04  1.671101e-07
     86    105   2   0.50000    -0.1200000    0.0600000   2.494471e-04  1.671101e-07
     88     99   2   0.50000     0.5100000   -0.0600000   1.575021e-03  3.561100e-06
     88    104   2   0.50000     0.5100000    0.0600000   3.869820e-04  3.188634e-07
     88    105   2   0.50000     0.5100000    0.0600000   3.869820e-04  3.188634e-07
     94     99   2   0.50000     0.0600000   -0.0600000   1.599888e-04  9.721644e-08
     94    104   2   0.50000     0.0600000    0.0600000   3.930919e-05  8.704828e-09
     94    105   2   0.50000     0.0600000    0.0600000   3.930919e-05  8.704828e-09
     87     91   2   0.50000    -0.0600000    0.1600000   1.015252e-03  1.866303e-06
     89     91   2   0.50000    -0.4300000    0.1600000   1.095425e-03  1.218041e-06
     88     95   2   0.50000     0.5100000    0.0300000   2.482000e-04  1.854991e-07
     88     96   2   0.50000     0.5100000    0.0300000   2.482000e-04  1.854991e-07
     88     97   2   0.50000     0.5100000    0.0300000   2.482000e-04  1.854991e-07
     87    100   2   0.50000    -0.0600000    0.5100000   1.575021e-03  3.561100e-06
     87    106   2   0.50000    -0.0600000    0.0600000   1.599888e-04  9.721644e-08
     87    110   2   0.50000    -0.0600000   -0.1200000   1.015252e-03  1.866303e-06
    104    100   2   0.50000     0.0600000    0.5100000   3.869820e-04  3.188634e-07
    104    106   2   0.50000     0.0600000    0.0600000   3.930919e-05  8.704828e-09
    104    110   2   0.50000     0.0600000   -0.1200000   2.494471e-04  1.671101e-07
    105    100   2   0.50000     0.0600000    0.5100000   3.869820e-04  3.188634e-07
    105    106   2   0.50000     0.0600000    0.0600000   3.930919e-05  8.704828e-09
    105    110   2   0.50000     0.0600000   -0.1200000   2.494471e-04  1.671101e-07
     98    101   2   0.50000    -0.1200000   -0.4300000   1.095425e-03  1.218041e-06
     98    102   2   0.50000    -0.1200000   -0.3300000   1.026091e-03  1.187829e-06
    106    101   2   0.50000     0.0600000   -0.4300000   1.726228e-04  6.344822e-08
    106    102   2   0.50000     0.0600000   -0.3300000   1.616969e-04  6.187447e-08
    110    101   2   0.50000    -0.1200000   -0.4300000   1.095425e-03  1.218041e-06
    110    102   2   0.50000    -0.1200000   -0.3300000   1.026091e-03  1.187829e-06
     98    111   2   0.50000    -0.1200000   -0.0600000   1.015252e-03  1.866303e-06
     98    116   2   0.50000    -0.1200000    0.0600000   2.494471e-04  1.671101e-07
     98    117   2   0.50000    -0.1200000    0.0600000   2.494471e-04  1.671101e-07
    100    111   2   0.50000     0.5100000   -0.0600000   1.575021e-03  3.561100e-06
    100    116   2   0.50000     0.5100000    0.0600000   3.869820e-04  3.188634e-07
    100    117   2   0.50000     0.5100000    0.0600000   3.869820e-04  3.188634e-07
    106    111   2   0.50000     0.0600000   -0.0600000   1.599888e-04  9.721644e-08
    106    116   2   0.50000     0.0600000    0.0600000   3.930919e-05  8.704828e-09
    106    117   2   0.50000     0.0600000    0.0600000   3.930919e-05  8.704828e-09
     99    103   2   0.50000    -0.0600000    0.1600000   1.015252e-03  1.866303e-06
    101    103   2   0.50000    -0.4300000    0.1600000   1.095425e-03  1.218041e-06
    100    107   2   0.50000     0.5100000    0.0300000   2.482000e-04  1.854991e-07
    100    108   2   0.50000     0.5100000    0.0300000   2.482000e-04  1.854991e-07
    100    109   2   0.50000     0.5100000    0.0300000   2.482000e-04  1.854991e-07
     99    112   2   0.50000    -0.0600000    0.5100000   1.575021e-03  3.561100e-06
     99    118   2   0.50000    -0.0600000    0.0600000   1.599888e-04  9.721644e-08
     99    122   2   0.50000    -0.0600000   -0.1200000   1.015252e-03  1.866303e-06
    116    112   2   0.50000     0.0600000    0.5100000   3.869820e-04  3.188634e-07
    116    118   2   0.50000     0.0600000    0.0600000   3.930919e-05  8.704828e-09
    116    122   2   0.50000     0.0600000   -0.1200000   2.494471e-04  1.671101e-07
    117    112   2   0.50000     0.0600000    0.5100000   3.869820e-04  3.188634e-07
    117    118   2   0.50000     0.0600000    0.0600000   3.930919e-05  8.704828e-09
    117    122   2   0.50000     0.0600000   -0.1200000   2.494471e-04  1.671101e-07
    110    113   2   0.50000    -0.1200000   -0.4300000   1.095425e-03  1.218041e-06
    110    114   2   0.50000    -0.1200000   -0.3300000   1.026091e-03  1.187829e-06
    118    113   2   0.50000     0.0600000   -0.4300000   1.726228e-04  6.344822e-08
    118    114   2   0.50000     0.0600000   -0.3300000   1.616969e-04  6.187447e-08
    122    113   2   0.50000    -0.1200000   -0.4300000   1.095425e-03  1.218041e-06
    122    114   2   0.50000    -0.1200000   -0.3300000   1.026091e-03  1.187829e-06
    110    123   2   0.50000    -0.1200000   -0.0600000   1.015252e-03  1.866303e-06
    110    128   2   0.50000    -0.1200000    0.0600000   2.494471e-04  1.671101e-07
    110    129   2   0.50000    -0.1200000    0.0600000   2.494471e-04  1.671101e-07
    112    123   2   0.50000     0.5100000   -0.0600000   1.575021e-03  3.561100e-06
    112    128   2   0.50000     0.5100000    0.0600000   3.869820e-04  3.188634e-07
    112    129   2   0.50000     0.5100000    0.0600000   3.869820e-04  3.188634e-07
    118    123   2   0.50000     0.0600000   -0.0600000   1.599888e-04  9.721644e-08
    118    128   2   0.50000     0.0600000    0.0600000   3.930919e-05  8.704828e-09
    118    129   2   0.50000     0.0600000    0.0600000   3.930919e-05  8.704828e-09
    111    115   2   0.50000    -0.0600000    0.1600000   1.015252e-03  1.866303e-06
    113    115   2   0.50000    -0.4300000    0.1600000   1.095425e-03  1.218041e-06
    112    119   2   0.50000     0.5100000    0.0300000   2.482000e-04  1.854991e-07
    112    120   2   0.50000     0.5100000    0.0300000   2.482000e-04  1.854991e-07
    112    121   2   0.50000     0.5100000    0.0300000   2.482000e-04  1.854991e-07
    111    124   2   0.50000    -0.0600000    0.5100000   1.575021e-03  3.561100e-06
    111    130   2   0.50000    -0.0600000    0.0600000   1.599888e-04  9.721644e-08
    111    134   2   0.50000    -0.0600000   -0.1200000   1.015252e-03  1.866303e-06
    128    124   2   0.50000     0.0600000    0.5100000   3.869820e-04  3.188634e-07
    128    130   2   0.50000     0.0600000    0.0600000   3.930919e-05  8.704828e-09
    128    134   2   0.50000     0.0600000   -0.1200000   2.494471e-04  1.671101e-07
    129    124   2   0.50000     0.0600000    0.5100000   3.869820e-04  3.188634e-07
    129    130   2   0.50000     0.0600000    0.0600000   3.930919e-05  8.704828e-09
    129    134   2   0.50000     0.0600000   -0.1200000   2.494471e-04  1.671101e-07
    122    125   2   0.50000    -0.1200000   -0.4300000   1.095425e-03  1.218041e-06
    122    126   2   0.50000    -0.1200000   -0.3300000   1.026091e-03  1.187829e-06
    130    125   2   0.50000     0.0600000   -0.4300000   1.726228e-04  6.344822e-08
    130    126   2   0.50000     0.0600000   -0.3300000   1.616969e-04  6.187447e-08
    134    125   2   0.50000    -0.1200000   -0.4300000   1.095425e-03  1.218041e-06
    134    126   2   0.50000    -0.1200000   -0.3300000   1.026091e-03  1.187829e-06
    122    135   2   0.50000    -0.1200000   -0.0600000   1.015252e-03  1.866303e-06
    122    140   2   0.50000    -0.1200000    0.0600000   2.494471e-04  1.671101e-07
    122    141   2   0.50000    -0.1200000    0.0600000   2.494471e-04  1.671101e-07
    124    135   2   0.50000     0.5100000   -0.0600000   1.575021e-03  3.561100e-06
    124    140   2   0.50000     0.5100000    0.0600000   3.869820e-04  3.188634e-07
    124    141   2   0.50000     0.5100000    0.0600000   3.869820e-04  3.188634e-07
    130    135   2   0.50000     0.0600000   -0.0600000   1.599888e-04  9.721644e-08
    130    140   2   0.50000     0.0600000    0.0600000   3.930919e-05  8.704828e-09
    130    141   2   0.50000     0.0600000    0.0600000   3.930919e-05  8.704828e-09
    123    127   2   0.50000    -0.0600000    0.1600000   1.015252e-03  1.866303e-06
    125    127   2   0.50000    -0.4300000    0.1600000   1.095425e-03  1.218041e-06
    124    131   2   0.50000     0.5100000    0.0300000   2.482000e-04  1.854991e-07
    124    132   2   0.50000     0.5100000    0.0300000   2.482000e-04  1.854991e-07
    124    133   2   0.50000     0.5100000    0.0300000   2.482000e-04  1.854991e-07
    123    136   2   0.50000    -0.0600000    0.5100000   1.575021e-03  3.561100e-06
    123    142   2   0.50000    -0.0600000    0.0600000   1.599888e-04  9.721644e-08
    123    146   2   0.50000    -0.0600000   -0.1200000   1.015252e-03  1.866303e-06
    140    136   2   0.50000     0.0600000    0.5100000   3.869820e-04  3.188634e-07
    140    142   2   0.50000     0.0600000    0.0600000   3.930919e-05  8.704828e-09
    140    146   2   0.50000     0.0600000   -0.1200000   2.494471e-04  1.671101e-07
    141    136   2   0.50000     0.0600000    0.5100000   3.869820e-04  3.188634e-07
    141    142   2   0.50000     0.0600000    0.0600000   3.930919e-05  8.704828e-09
    141    146   2   0.50000     0.0600000   -0.1200000   2.494471e-04  1.671101e-07
    134    137   2   0.50000    -0.1200000   -0.4300000   1.095425e-03  1.218041e-06
    134    138   2   0.50000    -0.1200000   -0.3300000   1.026091e-03  1.187829e-06
    142    137   2   0.50000     0.0600000   -0.4300000   1.726228e-04  6.344822e-08
    142    138   2   0.50000     0.0600000   -0.3300000   1.616969e-04  6.187447e-08
    146    137   2   0.50000    -0.1200000   -0.4300000   1.095425e-03  1.218041e-06
    146    138   2   0.50000    -0.1200000   -0.3300000   1.026091e-03  1.187829e-06
    134    147   2   0.50000    -0.1200000   -0.0600000   1.015252e-03  1.866303e-06
    134    152   2   0.50000    -0.1200000    0.0600000   2.494471e-04  1.671101e-07
    134    153   2   0.50000    -0.1200000    0.0600000   2.494471e-04  1.671101e-07
    136    147   2   0.50000     0.5100000   -0.0600000   1.575021e-03  3.561100e-06
    136    152   2   0.50000     0.5100000    0.0600000   3.869820e-04  3.188634e-07
    136    153   2   0.50000     0.5100000    0.0600000   3.869820e-04  3.188634e-07
    142    147   2   0.50000     0.0600000   -0.0600000   1.599888e-04  9.721644e-08
    142    152   2   0.50000     0.0600000    0.0600000   3.930919e-05  8.704828e-09
    142    153   2   0.50000     0.0600000    0.0600000   3.930919e-05  8.704828e-09
    135    139   2   0.50000    -0.0600000    0.1600000   1.015252e-03  1.866303e-06
    137    139   2   0.50000    -0.4300000    0.1600000   1.095425e-03  1.218041e-06
    136    143   2   0.50000     0.5100000    0.0300000   2.482000e-04  1.854991e-07
    136    144   2   0.50000     0.5100000    0.0300000   2.482000e-04  1.854991e-07
    136    145   2   0.50000     0.5100000    0.0300000   2.482000e-04  1.854991e-07
    135    148   2   0.50000    -0.0600000    0.5100000   1.575021e-03  3.561100e-06
    135    154   2   0.50000    -0.0600000    0.0600000   1.599888e-04  9.721644e-08
    135    158   2   0.50000    -0.0600000   -0.1200000   1.015252e-03  1.866303e-06
    152    148   2   0.50000     0.0600000    0.5100000   3.869820e-04  3.188634e-07
    152    154   2   0.50000     0.0600000    0.0600000   3.930919e-05  8.704828e-09
    152    158   2   0.50000     0.0600000   -0.1200000   2.494471e-04  1.671101e-07
    153    148   2   0.50000     0.0600000    0.5100000   3.869820e-04  3.188634e-07
    153    154   2   0.50000     0.0600000    0.0600000   3.930919e-05  8.704828e-09
    153    158   2   0.50000     0.0600000   -0.1200000   2.494471e-04  1.671101e-07
    146    149   2   0.50000    -0.1200000   -0.4300000   1.095425e-03  1.218041e-06
    146    150   2   0.50000    -0.1200000   -0.3300000   1.026091e-03  1.187829e-06
    154    149   2   0.50000     0.0600000   -0.4300000   1.726228e-04  6.344822e-08
    154    150   2   0.50000     0.0600000   -0.3300000   1.616969e-04  6.187447e-08
    158    149   2   0.50000    -0.1200000   -0.4300000   1.095425e-03  1.218041e-06
    158    150   2   0.50000    -0.1200000   -0.3300000   1.026091e-03  1.187829e-06
    146    159   2   0.50000    -0.1200000   -0.0600000   1.015252e-03  1.866303e-06
    146    164   2   0.50000    -0.1200000    0.0600000   2.494471e-04  1.671101e-07
    146    165   2   0.50000    -0.1200000    0.0600000   2.494471e-04  1.671101e-07
    148    159   2   0.50000     0.5100000   -0.0600000   1.575021e-03  3.561100e-06
    148    164   2   0.50000     0.5100000    0.0600000   3.869820e-04  3.188634e-07
    148    165   2   0.50000     0.5100000    0.0600000   3.869820e-04  3.188634e-07
    154    159   2   0.50000     0.0600000   -0.0600000   1.599888e-04  9.721644e-08
    154    164   2   0.50000     0.0600000    0.0600000   3.930919e-05  8.704828e-09
    154    165   2   0.50000     0.0600000    0.0600000   3.930919e-05  8.704828e-09
    147    151   2   0.50000    -0.0600000    0.1600000   1.015252e-03  1.866303e-06
    149    151   2   0.50000    -0.4300000    0.1600000   1.095425e-03  1.218041e-06
    148    155   2   0.50000     0.5100000    0.0300000   2.482000e-04  1.854991e-07
    148    156   2   0.50000     0.5100000    0.0300000   2.482000e-04  1.854991e-07
    148    157   2   0.50000     0.5100000    0.0300000   2.482000e-04  1.854991e-07
    147    160   2   0.50000    -0.0600000    0.5100000   1.575021e-03  3.561100e-06
    147    166   2   0.50000    -0.0600000    0.0600000   1.599888e-04  9.721644e-08
    147    170   2   0.50000    -0.0600000   -0.1200000   1.015252e-03  1.866303e-06
    164    160   2   0.50000     0.0600000    0.5100000   3.869820e-04  3.188634e-07
    164    166   2   0.50000     0.0600000    0.0600000   3.930919e-05  8.704828e-09
    164    170   2   0.50000     0.0600000   -0.1200000   2.494471e-04  1.671101e-07
    165    160   2   0.50000     0.0600000    0.5100000   3.869820e-04  3.188634e-07
    165    166   2   0.50000     0.0600000    0.0600000   3.930919e-05  8.704828e-09
    165    170   2   0.50000     0.0600000   -0.1200000   2.494471e-04  1.671101e-07
    158    161   2   0.50000    -0.1200000   -0.4300000   1.095425e-03  1.218041e-06
    158    162   2   0.50000    -0.1200000   -0.3300000   1.026091e-03  1.187829e-06
    166    161   2   0.50000     0.0600000   -0.4300000   1.726228e-04  6.344822e-08
    166    162   2   0.50000     0.0600000   -0.3300000   1.616969e-04  6.187447e-08
    170    161   2   0.50000    -0.1200000   -0.4300000   1.095425e-03  1.218041e-06
    170    162   2   0.50000    -0.1200000   -0.3300000   1.026091e-03  1.187829e-06
    158    171   2   0.50000    -0.1200000   -0.0600000   1.015252e-03  1.866303e-06
    158    176   2   0.50000    -0.1200000    0.0600000   2.494471e-04  1.671101e-07
    158    177   2   0.50000    -0.1200000    0.0600000   2.494471e-04  1.671101e-07
    160    171   2   0.50000     0.5100000   -0.0600000   1.575021e-03  3.561100e-06
    160    176   2   0.50000     0.5100000    0.0600000   3.869820e-04  3.188634e-07
    160    177   2   0.50000     0.5100000    0.0600000   3.869820e-04  3.188634e-07
    166    171   2   0.50000     0.0600000   -0.0600000   1.599888e-04  9.721644e-08
    166    176   2   0.50000     0.0600000    0.0600000   3.930919e-05  8.704828e-09
    166    177   2   0.50000     0.0600000    0.0600000   3.930919e-05  8.704828e-09
    159    163   2   0.50000    -0.0600000    0.1600000   1.015252e-03  1.866303e-06
    161    163   2   0.50000    -0.4300000    0.1600000   1.095425e-03  1.218041e-06
    160    167   2   0.50000     0.5100000    0.0300000   2.482000e-04  1.854991e-07
    160    168   2   0.50000     0.5100000    0.0300000   2.482000e-04  1.854991e-07
    160    169   2   0.50000     0.5100000    0.0300000   2.482000e-04  1.854991e-07
    159    172   2   0.50000    -0.0600000    0.5100000   1.575021e-03  3.561100e-06
    159    178   2   0.50000    -0.0600000    0.0600000   1.599888e-04  9.721644e-08
    159    182   2   0.50000    -0.0600000   -0.1200000   1.015252e-03  1.866303e-06
    176    172   2   0.50000     0.0600000    0.5100000   3.869820e-04  3.188634e-07
    176    178   2   0.50000     0.0600000    0.0600000   3.930919e-05  8.704828e-09
    176    182   2   0.50000     0.0600000   -0.1200000   2.494471e-04  1.671101e-07
    177    172   2   0.50000     0.0600000    0.5100000   3.869820e-04  3.188634e-07
    177    178   2   0.50000     0.0600000    0.0600000   3.930919e-05  8.704828e-09
    177    182   2   0.50000     0.0600000   -0.1200000   2.494471e-04  1.671101e-07
    170    173   2   0.50000    -0.1200000   -0.4300000   1.095425e-03  1.218041e-06
    170    174   2   0.50000    -0.1200000   -0.3300000   1.026091e-03  1.187829e-06
    178    173   2   0.50000     0.0600000   -0.4300000   1.726228e-04  6.344822e-08
    178    174   2   0.50000     0.0600000   -0.3300000   1.616969e-04  6.187447e-08
    182    173   2   0.50000    -0.1200000   -0.4300000   1.095425e-03  1.218041e-06
    182    174   2   0.50000    -0.1200000   -0.3300000   1.026091e-03  1.187829e-06
    170    183   2   0.50000    -0.1200000   -0.0600000   1.015252e-03  1.866303e-06
    170    188   2   0.50000    -0.1200000    0.0600000   2.494471e-04  1.671101e-07
    170    189   2   0.50000    -0.1200000    0.0600000   2.494471e-04  1.671101e-07
    172    183   2   0.50000     0.5100000   -0.0600000   1.575021e-03  3.561100e-06
    172    188   2   0.50000     0.5100000    0.0600000   3.869820e-04  3.188634e-07
    172    189   2   0.50000     0.5100000    0.0600000   3.869820e-04  3.188634e-07
    178    183   2   0.50000     0.0600000   -0.0600000   1.599888e-04  9.721644e-08
    178    188   2   0.50000     0.0600000    0.0600000   3.930919e-05  8.704828e-09
    178    189   2   0.50000     0.0600000    0.0600000   3.930919e-05  8.704828e-09
    171    175   2   0.50000    -0.0600000    0.1600000   1.015252e-03  1.866303e-06
    173    175   2   0.50000    -0.4300000    0.1600000   1.095425e-03  1.218041e-06
    172    179   2   0.50000     0.5100000    0.0300000   2.482000e-04  1.854991e-07
    172    180   2   0.50000     0.5100000    0.0300000   2.482000e-04  1.854991e-07
    172    181   2   0.50000     0.5100000    0.0300000   2.482000e-04  1.854991e-07
    171    184   2   0.50000    -0.0600000    0.5100000   1.575021e-03  3.561100e-06
    171    190   2   0.50000    -0.0600000    0.0600000   1.599888e-04  9.721644e-08
    171    194   2   0.50000    -0.0600000   -0.1200000   1.015252e-03  1.866303e-06
    188    184   2   0.50000     0.0600000    0.5100000   3.869820e-04  3.188634e-07
    188    190   2   0.50000     0.0600000    0.0600000   3.930919e-05  8.704828e-09
    188    194   2   0.50000     0.0600000   -0.1200000   2.494471e-04  1.671101e-07
    189    184   2   0.50000     0.0600000    0.5100000   3.869820e-04  3.188634e-07
    189    190   2   0.50000     0.0600000    0.0600000   3.930919e-05  8.704828e-09
    189    194   2   0.50000     0.0600000   -0.1200000   2.494471e-04  1.671101e-07
    182    185   2   0.50000    -0.1200000   -0.4300000   1.095425e-03  1.218041e-06
    182    186   2   0.50000    -0.1200000   -0.3300000   1.026091e-03  1.187829e-06
    190    185   2   0.50000     0.0600000   -0.4300000   1.726228e-04  6.344822e-08
    190    186   2   0.50000     0.0600000   -0.3300000   1.616969e-04  6.187447e-08
    194    185   2   0.50000    -0.1200000   -0.4300000   1.095425e-03  1.218041e-06
    194    186   2   0.50000    -0.1200000   -0.3300000   1.026091e-03  1.187829e-06
    182    195   2   0.50000    -0.1200000   -0.0600000   1.015252e-03  1.866303e-06
    182    200   2   0.50000    -0.1200000    0.0600000   2.494471e-04  1.671101e-07
    182    201   2   0.50000    -0.1200000    0.0600000   2.494471e-04  1.671101e-07
    184    195   2   0.50000     0.5100000   -0.0600000   1.575021e-03  3.561100e-06
    184    200   2   0.50000     0.5100000    0.0600000   3.869820e-04  3.188634e-07
    184    201   2   0.50000     0.5100000    0.0600000   3.869820e-04  3.188634e-07
    190    195   2   0.50000     0.0600000   -0.0600000   1.599888e-04  9.721644e-08
    190    200   2   0.50000     0.0600000    0.0600000   3.930919e-05  8.704828e-09
    190    201   2   0.50000     0.0600000    0.0600000   3.930919e-05  8.704828e-09
    183    187   2   0.50000    -0.0600000    0.1600000   1.015252e-03  1.866303e-06
    185    187   2   0.50000    -0.4300000    0.1600000   1.095425e-03  1.218041e-06
    184    191   2   0.50000     0.5100000    0.0300000   2.482000e-04  1.854991e-07
    184    192   2   0.50000     0.5100000    0.0300000   2.482000e-04  1.854991e-07
    184    193   2   0.50000     0.5100000    0.0300000   2.482000e-04  1.854991e-07
    183    196   2   0.50000    -0.0600000    0.5100000   1.575021e-03  3.561100e-06
    183    202   2   0.50000    -0.0600000    0.0600000   1.599888e-04  9.721644e-08
    183    206   2   0.50000    -0.0600000   -0.1200000   1.015252e-03  1.866303e-06
    200    196   2   0.50000     0.0600000    0.5100000   3.869820e-04  3.188634e-07
    200    202   2   0.50000     0.0600000    0.0600000   3.930919e-05  8.704828e-09
    200    206   2   0.50000     0.0600000   -0.1200000   2.494471e-04  1.671101e-07
    201    196   2   0.50000     0.0600000    0.5100000   3.869820e-04  3.188634e-07
    201    202   2   0.50000     0.0600000    0.0600000   3.930919e-05  8.704828e-09
    201    206   2   0.50000     0.0600000   -0.1200000   2.494471e-04  1.671101e-07
    194    197   2   0.50000    -0.1200000   -0.4300000   1.095425e-03  1.218041e-06
    194    198   2   0.50000    -0.1200000   -0.3300000   1.026091e-03  1.187829e-06
    202    197   2   0.50000     0.0600000   -0.4300000   1.726228e-04  6.344822e-08
    202    198   2   0.50000     0.0600000   -0.3300000   1.616969e-04  6.187447e-08
    206    197   2   0.50000    -0.1200000   -0.4300000   1.095425e-03  1.218041e-06
    206    198   2   0.50000    -0.1200000   -0.3300000   1.026091e-03  1.187829e-06
    194    207   2   0.50000    -0.1200000   -0.0600000   1.015252e-03  1.866303e-06
    194    212   2   0.50000    -0.1200000    0.0600000   2.494471e-04  1.671101e-07
    194    213   2   0.50000    -0.1200000    0.0600000   2.494471e-04  1.671101e-07
    196    207   2   0.50000     0.5100000   -0.0600000   1.575021e-03  3.561100e-06
    196    212   2   0.50000     0.5100000    0.0600000   3.869820e-04  3.188634e-07
    196    213   2   0.50000     0.5100000    0.0600000   3.869820e-04  3.188634e-07
    202    207   2   0.50000     0.0600000   -0.0600000   1.599888e-04  9.721644e-08
    202    212   2   0.50000     0.0600000    0.0600000   3.930919e-05  8.704828e-09
    202    213   2   0.50000     0.0600000    0.0600000   3.930919e-05  8.704828e-09
    195    199   2   0.50000    -0.0600000    0.1600000   1.015252e-03  1.866303e-06
    197    199   2   0.50000    -0.4300000    0.1600000   1.095425e-03  1.218041e-06
    196    203   2   0.50000     0.5100000    0.0300000   2.482000e-04  1.854991e-07
    196    204   2   0.50000     0.5100000    0.0300000   2.482000e-04  1.854991e-07
    196    205   2   0.50000     0.5100000    0.0300000   2.482000e-04  1.854991e-07
    195    208   2   0.50000    -0.0600000    0.5100000   1.575021e-03  3.561100e-06
    195    214   2   0.50000    -0.0600000    0.0600000   1.599888e-04  9.721644e-08
    195    218   2   0.50000    -0.0600000   -0.1200000   1.015252e-03  1.866303e-06
    212    208   2   0.50000     0.0600000    0.5100000   3.869820e-04  3.188634e-07
    212    214   2   0.50000     0.0600000    0.0600000   3.930919e-05  8.704828e-09
    212    218   2   0.50000     0.0600000   -0.1200000   2.494471e-04  1.671101e-07
    213    208   2   0.50000     0.0600000    0.5100000   3.869820e-04  3.188634e-07
    213    214   2   0.50000     0.0600000    0.0600000   3.930919e-05  8.704828e-09
    213    218   2   0.50000     0.0600000   -0.1200000   2.494471e-04  1.671101e-07
    206    209   2   0.50000    -0.1200000   -0.4300000   1.095425e-03  1.218041e-06
    206    210   2   0.50000    -0.1200000   -0.3300000   1.026091e-03  1.187829e-06
    214    209   2   0.50000     0.0600000   -0.4300000   1.726228e-04  6.344822e-08
    214    210   2   0.50000     0.0600000   -0.3300000   1.616969e-04  6.187447e-08
    218    209   2   0.50000    -0.1200000   -0.4300000   1.095425e-03  1.218041e-06
    218    210   2   0.50000    -0.1200000   -0.3300000   1.026091e-03  1.187829e-06
    206    219   2   0.50000    -0.1200000   -0.0600000   1.015252e-03  1.866303e-06
    206    224   2   0.50000    -0.1200000    0.0600000   2.494471e-04  1.671101e-07
    206    225   2   0.50000    -0.1200000    0.0600000   2.494471e-04  1.671101e-07
    208    219   2   0.50000     0.5100000   -0.0600000   1.575021e-03  3.561100e-06
    208    224   2   0.50000     0.5100000    0.0600000   3.869820e-04  3.188634e-07
    208    225   2   0.50000     0.5100000    0.0600000   3.869820e-04  3.188634e-07
    214    219   2   0.50000     0.0600000   -0.0600000   1.599888e-04  9.721644e-08
    214    224   2   0.50000     0.0600000    0.0600000   3.930919e-05  8.704828e-09
    214    225   2   0.50000     0.0600000    0.0600000   3.930919e-05  8.704828e-09
    207    211   2   0.50000    -0.0600000    0.1600000   1.015252e-03  1.866303e-06
    209    211   2   0.50000    -0.4300000    0.1600000   1.095425e-03  1.218041e-06
    208    215   2   0.50000     0.5100000    0.0300000   2.482000e-04  1.854991e-07
    208    216   2   0.50000     0.5100000    0.0300000   2.482000e-04  1.854991e-07
    208    217   2   0.50000     0.5100000    0.0300000   2.482000e-04  1.854991e-07
    207    220   2   0.50000    -0.0600000    0.5100000   1.575021e-03  3.561100e-06
    207    226   2   0.50000    -0.0600000    0.0600000   1.599888e-04  9.721644e-08
    207    230   2   0.50000    -0.0600000   -0.1200000   1.015252e-03  1.866303e-06
    224    220   2   0.50000     0.0600000    0.5100000   3.869820e-04  3.188634e-07
    224    226   2   0.50000     0.0600000    0.0600000   3.930919e-05  8.704828e-09
    224    230   2   0.50000     0.0600000   -0.1200000   2.494471e-04  1.671101e-07
    225    220   2   0.50000     0.0600000    0.5100000   3.869820e-04  3.188634e-07
    225    226   2   0.50000     0.0600000    0.0600000   3.930919e-05  8.704828e-09
    225    230   2   0.50000     0.0600000   -0.1200000   2.494471e-04  1.671101e-07
    218    221   2   0.50000    -0.1200000   -0.4300000   1.095425e-03  1.218041e-06
    218    222   2   0.50000    -0.1200000   -0.3300000   1.026091e-03  1.187829e-06
    226    221   2   0.50000     0.0600000   -0.4300000   1.726228e-04  6.344822e-08
    226    222   2   0.50000     0.0600000   -0.3300000   1.616969e-04  6.187447e-08
    230    221   2   0.50000    -0.1200000   -0.4300000   1.095425e-03  1.218041e-06
    230    222   2   0.50000    -0.1200000   -0.3300000   1.026091e-03  1.187829e-06
    218    231   2   0.50000    -0.1200000   -0.1200000   1.015252e-03  1.866303e-06
    218    236   2   0.50000    -0.1200000    0.0600000   2.494471e-04  1.671101e-07
    218    237   2   0.50000    -0.1200000    0.0600000   2.494471e-04  1.671101e-07
    220    231   2   0.50000     0.5100000   -0.1200000   1.575021e-03  3.561100e-06
    220    236   2   0.50000     0.5100000    0.0600000   3.869820e-04  3.188634e-07
    220    237   2   0.50000     0.5100000    0.0600000   3.869820e-04  3.188634e-07
    226    231   2   0.50000     0.0600000   -0.1200000   1.599888e-04  9.721644e-08
    226    236   2   0.50000     0.0600000    0.0600000   3.930919e-05  8.704828e-09
    226    237   2   0.50000     0.0600000    0.0600000   3.930919e-05  8.704828e-09
    219    223   2   0.50000    -0.0600000    0.1600000   1.015252e-03  1.866303e-06
    221    223   2   0.50000    -0.4300000    0.1600000   1.095425e-03  1.218041e-06
    220    227   2   0.50000     0.5100000    0.0300000   2.482000e-04  1.854991e-07
    220    228   2   0.50000     0.5100000    0.0300000   2.482000e-04  1.854991e-07
    220    229   2   0.50000     0.5100000    0.0300000   2.482000e-04  1.854991e-07
    219    232   2   0.50000    -0.0600000    0.5100000   1.575021e-03  3.561100e-06
    219    238   2   0.50000    -0.0600000    0.0600000   1.599888e-04  9.721644e-08
    219    242   2   0.50000    -0.0600000    0.0600000   1.599888e-04  9.721644e-08
    236    232   2   0.50000     0.0600000    0.5100000   3.869820e-04  3.188634e-07
    236    238   2   0.50000     0.0600000    0.0600000   3.930919e-05  8.704828e-09
    236    242   2   0.50000     0.0600000    0.0600000   3.930919e-05  8.704828e-09
    237    232   2   0.50000     0.0600000    0.5100000   3.869820e-04  3.188634e-07
    237    238   2   0.50000     0.0600000    0.0600000   3.930919e-05  8.704828e-09
    237    242   2   0.50000     0.0600000    0.0600000   3.930919e-05  8.704828e-09
    230    233   2   0.50000    -0.1200000   -0.4300000   1.095425e-03  1.218041e-06
    230    234   2   0.50000    -0.1200000   -0.3300000   1.026091e-03  1.187829e-06
    238    233   2   0.50000     0.0600000   -0.4300000   1.726228e-04  6.344822e-08
    238    234   2   0.50000     0.0600000   -0.3300000   1.616969e-04  6.187447e-08
    242    233   2   0.50000     0.0600000   -0.4300000   1.726228e-04  6.344822e-08
    242    234   2   0.50000     0.0600000   -0.3300000   1.616969e-04  6.187447e-08
    231    235   2   0.50000    -0.1200000    0.1600000   1.015252e-03  1.866303e-06
    233    235   2   0.50000    -0.4300000    0.1600000   1.095425e-03  1.218041e-06
    232    239   2   0.50000     0.5100000    0.0300000   2.482000e-04  1.854991e-07
    232    240   2   0.50000     0.5100000    0.0300000   2.482000e-04  1.854991e-07
    232    241   2   0.50000     0.5100000    0.0300000   2.482000e-04  1.854991e-07

[ angles ]
; ai  aj  ak
      2      1      7   1    110.7000    313.8000
      2      1      8   1    110.7000    313.8000
      2      1     13   1    110.7000    313.8000
      7      1      8   1    107.8000    276.1440
      7      1     13   1    107.8000    276.1440
      8      1     13   1    107.8000    276.1440
      1      2      3   1    111.1000    527.1840
      1      2      9   1    110.7000    313.8000
      1      2     14   1    112.7000    488.2728
      3      2      9   1    109.5000    292.8800
      3      2     14   1    111.1000    527.1840
      9      2     14   1    110.7000    313.8000
      2      3      4   1    120.4000    669.4400
      2      3      5   1    111.4000    677.8080
      4      3      5   1    123.4000    694.5440
      3      5      6   1    116.9000    694.5440
      5      6     10   1    109.5000    292.8800
      5      6     11   1    109.5000    292.8800
      5      6     12   1    109.5000    292.8800
     10      6     11   1    107.8000    276.1440
     10      6     12   1    107.8000    276.1440
     11      6     12   1    107.8000    276.1440
      2     14     15   1    112.7000    488.2728
      2     14     20   1    110.7000    313.8000
      2     14     21   1    110.7000    313.8000
     15     14     20   1    110.7000    313.8000
     15     14     21   1    110.7000    313.8000
     20     14     21   1    107.8000    276.1440
     14     15     16   1    111.1000    527.1840
     14     15     22   1    110.7000    313.8000
     14     15     26   1    112.7000    488.2728
     16     15     22   1    109.5000    292.8800
     16     15     26   1    111.1000    527.1840
     22     15     26   1    110.7000    313.8000
     15     16     17   1    120.4000    669.4400
     15     16     18   1    111.4000    677.8080
     17     16     18   1    123.4000    694.5440
     16     18     19   1    116.9000    694.5440
     18     19     23   1    109.5000    292.8800
     18     19     24   1    109.5000    292.8800
     18     19     25   1    109.5000    292.8800
     23     19     24   1    107.8000    276.1440
     23     19     25   1    107.8000    276.1440
     24     19     25   1    107.8000    276.1440
     15     26     27   1    112.7000    488.2728
     15     26     32   1    110.7000    313.8000
     15     26     33   1    110.7000    313.8000
     27     26     32   1    110.7000    313.8000
     27     26     33   1    110.7000    313.8000
     32     26     33   1    107.8000    276.1440
     26     27     28   1    111.1000    527.1840
     26     27     34   1    110.7000    313.8000
     26     27     38   1    112.7000    488.2728
     28     27     34   1    109.5000    292.8800
     28     27     38   1    111.1000    527.1840
     34     27     38   1    110.7000    313.8000
     27     28     29   1    120.4000    669.4400
     27     28     30   1    111.4000    677.8080
     29     28     30   1    123.4000    694.5440
     28     30     31   1    116.9000    694.5440
     30     31     35   1    109.5000    292.8800
     30     31     36   1    109.5000    292.8800
     30     31     37   1    109.5000    292.8800
     35     31     36   1    107.8000    276.1440
     35     31     37   1    107.8000    276.1440
     36     31     37   1    107.8000    276.1440
     27     38     39   1    112.7000    488.2728
     27     38     44   1    110.7000    313.8000
     27     38     45   1    110.7000    313.8000
     39     38     44   1    110.7000    313.8000
     39     38     45   1    110.7000    313.8000
     44     38     45   1    107.8000    276.1440
     38     39     40   1    111.1000    527.1840
     38     39     46   1    110.7000    313.8000
     38     39     50   1    112.7000    488.2728
     40     39     46   1    109.5000    292.8800
     40     39     50   1    111.1000    527.1840
     46     39     50   1    110.7000    313.8000
     39     40     41   1    120.4000    669.4400
     39     40     42   1    111.4000    677.8080
     41     40     42   1    123.4000    694.5440
     40     42     43   1    116.9000    694.5440
     42     43     47   1    109.5000    292.8800
     42     43     48   1    109.5000    292.8800
     42     43     49   1    109.5000    292.8800
     47     43     48   1    107.8000    276.1440
     47     43     49   1    107.8000    276.1440
     48     43     49   1    107.8000    276.1440
     39     50     51   1    112.7000    488.2728
     39     50     56   1    110.7000    313.8000
     39     50     57   1    110.7000    313.8000
     51     50     56   1    110.7000    313.8000
     51     50     57   1    110.7000    313.8000
     56     50     57   1    107.8000    276.1440
     50     51     52   1    111.1000    527.1840
     50     51     58   1    110.7000    313.8000
     50     51     62   1    112.7000    488.2728
     52     51     58   1    109.5000    292.8800
     52     51     62   1    111.1000    527.1840
     58     51     62   1    110.7000    313.8000
     51     52     53   1    120.4000    669.4400
     51     52     54   1    111.4000    677.8080
     53     52     54   1    123.4000    694.5440
     52     54     55   1    116.9000    694.5440
     54     55     59   1    109.5000    292.8800
     54     55     60   1    109.5000    292.8800
     54     55     61   1    109.5000    292.8800
     59     55     60   1    107.8000    276.1440
     59     55     61   1    107.8000    276.1440
     60     55     61   1    107.8000    276.1440
     51     62     63   1    112.7000    488.2728
     51     62     68   1    110.7000    313.8000
     51     62     69   1    110.7000    313.8000
     63     62     68   1    110.7000    313.8000
     63     62     69   1    110.7000    313.8000
     68     62     69   1    107.8000    276.1440
     62     63     64   1    111.1000    527.1840
     62     63     70   1    110.7000    313.8000
     62     63     74   1    112.7000    488.2728
     64     63     70   1    109.5000    292.8800
     64     63     74   1    111.1000    527.1840
     70     63     74   1    110.7000    313.8000
     63     64     65   1    120.4000    669.4400
     63     64     66   1    111.4000    677.8080
     65     64     66   1    123.4000    694.5440
     64     66     67   1    116.9000    694.5440
     66     67     71   1    109.5000    292.8800
     66     67     72   1    109.5000    292.8800
     66     67     73   1    109.5000    292.8800
     71     67     72   1    107.8000    276.1440
     71     67     73   1    107.8000    276.1440
     72     67     73   1    107.8000    276.1440
     63     74     75   1    112.7000    488.2728
     63     74     80   1    110.7000    313.8000
     63     74     81   1    110.7000    313.8000
     75     74     80   1    110.7000    313.8000
     75     74     81   1    110.7000    313.8000
     80     74     81   1    107.8000    276.1440
     74     75     76   1    111.1000    527.1840
     74     75     82   1    110.7000    313.8000
     74     75     86   1    112.7000    488.2728
     76     75     82   1    109.5000    292.8800
     76     75     86   1    111.1000    527.1840
     82     75     86   1    110.7000    313.8000
     75     76     77   1    120.4000    669.4400
     75     76     78   1    111.4000    677.8080
     77     76     78   1    123.4000    694.5440
     76     78     79   1    116.9000    694.5440
     78     79     83   1    109.5000    292.8800
     78     79     84   1    109.5000    292.8800
     78     79     85   1    109.5000    292.8800
     83     79     84   1    107.8000    276.1440
     83     79     85   1    107.8000    276.1440
     84     79     85   1    107.8000    276.1440
     75     86     87   1    112.7000    488.2728
     75     86     92   1    110.7000    313.8000
     75     86     93   1    110.7000    313.8000
     87     86     92   1    110.7000    313.8000
     87     86     93   1    110.7000    313.8000
     92     86     93   1    107.8000    276.1440
     86     87     88   1    111.1000    527.1840
     86     87     94   1    110.7000    313.8000
     86     87     98   1    112.7000    488.2728
     88     87     94   1    109.5000    292.8800
     88     87     98   1    111.1000    527.1840
     94     87     98   1    110.7000    313.8000
     87     88     89   1    120.4000    669.4400
     87     88     90   1    111.4000    677.8080
     89     88     90   1    123.4000    694.5440
     88     90     91   1    116.9000    694.5440
     90     91     95   1    109.5000    292.8800
     90     91     96   1    109.5000    292.8800
     90     91     97   1    109.5000    292.8800
     95     91     96   1    107.8000    276.1440
     95     91     97   1    107.8000    276.1440
     96     91     97   1    107.8000    276.1440
     87     98     99   1    112.7000    488.2728
     87     98    104   1    110.7000    313.8000
     87     98    105   1    110.7000    313.8000
     99     98    104   1    110.7000    313.8000
     99     98    105   1    110.7000    313.8000
    104     98    105   1    107.8000    276.1440
     98     99    100   1    111.1000    527.1840
     98     99    106   1    110.7000    313.8000
     98     99    110   1    112.7000    488.2728
    100     99    106   1    109.5000    292.8800
    100     99    110   1    111.1000    527.1840
    106     99    110   1    110.7000    313.8000
     99    100    101   1    120.4000    669.4400
     99    100    102   1    111.4000    677.8080
    101    100    102   1    123.4000    694.5440
    100    102    103   1    116.9000    694.5440
    102    103    107   1    109.5000    292.8800
    102    103    108   1    109.5000    292.8800
    102    103    109   1    109.5000    292.8800
    107    103    108   1    107.8000    276.1440
    107    103    109   1    107.8000    276.1440
    108    103    109   1    107.8000    276.1440
     99    110    111   1    112.7000    488.2728
     99    110    116   1    110.7000    313.8000
     99    110    117   1    110.7000    313.8000
    111    110    116   1    110.7000    313.8000
    111    110    117   1    110.7000    313.8000
    116    110    117   1    107.8000    276.1440
    110    111    112   1    111.1000    527.1840
    110    111    118   1    110.7000    313.8000
    110    111    122   1    112.7000    488.2728
    112    111    118   1    109.5000    292.8800
    112    111    122   1    111.1000    527.1840
    118    111    122   1    110.7000    313.8000
    111    112    113   1    120.4000    669.4400
    111    112    114   1    111.4000    677.8080
    113    112    114   1    123.4000    694.5440
    112    114    115   1    116.9000    694.5440
    114    115    119   1    109.5000    292.8800
    114    115    120   1    109.5000    292.8800
    114    115    121   1    109.5000    292.8800
    119    115    120   1    107.8000    276.1440
    119    115    121   1    107.8000    276.1440
    120    115    121   1    107.8000    276.1440
    111    122    123   1    112.7000    488.2728
    111    122    128   1    110.7000    313.8000
    111    122    129   1    110.7000    313.8000
    123    122    128   1    110.7000    313.8000
    123    122    129   1    110.7000    313.8000
    128    122    129   1    107.8000    276.1440
    122    123    124   1    111.1000    527.1840
    122    123    130   1    110.7000    313.8000
    122    123    134   1    112.7000    488.2728
    124    123    130   1    109.5000    292.8800
    124    123    134   1    111.1000    527.1840
    130    123    134   1    110.7000    313.8000
    123    124    125   1    120.4000    669.4400
    123    124    126   1    111.4000    677.8080
    125    124    126   1    123.4000    694.5440
    124    126    127   1    116.9000    694.5440
    126    127    131   1    109.5000    292.8800
    126    127    132   1    109.5000    292.8800
    126    127    133   1    109.5000    292.8800
    131    127    132   1    107.8000    276.1440
    131    127    133   1    107.8000    276.1440
    132    127    133   1    107.8000    276.1440
    123    134    135   1    112.7000    488.2728
    123    134    140   1    110.7000    313.8000
    123    134    141   1    110.7000    313.8000
    135    134    140   1    110.7000    313.8000
    135    134    141   1    110.7000    313.8000
    140    134    141   1    107.8000    276.1440
    134    135    136   1    111.1000    527.1840
    134    135    142   1    110.7000    313.8000
    134    135    146   1    112.7000    488.2728
    136    135    142   1    109.5000    292.8800
    136    135    146   1    111.1000    527.1840
    142    135    146   1    110.7000    313.8000
    135    136    137   1    120.4000    669.4400
    135    136    138   1    111.4000    677.8080
    137    136    138   1    123.4000    694.5440
    136    138    139   1    116.9000    694.5440
    138    139    143   1    109.5000    292.8800
    138    139    144   1    109.5000    292.8800
    138    139    145   1    109.5000    292.8800
    143    139    144   1    107.8000    276.1440
    143    139    145   1    107.8000    276.1440
    144    139    145   1    107.8000    276.1440
    135    146    147   1    112.7000    488.2728
    135    146    152   1    110.7000    313.8000
    135    146    153   1    110.7000    313.8000
    147    146    152   1    110.7000    313.8000
    147    146    153   1    110.7000    313.8000
    152    146    153   1    107.8000    276.1440
    146    147    148   1    111.1000    527.1840
    146    147    154   1    110.7000    313.8000
    146    147    158   1    112.7000    488.2728
    148    147    154   1    109.5000    292.8800
    148    147    158   1    111.1000    527.1840
    154    147    158   1    110.7000    313.8000
    147    148    149   1    120.4000    669.4400
    147    148    150   1    111.4000    677.8080
    149    148    150   1    123.4000    694.5440
    148    150    151   1    116.9000    694.5440
    150    151    155   1    109.5000    292.8800
    150    151    156   1    109.5000    292.8800
    150    151    157   1    109.5000    292.8800
    155    151    156   1    107.8000    276.1440
    155    151    157   1    107.8000    276.1440
    156    151    157   1    107.8000    276.1440
    147    158    159   1    112.7000    488.2728
    147    158    164   1    110.7000    313.8000
    147    158    165   1    110.7000    313.8000
    159    158    164   1    110.7000    313.8000
    159    158    165   1    110.7000    313.8000
    164    158    165   1    107.8000    276.1440
    158    159    160   1    111.1000    527.1840
    158    159    166   1    110.7000    313.8000
    158    159    170   1    112.7000    488.2728
    160    159    166   1    109.5000    292.8800
    160    159    170   1    111.1000    527.1840
    166    159    170   1    110.7000    313.8000
    159    160    161   1    120.4000    669.4400
    159    160    162   1    111.4000    677.8080
    161    160    162   1    123.4000    694.5440
    160    162    163   1    116.9000    694.5440
    162    163    167   1    109.5000    292.8800
    162    163    168   1    109.5000    292.8800
    162    163    169   1    109.5000    292.8800
    167    163    168   1    107.8000    276.1440
    167    163    169   1    107.8000    276.1440
    168    163    169   1    107.8000    276.1440
    159    170    171   1    112.7000    488.2728
    159    170    176   1    110.7000    313.8000
    159    170    177   1    110.7000    313.8000
    171    170    176   1    110.7000    313.8000
    171    170    177   1    110.7000    313.8000
    176    170    177   1    107.8000    276.1440
    170    171    172   1    111.1000    527.1840
    170    171    178   1    110.7000    313.8000
    170    171    182   1    112.7000    488.2728
    172    171    178   1    109.5000    292.8800
    172    171    182   1    111.1000    527.1840
    178    171    182   1    110.7000    313.8000
    171    172    173   1    120.4000    669.4400
    171    172    174   1    111.4000    677.8080
    173    172    174   1    123.4000    694.5440
    172    174    175   1    116.9000    694.5440
    174    175    179   1    109.5000    292.8800
    174    175    180   1    109.5000    292.8800
    174    175    181   1    109.5000    292.8800
    179    175    180   1    107.8000    276.1440
    179    175    181   1    107.8000    276.1440
    180    175    181   1    107.8000    276.1440
    171    182    183   1    112.7000    488.2728
    171    182    188   1    110.7000    313.8000
    171    182    189   1    110.7000    313.8000
    183    182    188   1    110.7000    313.8000
    183    182    189   1    110.7000    313.8000
    188    182    189   1    107.8000    276.1440
    182    183    184   1    111.1000    527.1840
    182    183    190   1    110.7000    313.8000
    182    183    194   1    112.7000    488.2728
    184    183    190   1    109.5000    292.8800
    184    183    194   1    111.1000    527.1840
    190    183    194   1    110.7000    313.8000
    183    184    185   1    120.4000    669.4400
    183    184    186   1    111.4000    677.8080
    185    184    186   1    123.4000    694.5440
    184    186    187   1    116.9000    694.5440
    186    187    191   1    109.5000    292.8800
    186    187    192   1    109.5000    292.8800
    186    187    193   1    109.5000    292.8800
    191    187    192   1    107.8000    276.1440
    191    187    193   1    107.8000    276.1440
    192    187    193   1    107.8000    276.1440
    183    194    195   1    112.7000    488.2728
    183    194    200   1    110.7000    313.8000
    183    194    201   1    110.7000    313.8000
    195    194    200   1    110.7000    313.8000
    195    194    201   1    110.7000    313.8000
    200    194    201   1    107.8000    276.1440
    194    195    196   1    111.1000    527.1840
    194    195    202   1    110.7000    313.8000
    194    195    206   1    112.7000    488.2728
    196    195    202   1    109.5000    292.8800
    196    195    206   1    111.1000    527.1840
    202    195    206   1    110.7000    313.8000
    195    196    197   1    120.4000    669.4400
    195    196    198   1    111.4000    677.8080
    197    196    198   1    123.4000    694.5440
    196    198    199   1    116.9000    694.5440
    198    199    203   1    109.5000    292.8800
    198    199    204   1    109.5000    292.8800
    198    199    205   1    109.5000    292.8800
    203    199    204   1    107.8000    276.1440
    203    199    205   1    107.8000    276.1440
    204    199    205   1    107.8000    276.1440
    195    206    207   1    112.7000    488.2728
    195    206    212   1    110.7000    313.8000
    195    206    213   1    110.7000    313.8000
    207    206    212   1    110.7000    313.8000
    207    206    213   1    110.7000    313.8000
    212    206    213   1    107.8000    276.1440
    206    207    208   1    111.1000    527.1840
    206    207    214   1    110.7000    313.8000
    206    207    218   1    112.7000    488.2728
    208    207    214   1    109.5000    292.8800
    208    207    218   1    111.1000    527.1840
    214    207    218   1    110.7000    313.8000
    207    208    209   1    120.4000    669.4400
    207    208    210   1    111.4000    677.8080
    209    208    210   1    123.4000    694.5440
    208    210    211   1    116.9000    694.5440
    210    211    215   1    109.5000    292.8800
    210    211    216   1    109.5000    292.8800
    210    211    217   1    109.5000    292.8800
    215    211    216   1    107.8000    276.1440
    215    211    217   1    107.8000    276.1440
    216    211    217   1    107.8000    276.1440
    207    218    219   1    112.7000    488.2728
    207    218    224   1    110.7000    313.8000
    207    218    225   1    110.7000    313.8000
    219    218    224   1    110.7000    313.8000
    219    218    225   1    110.7000    313.8000
    224    218    225   1    107.8000    276.1440
    218    219    220   1    111.1000    527.1840
    218    219    226   1    110.7000    313.8000
    218    219    230   1    112.7000    488.2728
    220    219    226   1    109.5000    292.8800
    220    219    230   1    111.1000    527.1840
    226    219    230   1    110.7000    313.8000
    219    220    221   1    120.4000    669.4400
    219    220    222   1    111.4000    677.8080
    221    220    222   1    123.4000    694.5440
    220    222    223   1    116.9000    694.5440
    222    223    227   1    109.5000    292.8800
    222    223    228   1    109.5000    292.8800
    222    223    229   1    109.5000    292.8800
    227    223    228   1    107.8000    276.1440
    227    223    229   1    107.8000    276.1440
    228    223    229   1    107.8000    276.1440
    219    230    231   1    112.7000    488.2728
    219    230    236   1    110.7000    313.8000
    219    230    237   1    110.7000    313.8000
    231    230    236   1    110.7000    313.8000
    231    230    237   1    110.7000    313.8000
    236    230    237   1    107.8000    276.1440
    230    231    232   1    111.1000    527.1840
    230    231    238   1    110.7000    313.8000
    230    231    242   1    110.7000    313.8000
    232    231    238   1    109.5000    292.8800
    232    231    242   1    109.5000    292.8800
    238    231    242   1    107.8000    276.1440
    231    232    233   1    120.4000    669.4400
    231    232    234   1    111.4000    677.8080
    233    232    234   1    123.4000    694.5440
    232    234    235   1    116.9000    694.5440
    234    235    239   1    109.5000    292.8800
    234    235    240   1    109.5000    292.8800
    234    235    241   1    109.5000    292.8800
    239    235    240   1    107.8000    276.1440
    239    235    241   1    107.8000    276.1440
    240    235    241   1    107.8000    276.1440

[ dihedrals ]
; Proper dihedrals
      7      1      2      3   5     0.00000     0.00000    -0.94140  0.0
      7      1      2      9   5     0.00000     0.00000     1.25520  0.0
      7      1      2     14   5     0.00000     0.00000     1.25520  0.0
      8      1      2      3   5     0.00000     0.00000    -0.94140  0.0
      8      1      2      9   5     0.00000     0.00000     1.25520  0.0
      8      1      2     14   5     0.00000     0.00000     1.25520  0.0
     13      1      2      3   5     0.00000     0.00000    -0.94140  0.0
     13      1      2      9   5     0.00000     0.00000     1.25520  0.0
     13      1      2     14   5     0.00000     0.00000     1.25520  0.0
      1      2      3      4   5     0.00000     2.52295     0.00000  0.0
      1      2      3      5   5     0.00000     0.00000     3.07524  0.0
      9      2      3      4   5     0.00000     0.00000     0.00000  0.0
      9      2      3      5   5     0.00000     0.00000     0.00000  0.0
     14      2      3      4   5     0.00000     2.52295     0.00000  0.0
     14      2      3      5   5     0.00000     0.00000     3.07524  0.0
      1      2     14     15   5     4.74884    -0.63178     1.67360  0.0
      1      2     14     20   5     0.00000     0.00000     1.25520  0.0
      1      2     14     21   5     0.00000     0.00000     1.25520  0.0
      3      2     14     15   5    -8.00818    -1.52298     2.46438  0.0
      3      2     14     20   5     0.00000     0.00000    -0.94140  0.0
      3      2     14     21   5     0.00000     0.00000    -0.94140  0.0
      9      2     14     15   5     0.00000     0.00000     1.25520  0.0
      9      2     14     20   5     0.00000     0.00000     1.25520  0.0
      9      2     14     21   5     0.00000     0.00000     1.25520  0.0
      2      3      5      6   5    13.65239    24.43456     0.00000  0.0
      4      3      5      6   5     0.00000    25.10400     0.00000  0.0
      3      5      6     10   5     0.00000     0.00000     0.67362  0.0
      3      5      6     11   5     0.00000     0.00000     0.67362  0.0
      3      5      6     12   5     0.00000     0.00000     0.67362  0.0
      2     14     15     16   5    -8.00818    -1.52298     2.46438  0.0
      2     14     15     22   5     0.00000     0.00000     1.25520  0.0
      2     14     15     26   5     4.74884    -0.63178     1.67360  0.0
     20     14     15     16   5     0.00000     0.00000    -0.94140  0.0
     20     14     15     22   5     0.00000     0.00000     1.25520  0.0
     20     14     15     26   5     0.00000     0.00000     1.25520  0.0
     21     14     15     16   5     0.00000     0.00000    -0.94140  0.0
     21     14     15     22   5     0.00000     0.00000     1.25520  0.0
     21     14     15     26   5     0.00000     0.00000     1.25520  0.0
     14     15     16     17   5     0.00000     2.52295     0.00000  0.0
     14     15     16     18   5     0.00000     0.00000     3.07524  0.0
     22     15     16     17   5     0.00000     0.00000     0.00000  0.0
     22     15     16     18   5     0.00000     0.00000     0.00000  0.0
     26     15     16     17   5     0.00000     2.52295     0.00000  0.0
     26     15     16     18   5     0.00000     0.00000     3.07524  0.0
     14     15     26     27   5     4.74884    -0.63178     1.67360  0.0
     14     15     26     32   5     0.00000     0.00000     1.25520  0.0
     14     15     26     33   5     0.00000     0.00000     1.25520  0.0
     16     15     26     27   5    -8.00818    -1.52298     2.46438  0.0
     16     15     26     32   5     0.00000     0.00000    -0.94140  0.0
     16     15     26     33   5     0.00000     0.00000    -0.94140  0.0
     22     15     26     27   5     0.00000     0.00000     1.25520  0.0
     22     15     26     32   5     0.00000     0.00000     1.25520  0.0
     22     15     26     33   5     0.00000     0.00000     1.25520  0.0
     15     16     18     19   5    13.65239    24.43456     0.00000  0.0
     17     16     18     19   5     0.00000    25.10400     0.00000  0.0
     16     18     19     23   5     0.00000     0.00000     0.67362  0.0
     16     18     19     24   5     0.00000     0.00000     0.67362  0.0
     16     18     19     25   5     0.00000     0.00000     0.67362  0.0
     15     26     27     28   5    -8.00818    -1.52298     2.46438  0.0
     15     26     27     34   5     0.00000     0.00000     1.25520  0.0
     15     26     27     38   5     4.74884    -0.63178     1.67360  0.0
     32     26     27     28   5     0.00000     0.00000    -0.94140  0.0
     32     26     27     34   5     0.00000     0.00000     1.25520  0.0
     32     26     27     38   5     0.00000     0.00000     1.25520  0.0
     33     26     27     28   5     0.00000     0.00000    -0.94140  0.0
     33     26     27     34   5     0.00000     0.00000     1.25520  0.0
     33     26     27     38   5     0.00000     0.00000     1.25520  0.0
     26     27     28     29   5     0.00000     2.52295     0.00000  0.0
     26     27     28     30   5     0.00000     0.00000     3.07524  0.0
     34     27     28     29   5     0.00000     0.00000     0.00000  0.0
     34     27     28     30   5     0.00000     0.00000     0.00000  0.0
     38     27     28     29   5     0.00000     2.52295     0.00000  0.0
     38     27     28     30   5     0.00000     0.00000     3.07524  0.0
     26     27     38     39   5     4.74884    -0.63178     1.67360  0.0
     26     27     38     44   5     0.00000     0.00000     1.25520  0.0
     26     27     38     45   5     0.00000     0.00000     1.25520  0.0
     28     27     38     39   5    -8.00818    -1.52298     2.46438  0.0
     28     27     38     44   5     0.00000     0.00000    -0.94140  0.0
     28     27     38     45   5     0.00000     0.00000    -0.94140  0.0
     34     27     38     39   5     0.00000     0.00000     1.25520  0.0
     34     27     38     44   5     0.00000     0.00000     1.25520  0.0
     34     27     38     45   5     0.00000     0.00000     1.25520  0.0
     27     28     30     31   5    13.65239    24.43456     0.00000  0.0
     29     28     30     31   5     0.00000    25.10400     0.00000  0.0
     28     30     31     35   5     0.00000     0.00000     0.67362  0.0
     28     30     31     36   5     0.00000     0.00000     0.67362  0.0
     28     30     31     37   5     0.00000     0.00000     0.67362  0.0
     27     38     39     40   5    -8.00818    -1.52298     2.46438  0.0
     27     38     39     46   5     0.00000     0.00000     1.25520  0.0
     27     38     39     50   5     4.74884    -0.63178     1.67360  0.0
     44     38     39     40   5     0.00000     0.00000    -0.94140  0.0
     44     38     39     46   5     0.00000     0.00000     1.25520  0.0
     44     38     39     50   5     0.00000     0.00000     1.25520  0.0
     45     38     39     40   5     0.00000     0.00000    -0.94140  0.0
     45     38     39     46   5     0.00000     0.00000     1.25520  0.0
     45     38     39     50   5     0.00000     0.00000     1.25520  0.0
     38     39     40     41   5     0.00000     2.52295     0.00000  0.0
     38     39     40     42   5     0.00000     0.00000     3.07524  0.0
     46     39     40     41   5     0.00000     0.00000     0.00000  0.0
     46     39     40     42   5     0.00000     0.00000     0.00000  0.0
     50     39     40     41   5     0.00000     2.52295     0.00000  0.0
     50     39     40     42   5     0.00000     0.00000     3.07524  0.0
     38     39     50     51   5     4.74884    -0.63178     1.67360  0.0
     38     39     50     56   5     0.00000     0.00000     1.25520  0.0
     38     39     50     57   5     0.00000     0.00000     1.25520  0.0
     40     39     50     51   5    -8.00818    -1.52298     2.46438  0.0
     40     39     50     56   5     0.00000     0.00000    -0.94140  0.0
     40     39     50     57   5     0.00000     0.00000    -0.94140  0.0
     46     39     50     51   5     0.00000     0.00000     1.25520  0.0
     46     39     50     56   5     0.00000     0.00000     1.25520  0.0
     46     39     50     57   5     0.00000     0.00000     1.25520  0.0
     39     40     42     43   5    13.65239    24.43456     0.00000  0.0
     41     40     42     43   5     0.00000    25.10400     0.00000  0.0
     40     42     43     47   5     0.00000     0.00000     0.67362  0.0
     40     42     43     48   5     0.00000     0.00000     0.67362  0.0
     40     42     43     49   5     0.00000     0.00000     0.67362  0.0
     39     50     51     52   5    -8.00818    -1.52298     2.46438  0.0
     39     50     51     58   5     0.00000     0.00000     1.25520  0.0
     39     50     51     62   5     4.74884    -0.63178     1.67360  0.0
     56     50     51     52   5     0.00000     0.00000    -0.94140  0.0
     56     50     51     58   5     0.00000     0.00000     1.25520  0.0
     56     50     51     62   5     0.00000     0.00000     1.25520  0.0
     57     50     51     52   5     0.00000     0.00000    -0.94140  0.0
     57     50     51     58   5     0.00000     0.00000     1.25520  0.0
     57     50     51     62   5     0.00000     0.00000     1.25520  0.0
     50     51     52     53   5     0.00000     2.52295     0.00000  0.0
     50     51     52     54   5     0.00000     0.00000     3.07524  0.0
     58     51     52     53   5     0.00000     0.00000     0.00000  0.0
     58     51     52     54   5     0.00000     0.00000     0.00000  0.0
     62     51     52     53   5     0.00000     2.52295     0.00000  0.0
     62     51     52     54   5     0.00000     0.00000     3.07524  0.0
     50     51     62     63   5     4.74884    -0.63178     1.67360  0.0
     50     51     62     68   5     0.00000     0.00000     1.25520  0.0
     50     51     62     69   5     0.00000     0.00000     1.25520  0.0
     52     51     62     63   5    -8.00818    -1.52298     2.46438  0.0
     52     51     62     68   5     0.00000     0.00000    -0.94140  0.0
     52     51     62     69   5     0.00000     0.00000    -0.94140  0.0
     58     51     62     63   5     0.00000     0.00000     1.25520  0.0
     58     51     62     68   5     0.00000     0.00000     1.25520  0.0
     58     51     62     69   5     0.00000     0.00000     1.25520  0.0
     51     52     54     55   5    13.65239    24.43456     0.00000  0.0
     53     52     54     55   5     0.00000    25.10400     0.00000  0.0
     52     54     55     59   5     0.00000     0.00000     0.67362  0.0
     52     54     55     60   5     0.00000     0.00000     0.67362  0.0
     52     54     55     61   5     0.00000     0.00000     0.67362  0.0
     51     62     63     64   5    -8.00818    -1.52298     2.46438  0.0
     51     62     63     70   5     0.00000     0.00000     1.25520  0.0
     51     62     63     74   5     4.74884    -0.63178     1.67360  0.0
     68     62     63     64   5     0.00000     0.00000    -0.94140  0.0
     68     62     63     70   5     0.00000     0.00000     1.25520  0.0
     68     62     63     74   5     0.00000     0.00000     1.25520  0.0
     69     62     63     64   5     0.00000     0.00000    -0.94140  0.0
     69     62     63     70   5     0.00000     0.00000     1.25520  0.0
     69     62     63     74   5     0.00000     0.00000     1.25520  0.0
     62     63     64     65   5     0.00000     2.52295     0.00000  0.0
     62     63     64     66   5     0.00000     0.00000     3.07524  0.0
     70     63     64     65   5     0.00000     0.00000     0.00000  0.0
     70     63     64     66   5     0.00000     0.00000     0.00000  0.0
     74     63     64     65   5     0.00000     2.52295     0.00000  0.0
     74     63     64     66   5     0.00000     0.00000     3.07524  0.0
     62     63     74     75   5     4.74884    -0.63178     1.67360  0.0
     62     63     74     80   5     0.00000     0.00000     1.25520  0.0
     62     63     74     81   5     0.00000     0.00000     1.25520  0.0
     64     63     74     75   5    -8.00818    -1.52298     2.46438  0.0
     64     63     74     80   5     0.00000     0.00000    -0.94140  0.0
     64     63     74     81   5     0.00000     0.00000    -0.94140  0.0
     70     63     74     75   5     0.00000     0.00000     1.25520  0.0
     70     63     74     80   5     0.00000     0.00000     1.25520  0.0
     70     63     74     81   5     0.00000     0.00000     1.25520  0.0
     63     64     66     67   5    13.65239    24.43456     0.00000  0.0
     65     64     66     67   5     0.00000    25.10400     0.00000  0.0
     64     66     67     71   5     0.00000     0.00000     0.67362  0.0
     64     66     67     72   5     0.00000     0.00000     0.67362  0.0
     64     66     67     73   5     0.00000     0.00000     0.67362  0.0
     63     74     75     76   5    -8.00818    -1.52298     2.46438  0.0
     63     74     75     82   5     0.00000     0.00000     1.25520  0.0
     63     74     75     86   5     4.74884    -0.63178     1.67360  0.0
     80     74     75     76   5     0.00000     0.00000    -0.94140  0.0
     80     74     75     82   5     0.00000     0.00000     1.25520  0.0
     80     74     75     86   5     0.00000     0.00000     1.25520  0.0
     81     74     75     76   5     0.00000     0.00000    -0.94140  0.0
     81     74     75     82   5     0.00000     0.00000     1.25520  0.0
     81     74     75     86   5     0.00000     0.00000     1.25520  0.0
     74     75     76     77   5     0.00000     2.52295     0.00000  0.0
     74     75     76     78   5     0.00000     0.00000     3.07524  0.0
     82     75     76     77   5     0.00000     0.00000     0.00000  0.0
     82     75     76     78   5     0.00000     0.00000     0.00000  0.0
     86     75     76     77   5     0.00000     2.52295     0.00000  0.0
     86     75     76     78   5     0.00000     0.00000     3.07524  0.0
     74     75     86     87   5     4.74884    -0.63178     1.67360  0.0
     74     75     86     92   5     0.00000     0.00000     1.25520  0.0
     74     75     86     93   5     0.00000     0.00000     1.25520  0.0
     76     75     86     87   5    -8.00818    -1.52298     2.46438  0.0
     76     75     86     92   5     0.00000     0.00000    -0.94140  0.0
     76     75     86     93   5     0.00000     0.00000    -0.94140  0.0
     82     75     86     87   5     0.00000     0.00000     1.25520  0.0
     82     75     86     92   5     0.00000     0.00000     1.25520  0.0
     82     75     86     93   5     0.00000     0.00000     1.25520  0.0
     75     76     78     79   5    13.65239    24.43456     0.00000  0.0
     77     76     78     79   5     0.00000    25.10400     0.00000  0.0
     76     78     79     83   5     0.00000     0.00000     0.67362  0.0
     76     78     79     84   5     0.00000     0.00000     0.67362  0.0
     76     78     79     85   5     0.00000     0.00000     0.67362  0.0
     75     86     87     88   5    -8.00818    -1.52298     2.46438  0.0
     75     86     87     94   5     0.00000     0.00000     1.25520  0.0
     75     86     87     98   5     4.74884    -0.63178     1.67360  0.0
     92     86     87     88   5     0.00000     0.00000    -0.94140  0.0
     92     86     87     94   5     0.00000     0.00000     1.25520  0.0
     92     86     87     98   5     0.00000     0.00000     1.25520  0.0
     93     86     87     88   5     0.00000     0.00000    -0.94140  0.0
     93     86     87     94   5     0.00000     0.00000     1.25520  0.0
     93     86     87     98   5     0.00000     0.00000     1.25520  0.0
     86     87     88     89   5     0.00000     2.52295     0.00000  0.0
     86     87     88     90   5     0.00000     0.00000     3.07524  0.0
     94     87     88     89   5     0.00000     0.00000     0.00000  0.0
     94     87     88     90   5     0.00000     0.00000     0.00000  0.0
     98     87     88     89   5     0.00000     2.52295     0.00000  0.0
     98     87     88     90   5     0.00000     0.00000     3.07524  0.0
     86     87     98     99   5     4.74884    -0.63178     1.67360  0.0
     86     87     98    104   5     0.00000     0.00000     1.25520  0.0
     86     87     98    105   5     0.00000     0.00000     1.25520  0.0
     88     87     98     99   5    -8.00818    -1.52298     2.46438  0.0
     88     87     98    104   5     0.00000     0.00000    -0.94140  0.0
     88     87     98    105   5     0.00000     0.00000    -0.94140  0.0
     94     87     98     99   5     0.00000     0.00000     1.25520  0.0
     94     87     98    104   5     0.00000     0.00000     1.25520  0.0
     94     87     98    105   5     0.00000     0.00000     1.25520  0.0
     87     88     90     91   5    13.65239    24.43456     0.00000  0.0
     89     88     90     91   5     0.00000    25.10400     0.00000  0.0
     88     90     91     95   5     0.00000     0.00000     0.67362  0.0
     88     90     91     96   5     0.00000     0.00000     0.67362  0.0
     88     90     91     97   5     0.00000     0.00000     0.67362  0.0
     87     98     99    100   5    -8.00818    -1.52298     2.46438  0.0
     87     98     99    106   5     0.00000     0.00000     1.25520  0.0
     87     98     99    110   5     4.74884    -0.63178     1.67360  0.0
    104     98     99    100   5     0.00000     0.00000    -0.94140  0.0
    104     98     99    106   5     0.00000     0.00000     1.25520  0.0
    104     98     99    110   5     0.00000     0.00000     1.25520  0.0
    105     98     99    100   5     0.00000     0.00000    -0.94140  0.0
    105     98     99    106   5     0.00000     0.00000     1.25520  0.0
    105     98     99    110   5     0.00000     0.00000     1.25520  0.0
     98     99    100    101   5     0.00000     2.52295     0.00000  0.0
     98     99    100    102   5     0.00000     0.00000     3.07524  0.0
    106     99    100    101   5     0.00000     0.00000     0.00000  0.0
    106     99    100    102   5     0.00000     0.00000     0.00000  0.0
    110     99    100    101   5     0.00000     2.52295     0.00000  0.0
    110     99    100    102   5     0.00000     0.00000     3.07524  0.0
     98     99    110    111   5     4.74884    -0.63178     1.67360  0.0
     98     99    110    116   5     0.00000     0.00000     1.25520  0.0
     98     99    110    117   5     0.00000     0.00000     1.25520  0.0
    100     99    110    111   5    -8.00818    -1.52298     2.46438  0.0
    100     99    110    116   5     0.00000     0.00000    -0.94140  0.0
    100     99    110    117   5     0.00000     0.00000    -0.94140  0.0
    106     99    110    111   5     0.00000     0.00000     1.25520  0.0
    106     99    110    116   5     0.00000     0.00000     1.25520  0.0
    106     99    110    117   5     0.00000     0.00000     1.25520  0.0
     99    100    102    103   5    13.65239    24.43456     0.00000  0.0
    101    100    102    103   5     0.00000    25.10400     0.00000  0.0
    100    102    103    107   5     0.00000     0.00000     0.67362  0.0
    100    102    103    108   5     0.00000     0.00000     0.67362  0.0
    100    102    103    109   5     0.00000     0.00000     0.67362  0.0
     99    110    111    112   5    -8.00818    -1.52298     2.46438  0.0
     99    110    111    118   5     0.00000     0.00000     1.25520  0.0
     99    110    111    122   5     4.74884    -0.63178     1.67360  0.0
    116    110    111    112   5     0.00000     0.00000    -0.94140  0.0
    116    110    111    118   5     0.00000     0.00000     1.25520  0.0
    116    110    111    122   5     0.00000     0.00000     1.25520  0.0
    117    110    111    112   5     0.00000     0.00000    -0.94140  0.0
    117    110    111    118   5     0.00000     0.00000     1.25520  0.0
    117    110    111    122   5     0.00000     0.00000     1.25520  0.0
    110    111    112    113   5     0.00000     2.52295     0.00000  0.0
    110    111    112    114   5     0.00000     0.00000     3.07524  0.0
    118    111    112    113   5     0.00000     0.00000     0.00000  0.0
    118    111    112    114   5     0.00000     0.00000     0.00000  0.0
    122    111    112    113   5     0.00000     2.52295     0.00000  0.0
    122    111    112    114   5     0.00000     0.00000     3.07524  0.0
    110    111    122    123   5     4.74884    -0.63178     1.67360  0.0
    110    111    122    128   5     0.00000     0.00000     1.25520  0.0
    110    111    122    129   5     0.00000     0.00000     1.25520  0.0
    112    111    122    123   5    -8.00818    -1.52298     2.46438  0.0
    112    111    122    128   5     0.00000     0.00000    -0.94140  0.0
    112    111    122    129   5     0.00000     0.00000    -0.94140  0.0
    118    111    122    123   5     0.00000     0.00000     1.25520  0.0
    118    111    122    128   5     0.00000     0.00000     1.25520  0.0
    118    111    122    129   5     0.00000     0.00000     1.25520  0.0
    111    112    114    115   5    13.65239    24.43456     0.00000  0.0
    113    112    114    115   5     0.00000    25.10400     0.00000  0.0
    112    114    115    119   5     0.00000     0.00000     0.67362  0.0
    112    114    115    120   5     0.00000     0.00000     0.67362  0.0
    112    114    115    121   5     0.00000     0.00000     0.67362  0.0
    111    122    123    124   5    -8.00818    -1.52298     2.46438  0.0
    111    122    123    130   5     0.00000     0.00000     1.25520  0.0
    111    122    123    134   5     4.74884    -0.63178     1.67360  0.0
    128    122    123    124   5     0.00000     0.00000    -0.94140  0.0
    128    122    123    130   5     0.00000     0.00000     1.25520  0.0
    128    122    123    134   5     0.00000     0.00000     1.25520  0.0
    129    122    123    124   5     0.00000     0.00000    -0.94140  0.0
    129    122    123    130   5     0.00000     0.00000     1.25520  0.0
    129    122    123    134   5     0.00000     0.00000     1.25520  0.0
    122    123    124    125   5     0.00000     2.52295     0.00000  0.0
    122    123    124    126   5     0.00000     0.00000     3.07524  0.0
    130    123    124    125   5     0.00000     0.00000     0.00000  0.0
    130    123    124    126   5     0.00000     0.00000     0.00000  0.0
    134    123    124    125   5     0.00000     2.52295     0.00000  0.0
    134    123    124    126   5     0.00000     0.00000     3.07524  0.0
    122    123    134    135   5     4.74884    -0.63178     1.67360  0.0
    122    123    134    140   5     0.00000     0.00000     1.25520  0.0
    122    123    134    141   5     0.00000     0.00000     1.25520  0.0
    124    123    134    135   5    -8.00818    -1.52298     2.46438  0.0
    124    123    134    140   5     0.00000     0.00000    -0.94140  0.0
    124    123    134    141   5     0.00000     0.00000    -0.94140  0.0
    130    123    134    135   5     0.00000     0.00000     1.25520  0.0
    130    123    134    140   5     0.00000     0.00000     1.25520  0.0
    130    123    134    141   5     0.00000     0.00000     1.25520  0.0
    123    124    126    127   5    13.65239    24.43456     0.00000  0.0
    125    124    126    127   5     0.00000    25.10400     0.00000  0.0
    124    126    127    131   5     0.00000     0.00000     0.67362  0.0
    124    126    127    132   5     0.00000     0.00000     0.67362  0.0
    124    126    127    133   5     0.00000     0.00000     0.67362  0.0
    123    134    135    136   5    -8.00818    -1.52298     2.46438  0.0
    123    134    135    142   5     0.00000     0.00000     1.25520  0.0
    123    134    135    146   5     4.74884    -0.63178     1.67360  0.0
    140    134    135    136   5     0.00000     0.00000    -0.94140  0.0
    140    134    135    142   5     0.00000     0.00000     1.25520  0.0
    140    134    135    146   5     0.00000     0.00000     1.25520  0.0
    141    134    135    136   5     0.00000     0.00000    -0.94140  0.0
    141    134    135    142   5     0.00000     0.00000     1.25520  0.0
    141    134    135    146   5     0.00000     0.00000     1.25520  0.0
    134    135    136    137   5     0.00000     2.52295     0.00000  0.0
    134    135    136    138   5     0.00000     0.00000     3.07524  0.0
    142    135    136    137   5     0.00000     0.00000     0.00000  0.0
    142    135    136    138   5     0.00000     0.00000     0.00000  0.0
    146    135    136    137   5     0.00000     2.52295     0.00000  0.0
    146    135    136    138   5     0.00000     0.00000     3.07524  0.0
    134    135    146    147   5     4.74884    -0.63178     1.67360  0.0
    134    135    146    152   5     0.00000     0.00000     1.25520  0.0
    134    135    146    153   5     0.00000     0.00000     1.25520  0.0
    136    135    146    147   5    -8.00818    -1.52298     2.46438  0.0
    136    135    146    152   5     0.00000     0.00000    -0.94140  0.0
    136    135    146    153   5     0.00000     0.00000    -0.94140  0.0
    142    135    146    147   5     0.00000     0.00000     1.25520  0.0
    142    135    146    152   5     0.00000     0.00000     1.25520  0.0
    142    135    146    153   5     0.00000     0.00000     1.25520  0.0
    135    136    138    139   5    13.65239    24.43456     0.00000  0.0
    137    136    138    139   5     0.00000    25.10400     0.00000  0.0
    136    138    139    143   5     0.00000     0.00000     0.67362  0.0
    136    138    139    144   5     0.00000     0.00000     0.67362  0.0
    136    138    139    145   5     0.00000     0.00000     0.67362  0.0
    135    146    147    148   5    -8.00818    -1.52298     2.46438  0.0
    135    146    147    154   5     0.00000     0.00000     1.25520  0.0
    135    146    147    158   5     4.74884    -0.63178     1.67360  0.0
    152    146    147    148   5     0.00000     0.00000    -0.94140  0.0
    152    146    147    154   5     0.00000     0.00000     1.25520  0.0
    152    146    147    158   5     0.00000     0.00000     1.25520  0.0
    153    146    147    148   5     0.00000     0.00000    -0.94140  0.0
    153    146    147    154   5     0.00000     0.00000     1.25520  0.0
    153    146    147    158   5     0.00000     0.00000     1.25520  0.0
    146    147    148    149   5     0.00000     2.52295     0.00000  0.0
    146    147    148    150   5     0.00000     0.00000     3.07524  0.0
    154    147    148    149   5     0.00000     0.00000     0.00000  0.0
    154    147    148    150   5     0.00000     0.00000     0.00000  0.0
    158    147    148    149   5     0.00000     2.52295     0.00000  0.0
    158    147    148    150   5     0.00000     0.00000     3.07524  0.0
    146    147    158    159   5     4.74884    -0.63178     1.67360  0.0
    146    147    158    164   5     0.00000     0.00000     1.25520  0.0
    146    147    158    165   5     0.00000     0.00000     1.25520  0.0
    148    147    158    159   5    -8.00818    -1.52298     2.46438  0.0
    148    147    158    164   5     0.00000     0.00000    -0.94140  0.0
    148    147    158    165   5     0.00000     0.00000    -0.94140  0.0
    154    147    158    159   5     0.00000     0.00000     1.25520  0.0
    154    147    158    164   5     0.00000     0.00000     1.25520  0.0
    154    147    158    165   5     0.00000     0.00000     1.25520  0.0
    147    148    150    151   5    13.65239    24.43456     0.00000  0.0
    149    148    150    151   5     0.00000    25.10400     0.00000  0.0
    148    150    151    155   5     0.00000     0.00000     0.67362  0.0
    148    150    151    156   5     0.00000     0.00000     0.67362  0.0
    148    150    151    157   5     0.00000     0.00000     0.67362  0.0
    147    158    159    160   5    -8.00818    -1.52298     2.46438  0.0
    147    158    159    166   5     0.00000     0.00000     1.25520  0.0
    147    158    159    170   5     4.74884    -0.63178     1.67360  0.0
    164    158    159    160   5     0.00000     0.00000    -0.94140  0.0
    164    158    159    166   5     0.00000     0.00000     1.25520  0.0
    164    158    159    170   5     0.00000     0.00000     1.25520  0.0
    165    158    159    160   5     0.00000     0.00000    -0.94140  0.0
    165    158    159    166   5     0.00000     0.00000     1.25520  0.0
    165    158    159    170   5     0.00000     0.00000     1.25520  0.0
    158    159    160    161   5     0.00000     2.52295     0.00000  0.0
    158    159    160    162   5     0.00000     0.00000     3.07524  0.0
    166    159    160    161   5     0.00000     0.00000     0.00000  0.0
    166    159    160    162   5     0.00000     0.00000     0.00000  0.0
    170    159    160    161   5     0.00000     2.52295     0.00000  0.0
    170    159    160    162   5     0.00000     0.00000     3.07524  0.0
    158    159    170    171   5     4.74884    -0.63178     1.67360  0.0
    158    159    170    176   5     0.00000     0.00000     1.25520  0.0
    158    159    170    177   5     0.00000     0.00000     1.25520  0.0
    160    159    170    171   5    -8.00818    -1.52298     2.46438  0.0
    160    159    170    176   5     0.00000     0.00000    -0.94140  0.0
    160    159    170    177   5     0.00000     0.00000    -0.94140  0.0
    166    159    170    171   5     0.00000     0.00000     1.25520  0.0
    166    159    170    176   5     0.00000     0.00000     1.25520  0.0
    166    159    170    177   5     0.00000     0.00000     1.25520  0.0
    159    160    162    163   5    13.65239    24.43456     0.00000  0.0
    161    160    162    163   5     0.00000    25.10400     0.00000  0.0
    160    162    163    167   5     0.00000     0.00000     0.67362  0.0
    160    162    163    168   5     0.00000     0.00000     0.67362  0.0
    160    162    163    169   5     0.00000     0.00000     0.67362  0.0
    159    170    171    172   5    -8.00818    -1.52298     2.46438  0.0
    159    170    171    178   5     0.00000     0.00000     1.25520  0.0
    159    170    171    182   5     4.74884    -0.63178     1.67360  0.0
    176    170    171    172   5     0.00000     0.00000    -0.94140  0.0
    176    170    171    178   5     0.00000     0.00000     1.25520  0.0
    176    170    171    182   5     0.00000     0.00000     1.25520  0.0
    177    170    171    172   5     0.00000     0.00000    -0.94140  0.0
    177    170    171    178   5     0.00000     0.00000     1.25520  0.0
    177    170    171    182   5     0.00000     0.00000     1.25520  0.0
    170    171    172    173   5     0.00000     2.52295     0.00000  0.0
    170    171    172    174   5     0.00000     0.00000     3.07524  0.0
    178    171    172    173   5     0.00000     0.00000     0.00000  0.0
    178    171    172    174   5     0.00000     0.00000     0.00000  0.0
    182    171    172    173   5     0.00000     2.52295     0.00000  0.0
    182    171    172    174   5     0.00000     0.00000     3.07524  0.0
    170    171    182    183   5     4.74884    -0.63178     1.67360  0.0
    170    171    182    188   5     0.00000     0.00000     1.25520  0.0
    170    171    182    189   5     0.00000     0.00000     1.25520  0.0
    172    171    182    183   5    -8.00818    -1.52298     2.46438  0.0
    172    171    182    188   5     0.00000     0.00000    -0.94140  0.0
    172    171    182    189   5     0.00000     0.00000    -0.94140  0.0
    178    171    182    183   5     0.00000     0.00000     1.25520  0.0
    178    171    182    188   5     0.00000     0.00000     1.25520  0.0
    178    171    182    189   5     0.00000     0.00000     1.25520  0.0
    171    172    174    175   5    13.65239    24.43456     0.00000  0.0
    173    172    174    175   5     0.00000    25.10400     0.00000  0.0
    172    174    175    179   5     0.00000     0.00000     0.67362  0.0
    172    174    175    180   5     0.00000     0.00000     0.67362  0.0
    172    174    175    181   5     0.00000     0.00000     0.67362  0.0
    171    182    183    184   5    -8.00818    -1.52298     2.46438  0.0
    171    182    183    190   5     0.00000     0.00000     1.25520  0.0
    171    182    183    194   5     4.74884    -0.63178     1.67360  0.0
    188    182    183    184   5     0.00000     0.00000    -0.94140  0.0
    188    182    183    190   5     0.00000     0.00000     1.25520  0.0
    188    182    183    194   5     0.00000     0.00000     1.25520  0.0
    189    182    183    184   5     0.00000     0.00000    -0.94140  0.0
    189    182    183    190   5     0.00000     0.00000     1.25520  0.0
    189    182    183    194   5     0.00000     0.00000     1.25520  0.0
    182    183    184    185   5     0.00000     2.52295     0.00000  0.0
    182    183    184    186   5     0.00000     0.00000     3.07524  0.0
    190    183    184    185   5     0.00000     0.00000     0.00000  0.0
    190    183    184    186   5     0.00000     0.00000     0.00000  0.0
    194    183    184    185   5     0.00000     2.52295     0.00000  0.0
    194    183    184    186   5     0.00000     0.00000     3.07524  0.0
    182    183    194    195   5     4.74884    -0.63178     1.67360  0.0
    182    183    194    200   5     0.00000     0.00000     1.25520  0.0
    182    183    194    201   5     0.00000     0.00000     1.25520  0.0
    184    183    194    195   5    -8.00818    -1.52298     2.46438  0.0
    184    183    194    200   5     0.00000     0.00000    -0.94140  0.0
    184    183    194    201   5     0.00000     0.00000    -0.94140  0.0
    190    183    194    195   5     0.00000     0.00000     1.25520  0.0
    190    183    194    200   5     0.00000     0.00000     1.25520  0.0
    190    183    194    201   5     0.00000     0.00000     1.25520  0.0
    183    184    186    187   5    13.65239    24.43456     0.00000  0.0
    185    184    186    187   5     0.00000    25.10400     0.00000  0.0
    184    186    187    191   5     0.00000     0.00000     0.67362  0.0
    184    186    187    192   5     0.00000     0.00000     0.67362  0.0
    184    186    187    193   5     0.00000     0.00000     0.67362  0.0
    183    194    195    196   5    -8.00818    -1.52298     2.46438  0.0
    183    194    195    202   5     0.00000     0.00000     1.25520  0.0
    183    194    195    206   5     4.74884    -0.63178     1.67360  0.0
    200    194    195    196   5     0.00000     0.00000    -0.94140  0.0
    200    194    195    202   5     0.00000     0.00000     1.25520  0.0
    200    194    195    206   5     0.00000     0.00000     1.25520  0.0
    201    194    195    196   5     0.00000     0.00000    -0.94140  0.0
    201    194    195    202   5     0.00000     0.00000     1.25520  0.0
    201    194    195    206   5     0.00000     0.00000     1.25520  0.0
    194    195    196    197   5     0.00000     2.52295     0.00000  0.0
    194    195    196    198   5     0.00000     0.00000     3.07524  0.0
    202    195    196    197   5     0.00000     0.00000     0.00000  0.0
    202    195    196    198   5     0.00000     0.00000     0.00000  0.0
    206    195    196    197   5     0.00000     2.52295     0.00000  0.0
    206    195    196    198   5     0.00000     0.00000     3.07524  0.0
    194    195    206    207   5     4.74884    -0.63178     1.67360  0.0
    194    195    206    212   5     0.00000     0.00000     1.25520  0.0
    194    195    206    213   5     0.00000     0.00000     1.25520  0.0
    196    195    206    207   5    -8.00818    -1.52298     2.46438  0.0
    196    195    206    212   5     0.00000     0.00000    -0.94140  0.0
    196    195    206    213   5     0.00000     0.00000    -0.94140  0.0
    202    195    206    207   5     0.00000     0.00000     1.25520  0.0
    202    195    206    212   5     0.00000     0.00000     1.25520  0.0
    202    195    206    213   5     0.00000     0.00000     1.25520  0.0
    195    196    198    199   5    13.65239    24.43456     0.00000  0.0
    197    196    198    199   5     0.00000    25.10400     0.00000  0.0
    196    198    199    203   5     0.00000     0.00000     0.67362  0.0
    196    198    199    204   5     0.00000     0.00000     0.67362  0.0
    196    198    199    205   5     0.00000     0.00000     0.67362  0.0
    195    206    207    208   5    -8.00818    -1.52298     2.46438  0.0
    195    206    207    214   5     0.00000     0.00000     1.25520  0.0
    195    206    207    218   5     4.74884    -0.63178     1.67360  0.0
    212    206    207    208   5     0.00000     0.00000    -0.94140  0.0
    212    206    207    214   5     0.00000     0.00000     1.25520  0.0
    212    206    207    218   5     0.00000     0.00000     1.25520  0.0
    213    206    207    208   5     0.00000     0.00000    -0.94140  0.0
    213    206    207    214   5     0.00000     0.00000     1.25520  0.0
    213    206    207    218   5     0.00000     0.00000     1.25520  0.0
    206    207    208    209   5     0.00000     2.52295     0.00000  0.0
    206    207    208    210   5     0.00000     0.00000     3.07524  0.0
    214    207    208    209   5     0.00000     0.00000     0.00000  0.0
    214    207    208    210   5     0.00000     0.00000     0.00000  0.0
    218    207    208    209   5     0.00000     2.52295     0.00000  0.0
    218    207    208    210   5     0.00000     0.00000     3.07524  0.0
    206    207    218    219   5     4.74884    -0.63178     1.67360  0.0
    206    207    218    224   5     0.00000     0.00000     1.25520  0.0
    206    207    218    225   5     0.00000     0.00000     1.25520  0.0
    208    207    218    219   5    -8.00818    -1.52298     2.46438  0.0
    208    207    218    224   5     0.00000     0.00000    -0.94140  0.0
    208    207    218    225   5     0.00000     0.00000    -0.94140  0.0
    214    207    218    219   5     0.00000     0.00000     1.25520  0.0
    214    207    218    224   5     0.00000     0.00000     1.25520  0.0
    214    207    218    225   5     0.00000     0.00000     1.25520  0.0
    207    208    210    211   5    13.65239    24.43456     0.00000  0.0
    209    208    210    211   5     0.00000    25.10400     0.00000  0.0
    208    210    211    215   5     0.00000     0.00000     0.67362  0.0
    208    210    211    216   5     0.00000     0.00000     0.67362  0.0
    208    210    211    217   5     0.00000     0.00000     0.67362  0.0
    207    218    219    220   5    -8.00818    -1.52298     2.46438  0.0
    207    218    219    226   5     0.00000     0.00000     1.25520  0.0
    207    218    219    230   5     4.74884    -0.63178     1.67360  0.0
    224    218    219    220   5     0.00000     0.00000    -0.94140  0.0
    224    218    219    226   5     0.00000     0.00000     1.25520  0.0
    224    218    219    230   5     0.00000     0.00000     1.25520  0.0
    225    218    219    220   5     0.00000     0.00000    -0.94140  0.0
    225    218    219    226   5     0.00000     0.00000     1.25520  0.0
    225    218    219    230   5     0.00000     0.00000     1.25520  0.0
    218    219    220    221   5     0.00000     2.52295     0.00000  0.0
    218    219    220    222   5     0.00000     0.00000     3.07524  0.0
    226    219    220    221   5     0.00000     0.00000     0.00000  0.0
    226    219    220    222   5     0.00000     0.00000     0.00000  0.0
    230    219    220    221   5     0.00000     2.52295     0.00000  0.0
    230    219    220    222   5     0.00000     0.00000     3.07524  0.0
    218    219    230    231   5     4.74884    -0.63178     1.67360  0.0
    218    219    230    236   5     0.00000     0.00000     1.25520  0.0
    218    219    230    237   5     0.00000     0.00000     1.25520  0.0
    220    219    230    231   5    -8.00818    -1.52298     2.46438  0.0
    220    219    230    236   5     0.00000     0.00000    -0.94140  0.0
    220    219    230    237   5     0.00000     0.00000    -0.94140  0.0
    226    219    230    231   5     0.00000     0.00000     1.25520  0.0
    226    219    230    236   5     0.00000     0.00000     1.25520  0.0
    226    219    230    237   5     0.00000     0.00000     1.25520  0.0
    219    220    222    223   5    13.65239    24.43456     0.00000  0.0
    221    220    222    223   5     0.00000    25.10400     0.00000  0.0
    220    222    223    227   5     0.00000     0.00000     0.67362  0.0
    220    222    223    228   5     0.00000     0.00000     0.67362  0.0
    220    222    223    229   5     0.00000     0.00000     0.67362  0.0
    219    230    231    232   5    -8.00818    -1.52298     2.46438  0.0
    219    230    231    238   5     0.00000     0.00000     1.25520  0.0
    219    230    231    242   5     0.00000     0.00000     1.25520  0.0
    236    230    231    232   5     0.00000     0.00000    -0.94140  0.0
    236    230    231    238   5     0.00000     0.00000     1.25520  0.0
    236    230    231    242   5     0.00000     0.00000     1.25520  0.0
    237    230    231    232   5     0.00000     0.00000    -0.94140  0.0
    237    230    231    238   5     0.00000     0.00000     1.25520  0.0
    237    230    231    242   5     0.00000     0.00000     1.25520  0.0
    230    231    232    233   5     0.00000     2.52295     0.00000  0.0
    230    231    232    234   5     0.00000     0.00000     3.07524  0.0
    238    231    232    233   5     0.00000     0.00000     0.00000  0.0
    238    231    232    234   5     0.00000     0.00000     0.00000  0.0
    242    231    232    233   5     0.00000     0.00000     0.00000  0.0
    242    231    232    234   5     0.00000     0.00000     0.00000  0.0
    231    232    234    235   5    13.65239    24.43456     0.00000  0.0
    233    232    234    235   5     0.00000    25.10400     0.00000  0.0
    232    234    235    239   5     0.00000     0.00000     0.67362  0.0
    232    234    235    240   5     0.00000     0.00000     0.67362  0.0
    232    234    235    241   5     0.00000     0.00000     0.67362  0.0

[ dihedrals ]
; Improper dihedrals
; h   i   j   k   funct
      2      4      3      5   5     0.00000    87.86400     0.00000  0.0
     15     17     16     18   5     0.00000    87.86400     0.00000  0.0
     27     29     28     30   5     0.00000    87.86400     0.00000  0.0
     39     41     40     42   5     0.00000    87.86400     0.00000  0.0
     51     53     52     54   5     0.00000    87.86400     0.00000  0.0
     63     65     64     66   5     0.00000    87.86400     0.00000  0.0
     75     77     76     78   5     0.00000    87.86400     0.00000  0.0
     87     89     88     90   5     0.00000    87.86400     0.00000  0.0
     99    101    100    102   5     0.00000    87.86400     0.00000  0.0
    111    113    112    114   5     0.00000    87.86400     0.00000  0.0
    123    125    124    126   5     0.00000    87.86400     0.00000  0.0
    135    137    136    138   5     0.00000    87.86400     0.00000  0.0
    147    149    148    150   5     0.00000    87.86400     0.00000  0.0
    159    161    160    162   5     0.00000    87.86400     0.00000  0.0
    171    173    172    174   5     0.00000    87.86400     0.00000  0.0
    183    185    184    186   5     0.00000    87.86400     0.00000  0.0
    195    197    196    198   5     0.00000    87.86400     0.00000  0.0
    207    209    208    210   5     0.00000    87.86400     0.00000  0.0
    219    221    220    222   5     0.00000    87.86400     0.00000  0.0
    231    233    232    234   5     0.00000    87.86400     0.00000  0.0
