;
; Gromacs include topology (itp) file.
; For Molecular Group XYZ
; Force field scheme: opls2005
; Produced from DL_FIELD v4.11
;


[ moleculetype ]
; name    nrexcl
XYZ    3

[ atoms ]
; nr   type   resnr   residu    atom    cgnr    charge    mass
    1       CYA    1  MOL      C1     1  -0.1200000   12.0115
    2       CYA    1  MOL      C2     2  -0.1200000   12.0115
    3       CYA    1  MOL      C3     3  -0.0600000   12.0115
    4        CT    1  MOL      C4     4  -0.1800000   12.0115
    5       CYA    1  MOL      C5     5  -0.1200000   12.0115
    6       CYA    1  MOL      C6     6  -0.1200000   12.0115
    7       CYA    1  MOL      C7     7  -0.0600000   12.0115
    8        CT    1  MOL      C8     8   0.1900000   12.0115
    9       OES    1  MOL      O9     9  -0.3300000   15.9994
   10       CO4    1  MOL     C10    10   0.6250000   12.0115
   11         O    1  MOL     O11    11  -0.4300000   15.9994
   12        CA    1  MOL     C12    12  -0.1150000   12.0115
   13        CA    1  MOL     C13    13  -0.1150000   12.0115
   14        CA    1  MOL     C14    14  -0.1150000   12.0115
   15        CA    1  MOL     C15    15  -0.1150000   12.0115
   16       CO4    1  MOL     C16    16   0.6250000   12.0115
   17         O    1  MOL     O17    17  -0.4300000   15.9994
   18       OES    1  MOL     O18    18  -0.3300000   15.9994
   19        CA    1  MOL     C19    19  -0.1150000   12.0115
   20        CA    1  MOL     C20    20  -0.1150000   12.0115
   21        HC    1  MOL     H21    21   0.0600000    1.0080
   22        HC    1  MOL     H22    22   0.0600000    1.0080
   23        HC    1  MOL     H23    23   0.0600000    1.0080
   24        HC    1  MOL     H24    24   0.0600000    1.0080
   25        HC    1  MOL     H25    25   0.0600000    1.0080
   26        HC    1  MOL     H26    26   0.0600000    1.0080
   27        HC    1  MOL     H27    27   0.0600000    1.0080
   28        HC    1  MOL     H28    28   0.0600000    1.0080
   29        HC    1  MOL     H29    29   0.0600000    1.0080
   30        HC    1  MOL     H30    30   0.0600000    1.0080
   31        HC    1  MOL     H31    31   0.0600000    1.0080
   32        HC    1  MOL     H32    32   0.0600000    1.0080
   33       HAE    1  MOL     H33    33   0.0300000    1.0080
   34       HAE    1  MOL     H34    34   0.0300000    1.0080
   35        HA    1  MOL     H35    35   0.1150000    1.0080
   36        HA    1  MOL     H36    36   0.1150000    1.0080
   37        HA    1  MOL     H37    37   0.1150000    1.0080
   38        HA    1  MOL     H38    38   0.1150000    1.0080
   39        HC    1  MOL     H39    39   0.0600000    1.0080
   40       CYA    1  MOL     C40    40  -0.1200000   12.0115
   41       CYA    1  MOL     C41    41  -0.1200000   12.0115
   42       CYA    1  MOL     C42    42  -0.0600000   12.0115
   43        CT    1  MOL     C43    43   0.1900000   12.0115
   44       CYA    1  MOL     C44    44  -0.1200000   12.0115
   45       CYA    1  MOL     C45    45  -0.1200000   12.0115
   46       CYA    1  MOL     C46    46  -0.0600000   12.0115
   47        CT    1  MOL     C47    47   0.1900000   12.0115
   48       OES    1  MOL     O48    48  -0.3300000   15.9994
   49       CO4    1  MOL     C49    49   0.6250000   12.0115
   50         O    1  MOL     O50    50  -0.4300000   15.9994
   51        CA    1  MOL     C51    51  -0.1150000   12.0115
   52        CA    1  MOL     C52    52  -0.1150000   12.0115
   53        CA    1  MOL     C53    53  -0.1150000   12.0115
   54        CA    1  MOL     C54    54  -0.1150000   12.0115
   55       CO4    1  MOL     C55    55   0.6250000   12.0115
   56         O    1  MOL     O56    56  -0.4300000   15.9994
   57       OES    1  MOL     O57    57  -0.3300000   15.9994
   58        CA    1  MOL     C58    58  -0.1150000   12.0115
   59        CA    1  MOL     C59    59  -0.1150000   12.0115
   60        HC    1  MOL     H60    60   0.0600000    1.0080
   61        HC    1  MOL     H61    61   0.0600000    1.0080
   62        HC    1  MOL     H62    62   0.0600000    1.0080
   63        HC    1  MOL     H63    63   0.0600000    1.0080
   64        HC    1  MOL     H64    64   0.0600000    1.0080
   65       HAE    1  MOL     H65    65   0.0300000    1.0080
   66       HAE    1  MOL     H66    66   0.0300000    1.0080
   67        HC    1  MOL     H67    67   0.0600000    1.0080
   68        HC    1  MOL     H68    68   0.0600000    1.0080
   69        HC    1  MOL     H69    69   0.0600000    1.0080
   70        HC    1  MOL     H70    70   0.0600000    1.0080
   71        HC    1  MOL     H71    71   0.0600000    1.0080
   72       HAE    1  MOL     H72    72   0.0300000    1.0080
   73       HAE    1  MOL     H73    73   0.0300000    1.0080
   74        HA    1  MOL     H74    74   0.1150000    1.0080
   75        HA    1  MOL     H75    75   0.1150000    1.0080
   76        HA    1  MOL     H76    76   0.1150000    1.0080
   77        HA    1  MOL     H77    77   0.1150000    1.0080
   78       CYA    1  MOL     C78    78  -0.1200000   12.0115
   79       CYA    1  MOL     C79    79  -0.1200000   12.0115
   80       CYA    1  MOL     C80    80  -0.0600000   12.0115
   81        CT    1  MOL     C81    81   0.1900000   12.0115
   82       CYA    1  MOL     C82    82  -0.1200000   12.0115
   83       CYA    1  MOL     C83    83  -0.1200000   12.0115
   84       CYA    1  MOL     C84    84  -0.0600000   12.0115
   85        CT    1  MOL     C85    85   0.1900000   12.0115
   86       OES    1  MOL     O86    86  -0.3300000   15.9994
   87       CO4    1  MOL     C87    87   0.6250000   12.0115
   88         O    1  MOL     O88    88  -0.4300000   15.9994
   89        CA    1  MOL     C89    89  -0.1150000   12.0115
   90        CA    1  MOL     C90    90  -0.1150000   12.0115
   91        CA    1  MOL     C91    91  -0.1150000   12.0115
   92        CA    1  MOL     C92    92  -0.1150000   12.0115
   93       CO4    1  MOL     C93    93   0.6250000   12.0115
   94         O    1  MOL     O94    94  -0.4300000   15.9994
   95       OES    1  MOL     O95    95  -0.3300000   15.9994
   96        CA    1  MOL     C96    96  -0.1150000   12.0115
   97        CA    1  MOL     C97    97  -0.1150000   12.0115
   98        HC    1  MOL     H98    98   0.0600000    1.0080
   99        HC    1  MOL     H99    99   0.0600000    1.0080
  100        HC    1  MOL    H100   100   0.0600000    1.0080
  101        HC    1  MOL    H101   101   0.0600000    1.0080
  102        HC    1  MOL    H102   102   0.0600000    1.0080
  103       HAE    1  MOL    H103   103   0.0300000    1.0080
  104       HAE    1  MOL    H104   104   0.0300000    1.0080
  105        HC    1  MOL    H105   105   0.0600000    1.0080
  106        HC    1  MOL    H106   106   0.0600000    1.0080
  107        HC    1  MOL    H107   107   0.0600000    1.0080
  108        HC    1  MOL    H108   108   0.0600000    1.0080
  109        HC    1  MOL    H109   109   0.0600000    1.0080
  110       HAE    1  MOL    H110   110   0.0300000    1.0080
  111       HAE    1  MOL    H111   111   0.0300000    1.0080
  112        HA    1  MOL    H112   112   0.1150000    1.0080
  113        HA    1  MOL    H113   113   0.1150000    1.0080
  114        HA    1  MOL    H114   114   0.1150000    1.0080
  115        HA    1  MOL    H115   115   0.1150000    1.0080
  116       CYA    1  MOL    C116   116  -0.1200000   12.0115
  117       CYA    1  MOL    C117   117  -0.1200000   12.0115
  118       CYA    1  MOL    C118   118  -0.0600000   12.0115
  119        CT    1  MOL    C119   119   0.1900000   12.0115
  120       CYA    1  MOL    C120   120  -0.1200000   12.0115
  121       CYA    1  MOL    C121   121  -0.1200000   12.0115
  122       CYA    1  MOL    C122   122  -0.0600000   12.0115
  123        CT    1  MOL    C123   123   0.1900000   12.0115
  124       OES    1  MOL    O124   124  -0.3300000   15.9994
  125       CO4    1  MOL    C125   125   0.6250000   12.0115
  126         O    1  MOL    O126   126  -0.4300000   15.9994
  127        CA    1  MOL    C127   127  -0.1150000   12.0115
  128        CA    1  MOL    C128   128  -0.1150000   12.0115
  129        CA    1  MOL    C129   129  -0.1150000   12.0115
  130        CA    1  MOL    C130   130  -0.1150000   12.0115
  131       CO4    1  MOL    C131   131   0.6250000   12.0115
  132         O    1  MOL    O132   132  -0.4300000   15.9994
  133       OES    1  MOL    O133   133  -0.3300000   15.9994
  134        CA    1  MOL    C134   134  -0.1150000   12.0115
  135        CA    1  MOL    C135   135  -0.1150000   12.0115
  136        HC    1  MOL    H136   136   0.0600000    1.0080
  137        HC    1  MOL    H137   137   0.0600000    1.0080
  138        HC    1  MOL    H138   138   0.0600000    1.0080
  139        HC    1  MOL    H139   139   0.0600000    1.0080
  140        HC    1  MOL    H140   140   0.0600000    1.0080
  141       HAE    1  MOL    H141   141   0.0300000    1.0080
  142       HAE    1  MOL    H142   142   0.0300000    1.0080
  143        HC    1  MOL    H143   143   0.0600000    1.0080
  144        HC    1  MOL    H144   144   0.0600000    1.0080
  145        HC    1  MOL    H145   145   0.0600000    1.0080
  146        HC    1  MOL    H146   146   0.0600000    1.0080
  147        HC    1  MOL    H147   147   0.0600000    1.0080
  148       HAE    1  MOL    H148   148   0.0300000    1.0080
  149       HAE    1  MOL    H149   149   0.0300000    1.0080
  150        HA    1  MOL    H150   150   0.1150000    1.0080
  151        HA    1  MOL    H151   151   0.1150000    1.0080
  152        HA    1  MOL    H152   152   0.1150000    1.0080
  153        HA    1  MOL    H153   153   0.1150000    1.0080
  154       CYA    1  MOL    C154   154  -0.1200000   12.0115
  155       CYA    1  MOL    C155   155  -0.1200000   12.0115
  156       CYA    1  MOL    C156   156  -0.0600000   12.0115
  157        CT    1  MOL    C157   157   0.1900000   12.0115
  158       CYA    1  MOL    C158   158  -0.1200000   12.0115
  159       CYA    1  MOL    C159   159  -0.1200000   12.0115
  160       CYA    1  MOL    C160   160  -0.0600000   12.0115
  161        CT    1  MOL    C161   161   0.1900000   12.0115
  162       OES    1  MOL    O162   162  -0.3300000   15.9994
  163       CO4    1  MOL    C163   163   0.6250000   12.0115
  164         O    1  MOL    O164   164  -0.4300000   15.9994
  165        CA    1  MOL    C165   165  -0.1150000   12.0115
  166        CA    1  MOL    C166   166  -0.1150000   12.0115
  167        CA    1  MOL    C167   167  -0.1150000   12.0115
  168        CA    1  MOL    C168   168  -0.1150000   12.0115
  169       CO4    1  MOL    C169   169   0.6250000   12.0115
  170         O    1  MOL    O170   170  -0.4300000   15.9994
  171       OES    1  MOL    O171   171  -0.3300000   15.9994
  172        CA    1  MOL    C172   172  -0.1150000   12.0115
  173        CA    1  MOL    C173   173  -0.1150000   12.0115
  174        HC    1  MOL    H174   174   0.0600000    1.0080
  175        HC    1  MOL    H175   175   0.0600000    1.0080
  176        HC    1  MOL    H176   176   0.0600000    1.0080
  177        HC    1  MOL    H177   177   0.0600000    1.0080
  178        HC    1  MOL    H178   178   0.0600000    1.0080
  179       HAE    1  MOL    H179   179   0.0300000    1.0080
  180       HAE    1  MOL    H180   180   0.0300000    1.0080
  181        HC    1  MOL    H181   181   0.0600000    1.0080
  182        HC    1  MOL    H182   182   0.0600000    1.0080
  183        HC    1  MOL    H183   183   0.0600000    1.0080
  184        HC    1  MOL    H184   184   0.0600000    1.0080
  185        HC    1  MOL    H185   185   0.0600000    1.0080
  186       HAE    1  MOL    H186   186   0.0300000    1.0080
  187       HAE    1  MOL    H187   187   0.0300000    1.0080
  188        HA    1  MOL    H188   188   0.1150000    1.0080
  189        HA    1  MOL    H189   189   0.1150000    1.0080
  190        HA    1  MOL    H190   190   0.1150000    1.0080
  191        HA    1  MOL    H191   191   0.1150000    1.0080
  192       CYA    1  MOL    C192   192  -0.1200000   12.0115
  193       CYA    1  MOL    C193   193  -0.1200000   12.0115
  194       CYA    1  MOL    C194   194  -0.0600000   12.0115
  195        CT    1  MOL    C195   195   0.1900000   12.0115
  196       CYA    1  MOL    C196   196  -0.1200000   12.0115
  197       CYA    1  MOL    C197   197  -0.1200000   12.0115
  198       CYA    1  MOL    C198   198  -0.0600000   12.0115
  199        CT    1  MOL    C199   199   0.1900000   12.0115
  200       OES    1  MOL    O200   200  -0.3300000   15.9994
  201       CO4    1  MOL    C201   201   0.6250000   12.0115
  202         O    1  MOL    O202   202  -0.4300000   15.9994
  203        CA    1  MOL    C203   203  -0.1150000   12.0115
  204        CA    1  MOL    C204   204  -0.1150000   12.0115
  205        CA    1  MOL    C205   205  -0.1150000   12.0115
  206        CA    1  MOL    C206   206  -0.1150000   12.0115
  207       CO4    1  MOL    C207   207   0.6250000   12.0115
  208         O    1  MOL    O208   208  -0.4300000   15.9994
  209       OES    1  MOL    O209   209  -0.3300000   15.9994
  210        CA    1  MOL    C210   210  -0.1150000   12.0115
  211        CA    1  MOL    C211   211  -0.1150000   12.0115
  212        HC    1  MOL    H212   212   0.0600000    1.0080
  213        HC    1  MOL    H213   213   0.0600000    1.0080
  214        HC    1  MOL    H214   214   0.0600000    1.0080
  215        HC    1  MOL    H215   215   0.0600000    1.0080
  216        HC    1  MOL    H216   216   0.0600000    1.0080
  217       HAE    1  MOL    H217   217   0.0300000    1.0080
  218       HAE    1  MOL    H218   218   0.0300000    1.0080
  219        HC    1  MOL    H219   219   0.0600000    1.0080
  220        HC    1  MOL    H220   220   0.0600000    1.0080
  221        HC    1  MOL    H221   221   0.0600000    1.0080
  222        HC    1  MOL    H222   222   0.0600000    1.0080
  223        HC    1  MOL    H223   223   0.0600000    1.0080
  224       HAE    1  MOL    H224   224   0.0300000    1.0080
  225       HAE    1  MOL    H225   225   0.0300000    1.0080
  226        HA    1  MOL    H226   226   0.1150000    1.0080
  227        HA    1  MOL    H227   227   0.1150000    1.0080
  228        HA    1  MOL    H228   228   0.1150000    1.0080
  229        HA    1  MOL    H229   229   0.1150000    1.0080
  230       CYA    1  MOL    C230   230  -0.1200000   12.0115
  231       CYA    1  MOL    C231   231  -0.1200000   12.0115
  232       CYA    1  MOL    C232   232  -0.0600000   12.0115
  233        CT    1  MOL    C233   233   0.1900000   12.0115
  234       CYA    1  MOL    C234   234  -0.1200000   12.0115
  235       CYA    1  MOL    C235   235  -0.1200000   12.0115
  236       CYA    1  MOL    C236   236  -0.0600000   12.0115
  237        CT    1  MOL    C237   237   0.1900000   12.0115
  238       OES    1  MOL    O238   238  -0.3300000   15.9994
  239       CO4    1  MOL    C239   239   0.6250000   12.0115
  240         O    1  MOL    O240   240  -0.4300000   15.9994
  241        CA    1  MOL    C241   241  -0.1150000   12.0115
  242        CA    1  MOL    C242   242  -0.1150000   12.0115
  243        CA    1  MOL    C243   243  -0.1150000   12.0115
  244        CA    1  MOL    C244   244  -0.1150000   12.0115
  245       CO4    1  MOL    C245   245   0.6250000   12.0115
  246         O    1  MOL    O246   246  -0.4300000   15.9994
  247       OES    1  MOL    O247   247  -0.3300000   15.9994
  248        CA    1  MOL    C248   248  -0.1150000   12.0115
  249        CA    1  MOL    C249   249  -0.1150000   12.0115
  250        HC    1  MOL    H250   250   0.0600000    1.0080
  251        HC    1  MOL    H251   251   0.0600000    1.0080
  252        HC    1  MOL    H252   252   0.0600000    1.0080
  253        HC    1  MOL    H253   253   0.0600000    1.0080
  254        HC    1  MOL    H254   254   0.0600000    1.0080
  255       HAE    1  MOL    H255   255   0.0300000    1.0080
  256       HAE    1  MOL    H256   256   0.0300000    1.0080
  257        HC    1  MOL    H257   257   0.0600000    1.0080
  258        HC    1  MOL    H258   258   0.0600000    1.0080
  259        HC    1  MOL    H259   259   0.0600000    1.0080
  260        HC    1  MOL    H260   260   0.0600000    1.0080
  261        HC    1  MOL    H261   261   0.0600000    1.0080
  262       HAE    1  MOL    H262   262   0.0300000    1.0080
  263       HAE    1  MOL    H263   263   0.0300000    1.0080
  264        HA    1  MOL    H264   264   0.1150000    1.0080
  265        HA    1  MOL    H265   265   0.1150000    1.0080
  266        HA    1  MOL    H266   266   0.1150000    1.0080
  267        HA    1  MOL    H267   267   0.1150000    1.0080
  268       CYA    1  MOL    C268   268  -0.1200000   12.0115
  269       CYA    1  MOL    C269   269  -0.1200000   12.0115
  270       CYA    1  MOL    C270   270  -0.0600000   12.0115
  271        CT    1  MOL    C271   271   0.1900000   12.0115
  272       CYA    1  MOL    C272   272  -0.1200000   12.0115
  273       CYA    1  MOL    C273   273  -0.1200000   12.0115
  274       CYA    1  MOL    C274   274  -0.0600000   12.0115
  275        CT    1  MOL    C275   275   0.1900000   12.0115
  276       OES    1  MOL    O276   276  -0.3300000   15.9994
  277       CO4    1  MOL    C277   277   0.6250000   12.0115
  278         O    1  MOL    O278   278  -0.4300000   15.9994
  279        CA    1  MOL    C279   279  -0.1150000   12.0115
  280        CA    1  MOL    C280   280  -0.1150000   12.0115
  281        CA    1  MOL    C281   281  -0.1150000   12.0115
  282        CA    1  MOL    C282   282  -0.1150000   12.0115
  283       CO4    1  MOL    C283   283   0.6250000   12.0115
  284         O    1  MOL    O284   284  -0.4300000   15.9994
  285       OES    1  MOL    O285   285  -0.3300000   15.9994
  286        CA    1  MOL    C286   286  -0.1150000   12.0115
  287        CA    1  MOL    C287   287  -0.1150000   12.0115
  288        HC    1  MOL    H288   288   0.0600000    1.0080
  289        HC    1  MOL    H289   289   0.0600000    1.0080
  290        HC    1  MOL    H290   290   0.0600000    1.0080
  291        HC    1  MOL    H291   291   0.0600000    1.0080
  292        HC    1  MOL    H292   292   0.0600000    1.0080
  293       HAE    1  MOL    H293   293   0.0300000    1.0080
  294       HAE    1  MOL    H294   294   0.0300000    1.0080
  295        HC    1  MOL    H295   295   0.0600000    1.0080
  296        HC    1  MOL    H296   296   0.0600000    1.0080
  297        HC    1  MOL    H297   297   0.0600000    1.0080
  298        HC    1  MOL    H298   298   0.0600000    1.0080
  299        HC    1  MOL    H299   299   0.0600000    1.0080
  300       HAE    1  MOL    H300   300   0.0300000    1.0080
  301       HAE    1  MOL    H301   301   0.0300000    1.0080
  302        HA    1  MOL    H302   302   0.1150000    1.0080
  303        HA    1  MOL    H303   303   0.1150000    1.0080
  304        HA    1  MOL    H304   304   0.1150000    1.0080
  305        HA    1  MOL    H305   305   0.1150000    1.0080
  306       CYA    1  MOL    C306   306  -0.1200000   12.0115
  307       CYA    1  MOL    C307   307  -0.1200000   12.0115
  308       CYA    1  MOL    C308   308  -0.0600000   12.0115
  309        CT    1  MOL    C309   309   0.1900000   12.0115
  310       CYA    1  MOL    C310   310  -0.1200000   12.0115
  311       CYA    1  MOL    C311   311  -0.1200000   12.0115
  312       CYA    1  MOL    C312   312  -0.0600000   12.0115
  313        CT    1  MOL    C313   313   0.1900000   12.0115
  314       OES    1  MOL    O314   314  -0.3300000   15.9994
  315       CO4    1  MOL    C315   315   0.6250000   12.0115
  316         O    1  MOL    O316   316  -0.4300000   15.9994
  317        CA    1  MOL    C317   317  -0.1150000   12.0115
  318        CA    1  MOL    C318   318  -0.1150000   12.0115
  319        CA    1  MOL    C319   319  -0.1150000   12.0115
  320        CA    1  MOL    C320   320  -0.1150000   12.0115
  321       CO4    1  MOL    C321   321   0.6250000   12.0115
  322         O    1  MOL    O322   322  -0.4300000   15.9994
  323       OES    1  MOL    O323   323  -0.3300000   15.9994
  324        CA    1  MOL    C324   324  -0.1150000   12.0115
  325        CA    1  MOL    C325   325  -0.1150000   12.0115
  326        HC    1  MOL    H326   326   0.0600000    1.0080
  327        HC    1  MOL    H327   327   0.0600000    1.0080
  328        HC    1  MOL    H328   328   0.0600000    1.0080
  329        HC    1  MOL    H329   329   0.0600000    1.0080
  330        HC    1  MOL    H330   330   0.0600000    1.0080
  331       HAE    1  MOL    H331   331   0.0300000    1.0080
  332       HAE    1  MOL    H332   332   0.0300000    1.0080
  333        HC    1  MOL    H333   333   0.0600000    1.0080
  334        HC    1  MOL    H334   334   0.0600000    1.0080
  335        HC    1  MOL    H335   335   0.0600000    1.0080
  336        HC    1  MOL    H336   336   0.0600000    1.0080
  337        HC    1  MOL    H337   337   0.0600000    1.0080
  338       HAE    1  MOL    H338   338   0.0300000    1.0080
  339       HAE    1  MOL    H339   339   0.0300000    1.0080
  340        HA    1  MOL    H340   340   0.1150000    1.0080
  341        HA    1  MOL    H341   341   0.1150000    1.0080
  342        HA    1  MOL    H342   342   0.1150000    1.0080
  343        HA    1  MOL    H343   343   0.1150000    1.0080
  344       CYA    1  MOL    C344   344  -0.1200000   12.0115
  345       CYA    1  MOL    C345   345  -0.1200000   12.0115
  346       CYA    1  MOL    C346   346  -0.0600000   12.0115
  347        CT    1  MOL    C347   347   0.1900000   12.0115
  348       CYA    1  MOL    C348   348  -0.1200000   12.0115
  349       CYA    1  MOL    C349   349  -0.1200000   12.0115
  350       CYA    1  MOL    C350   350  -0.0600000   12.0115
  351        CT    1  MOL    C351   351   0.1900000   12.0115
  352       OES    1  MOL    O352   352  -0.3300000   15.9994
  353       CO4    1  MOL    C353   353   0.6250000   12.0115
  354         O    1  MOL    O354   354  -0.4300000   15.9994
  355        CA    1  MOL    C355   355  -0.1150000   12.0115
  356        CA    1  MOL    C356   356  -0.1150000   12.0115
  357        CA    1  MOL    C357   357  -0.1150000   12.0115
  358        CA    1  MOL    C358   358  -0.1150000   12.0115
  359       CO4    1  MOL    C359   359   0.6250000   12.0115
  360         O    1  MOL    O360   360  -0.4300000   15.9994
  361       OES    1  MOL    O361   361  -0.3300000   15.9994
  362        CA    1  MOL    C362   362  -0.1150000   12.0115
  363        CA    1  MOL    C363   363  -0.1150000   12.0115
  364        HC    1  MOL    H364   364   0.0600000    1.0080
  365        HC    1  MOL    H365   365   0.0600000    1.0080
  366        HC    1  MOL    H366   366   0.0600000    1.0080
  367        HC    1  MOL    H367   367   0.0600000    1.0080
  368        HC    1  MOL    H368   368   0.0600000    1.0080
  369       HAE    1  MOL    H369   369   0.0300000    1.0080
  370       HAE    1  MOL    H370   370   0.0300000    1.0080
  371        HC    1  MOL    H371   371   0.0600000    1.0080
  372        HC    1  MOL    H372   372   0.0600000    1.0080
  373        HC    1  MOL    H373   373   0.0600000    1.0080
  374        HC    1  MOL    H374   374   0.0600000    1.0080
  375        HC    1  MOL    H375   375   0.0600000    1.0080
  376       HAE    1  MOL    H376   376   0.0300000    1.0080
  377       HAE    1  MOL    H377   377   0.0300000    1.0080
  378        HA    1  MOL    H378   378   0.1150000    1.0080
  379        HA    1  MOL    H379   379   0.1150000    1.0080
  380        HA    1  MOL    H380   380   0.1150000    1.0080
  381        HA    1  MOL    H381   381   0.1150000    1.0080
  382       CYA    1  MOL    C382   382  -0.1200000   12.0115
  383       CYA    1  MOL    C383   383  -0.1200000   12.0115
  384       CYA    1  MOL    C384   384  -0.0600000   12.0115
  385        CT    1  MOL    C385   385   0.1900000   12.0115
  386       CYA    1  MOL    C386   386  -0.1200000   12.0115
  387       CYA    1  MOL    C387   387  -0.1200000   12.0115
  388       CYA    1  MOL    C388   388  -0.0600000   12.0115
  389        CT    1  MOL    C389   389   0.1900000   12.0115
  390       OES    1  MOL    O390   390  -0.3300000   15.9994
  391       CO4    1  MOL    C391   391   0.6250000   12.0115
  392         O    1  MOL    O392   392  -0.4300000   15.9994
  393        CA    1  MOL    C393   393  -0.1150000   12.0115
  394        CA    1  MOL    C394   394  -0.1150000   12.0115
  395        CA    1  MOL    C395   395  -0.1150000   12.0115
  396        CA    1  MOL    C396   396  -0.1150000   12.0115
  397       CO4    1  MOL    C397   397   0.6250000   12.0115
  398         O    1  MOL    O398   398  -0.4300000   15.9994
  399       OES    1  MOL    O399   399  -0.3300000   15.9994
  400        CA    1  MOL    C400   400  -0.1150000   12.0115
  401        CA    1  MOL    C401   401  -0.1150000   12.0115
  402        HC    1  MOL    H402   402   0.0600000    1.0080
  403        HC    1  MOL    H403   403   0.0600000    1.0080
  404        HC    1  MOL    H404   404   0.0600000    1.0080
  405        HC    1  MOL    H405   405   0.0600000    1.0080
  406        HC    1  MOL    H406   406   0.0600000    1.0080
  407       HAE    1  MOL    H407   407   0.0300000    1.0080
  408       HAE    1  MOL    H408   408   0.0300000    1.0080
  409        HC    1  MOL    H409   409   0.0600000    1.0080
  410        HC    1  MOL    H410   410   0.0600000    1.0080
  411        HC    1  MOL    H411   411   0.0600000    1.0080
  412        HC    1  MOL    H412   412   0.0600000    1.0080
  413        HC    1  MOL    H413   413   0.0600000    1.0080
  414       HAE    1  MOL    H414   414   0.0300000    1.0080
  415       HAE    1  MOL    H415   415   0.0300000    1.0080
  416        HA    1  MOL    H416   416   0.1150000    1.0080
  417        HA    1  MOL    H417   417   0.1150000    1.0080
  418        HA    1  MOL    H418   418   0.1150000    1.0080
  419        HA    1  MOL    H419   419   0.1150000    1.0080
  420       CYA    1  MOL    C420   420  -0.1200000   12.0115
  421       CYA    1  MOL    C421   421  -0.1200000   12.0115
  422       CYA    1  MOL    C422   422  -0.0600000   12.0115
  423        CT    1  MOL    C423   423   0.1900000   12.0115
  424       CYA    1  MOL    C424   424  -0.1200000   12.0115
  425       CYA    1  MOL    C425   425  -0.1200000   12.0115
  426       CYA    1  MOL    C426   426  -0.0600000   12.0115
  427        CT    1  MOL    C427   427   0.1900000   12.0115
  428       OES    1  MOL    O428   428  -0.3300000   15.9994
  429       CO4    1  MOL    C429   429   0.6250000   12.0115
  430         O    1  MOL    O430   430  -0.4300000   15.9994
  431        CA    1  MOL    C431   431  -0.1150000   12.0115
  432        CA    1  MOL    C432   432  -0.1150000   12.0115
  433        CA    1  MOL    C433   433  -0.1150000   12.0115
  434        CA    1  MOL    C434   434  -0.1150000   12.0115
  435       CO4    1  MOL    C435   435   0.6250000   12.0115
  436         O    1  MOL    O436   436  -0.4300000   15.9994
  437       OES    1  MOL    O437   437  -0.3300000   15.9994
  438        CA    1  MOL    C438   438  -0.1150000   12.0115
  439        CA    1  MOL    C439   439  -0.1150000   12.0115
  440        HC    1  MOL    H440   440   0.0600000    1.0080
  441        HC    1  MOL    H441   441   0.0600000    1.0080
  442        HC    1  MOL    H442   442   0.0600000    1.0080
  443        HC    1  MOL    H443   443   0.0600000    1.0080
  444        HC    1  MOL    H444   444   0.0600000    1.0080
  445       HAE    1  MOL    H445   445   0.0300000    1.0080
  446       HAE    1  MOL    H446   446   0.0300000    1.0080
  447        HC    1  MOL    H447   447   0.0600000    1.0080
  448        HC    1  MOL    H448   448   0.0600000    1.0080
  449        HC    1  MOL    H449   449   0.0600000    1.0080
  450        HC    1  MOL    H450   450   0.0600000    1.0080
  451        HC    1  MOL    H451   451   0.0600000    1.0080
  452       HAE    1  MOL    H452   452   0.0300000    1.0080
  453       HAE    1  MOL    H453   453   0.0300000    1.0080
  454        HA    1  MOL    H454   454   0.1150000    1.0080
  455        HA    1  MOL    H455   455   0.1150000    1.0080
  456        HA    1  MOL    H456   456   0.1150000    1.0080
  457        HA    1  MOL    H457   457   0.1150000    1.0080
  458       CYA    1  MOL    C458   458  -0.1200000   12.0115
  459       CYA    1  MOL    C459   459  -0.1200000   12.0115
  460       CYA    1  MOL    C460   460  -0.0600000   12.0115
  461        CT    1  MOL    C461   461   0.1900000   12.0115
  462       CYA    1  MOL    C462   462  -0.1200000   12.0115
  463       CYA    1  MOL    C463   463  -0.1200000   12.0115
  464       CYA    1  MOL    C464   464  -0.0600000   12.0115
  465        CT    1  MOL    C465   465   0.1900000   12.0115
  466       OES    1  MOL    O466   466  -0.3300000   15.9994
  467       CO4    1  MOL    C467   467   0.6250000   12.0115
  468         O    1  MOL    O468   468  -0.4300000   15.9994
  469        CA    1  MOL    C469   469  -0.1150000   12.0115
  470        CA    1  MOL    C470   470  -0.1150000   12.0115
  471        CA    1  MOL    C471   471  -0.1150000   12.0115
  472        CA    1  MOL    C472   472  -0.1150000   12.0115
  473       CO4    1  MOL    C473   473   0.6250000   12.0115
  474         O    1  MOL    O474   474  -0.4300000   15.9994
  475       OES    1  MOL    O475   475  -0.3300000   15.9994
  476        CA    1  MOL    C476   476  -0.1150000   12.0115
  477        CA    1  MOL    C477   477  -0.1150000   12.0115
  478        HC    1  MOL    H478   478   0.0600000    1.0080
  479        HC    1  MOL    H479   479   0.0600000    1.0080
  480        HC    1  MOL    H480   480   0.0600000    1.0080
  481        HC    1  MOL    H481   481   0.0600000    1.0080
  482        HC    1  MOL    H482   482   0.0600000    1.0080
  483       HAE    1  MOL    H483   483   0.0300000    1.0080
  484       HAE    1  MOL    H484   484   0.0300000    1.0080
  485        HC    1  MOL    H485   485   0.0600000    1.0080
  486        HC    1  MOL    H486   486   0.0600000    1.0080
  487        HC    1  MOL    H487   487   0.0600000    1.0080
  488        HC    1  MOL    H488   488   0.0600000    1.0080
  489        HC    1  MOL    H489   489   0.0600000    1.0080
  490       HAE    1  MOL    H490   490   0.0300000    1.0080
  491       HAE    1  MOL    H491   491   0.0300000    1.0080
  492        HA    1  MOL    H492   492   0.1150000    1.0080
  493        HA    1  MOL    H493   493   0.1150000    1.0080
  494        HA    1  MOL    H494   494   0.1150000    1.0080
  495        HA    1  MOL    H495   495   0.1150000    1.0080
  496       CYA    1  MOL    C496   496  -0.1200000   12.0115
  497       CYA    1  MOL    C497   497  -0.1200000   12.0115
  498       CYA    1  MOL    C498   498  -0.0600000   12.0115
  499        CT    1  MOL    C499   499   0.1900000   12.0115
  500       CYA    1  MOL    C500   500  -0.1200000   12.0115
  501       CYA    1  MOL    C501   501  -0.1200000   12.0115
  502       CYA    1  MOL    C502   502  -0.0600000   12.0115
  503        CT    1  MOL    C503   503   0.1900000   12.0115
  504       OES    1  MOL    O504   504  -0.3300000   15.9994
  505       CO4    1  MOL    C505   505   0.6250000   12.0115
  506         O    1  MOL    O506   506  -0.4300000   15.9994
  507        CA    1  MOL    C507   507  -0.1150000   12.0115
  508        CA    1  MOL    C508   508  -0.1150000   12.0115
  509        CA    1  MOL    C509   509  -0.1150000   12.0115
  510        CA    1  MOL    C510   510  -0.1150000   12.0115
  511       CO4    1  MOL    C511   511   0.6250000   12.0115
  512         O    1  MOL    O512   512  -0.4300000   15.9994
  513       OES    1  MOL    O513   513  -0.3300000   15.9994
  514        CA    1  MOL    C514   514  -0.1150000   12.0115
  515        CA    1  MOL    C515   515  -0.1150000   12.0115
  516        HC    1  MOL    H516   516   0.0600000    1.0080
  517        HC    1  MOL    H517   517   0.0600000    1.0080
  518        HC    1  MOL    H518   518   0.0600000    1.0080
  519        HC    1  MOL    H519   519   0.0600000    1.0080
  520        HC    1  MOL    H520   520   0.0600000    1.0080
  521       HAE    1  MOL    H521   521   0.0300000    1.0080
  522       HAE    1  MOL    H522   522   0.0300000    1.0080
  523        HC    1  MOL    H523   523   0.0600000    1.0080
  524        HC    1  MOL    H524   524   0.0600000    1.0080
  525        HC    1  MOL    H525   525   0.0600000    1.0080
  526        HC    1  MOL    H526   526   0.0600000    1.0080
  527        HC    1  MOL    H527   527   0.0600000    1.0080
  528       HAE    1  MOL    H528   528   0.0300000    1.0080
  529       HAE    1  MOL    H529   529   0.0300000    1.0080
  530        HA    1  MOL    H530   530   0.1150000    1.0080
  531        HA    1  MOL    H531   531   0.1150000    1.0080
  532        HA    1  MOL    H532   532   0.1150000    1.0080
  533        HA    1  MOL    H533   533   0.1150000    1.0080
  534       CYA    1  MOL    C534   534  -0.1200000   12.0115
  535       CYA    1  MOL    C535   535  -0.1200000   12.0115
  536       CYA    1  MOL    C536   536  -0.0600000   12.0115
  537        CT    1  MOL    C537   537   0.1900000   12.0115
  538       CYA    1  MOL    C538   538  -0.1200000   12.0115
  539       CYA    1  MOL    C539   539  -0.1200000   12.0115
  540       CYA    1  MOL    C540   540  -0.0600000   12.0115
  541        CT    1  MOL    C541   541   0.1900000   12.0115
  542       OES    1  MOL    O542   542  -0.3300000   15.9994
  543       CO4    1  MOL    C543   543   0.6250000   12.0115
  544         O    1  MOL    O544   544  -0.4300000   15.9994
  545        CA    1  MOL    C545   545  -0.1150000   12.0115
  546        CA    1  MOL    C546   546  -0.1150000   12.0115
  547        CA    1  MOL    C547   547  -0.1150000   12.0115
  548        CA    1  MOL    C548   548  -0.1150000   12.0115
  549       CO4    1  MOL    C549   549   0.6250000   12.0115
  550         O    1  MOL    O550   550  -0.4300000   15.9994
  551       OES    1  MOL    O551   551  -0.3300000   15.9994
  552        CA    1  MOL    C552   552  -0.1150000   12.0115
  553        CA    1  MOL    C553   553  -0.1150000   12.0115
  554        HC    1  MOL    H554   554   0.0600000    1.0080
  555        HC    1  MOL    H555   555   0.0600000    1.0080
  556        HC    1  MOL    H556   556   0.0600000    1.0080
  557        HC    1  MOL    H557   557   0.0600000    1.0080
  558        HC    1  MOL    H558   558   0.0600000    1.0080
  559       HAE    1  MOL    H559   559   0.0300000    1.0080
  560       HAE    1  MOL    H560   560   0.0300000    1.0080
  561        HC    1  MOL    H561   561   0.0600000    1.0080
  562        HC    1  MOL    H562   562   0.0600000    1.0080
  563        HC    1  MOL    H563   563   0.0600000    1.0080
  564        HC    1  MOL    H564   564   0.0600000    1.0080
  565        HC    1  MOL    H565   565   0.0600000    1.0080
  566       HAE    1  MOL    H566   566   0.0300000    1.0080
  567       HAE    1  MOL    H567   567   0.0300000    1.0080
  568        HA    1  MOL    H568   568   0.1150000    1.0080
  569        HA    1  MOL    H569   569   0.1150000    1.0080
  570        HA    1  MOL    H570   570   0.1150000    1.0080
  571        HA    1  MOL    H571   571   0.1150000    1.0080
  572       CYA    1  MOL    C572   572  -0.1200000   12.0115
  573       CYA    1  MOL    C573   573  -0.1200000   12.0115
  574       CYA    1  MOL    C574   574  -0.0600000   12.0115
  575        CT    1  MOL    C575   575   0.1900000   12.0115
  576       CYA    1  MOL    C576   576  -0.1200000   12.0115
  577       CYA    1  MOL    C577   577  -0.1200000   12.0115
  578       CYA    1  MOL    C578   578  -0.0600000   12.0115
  579        CT    1  MOL    C579   579   0.1900000   12.0115
  580       OES    1  MOL    O580   580  -0.3300000   15.9994
  581       CO4    1  MOL    C581   581   0.6250000   12.0115
  582         O    1  MOL    O582   582  -0.4300000   15.9994
  583        CA    1  MOL    C583   583  -0.1150000   12.0115
  584        CA    1  MOL    C584   584  -0.1150000   12.0115
  585        CA    1  MOL    C585   585  -0.1150000   12.0115
  586        CA    1  MOL    C586   586  -0.1150000   12.0115
  587       CO4    1  MOL    C587   587   0.6250000   12.0115
  588         O    1  MOL    O588   588  -0.4300000   15.9994
  589       OES    1  MOL    O589   589  -0.3300000   15.9994
  590        CA    1  MOL    C590   590  -0.1150000   12.0115
  591        CA    1  MOL    C591   591  -0.1150000   12.0115
  592        HC    1  MOL    H592   592   0.0600000    1.0080
  593        HC    1  MOL    H593   593   0.0600000    1.0080
  594        HC    1  MOL    H594   594   0.0600000    1.0080
  595        HC    1  MOL    H595   595   0.0600000    1.0080
  596        HC    1  MOL    H596   596   0.0600000    1.0080
  597       HAE    1  MOL    H597   597   0.0300000    1.0080
  598       HAE    1  MOL    H598   598   0.0300000    1.0080
  599        HC    1  MOL    H599   599   0.0600000    1.0080
  600        HC    1  MOL    H600   600   0.0600000    1.0080
  601        HC    1  MOL    H601   601   0.0600000    1.0080
  602        HC    1  MOL    H602   602   0.0600000    1.0080
  603        HC    1  MOL    H603   603   0.0600000    1.0080
  604       HAE    1  MOL    H604   604   0.0300000    1.0080
  605       HAE    1  MOL    H605   605   0.0300000    1.0080
  606        HA    1  MOL    H606   606   0.1150000    1.0080
  607        HA    1  MOL    H607   607   0.1150000    1.0080
  608        HA    1  MOL    H608   608   0.1150000    1.0080
  609        HA    1  MOL    H609   609   0.1150000    1.0080
  610       CYA    1  MOL    C610   610  -0.1200000   12.0115
  611       CYA    1  MOL    C611   611  -0.1200000   12.0115
  612       CYA    1  MOL    C612   612  -0.0600000   12.0115
  613        CT    1  MOL    C613   613   0.1900000   12.0115
  614       CYA    1  MOL    C614   614  -0.1200000   12.0115
  615       CYA    1  MOL    C615   615  -0.1200000   12.0115
  616       CYA    1  MOL    C616   616  -0.0600000   12.0115
  617        CT    1  MOL    C617   617   0.1900000   12.0115
  618       OES    1  MOL    O618   618  -0.3300000   15.9994
  619       CO4    1  MOL    C619   619   0.6250000   12.0115
  620         O    1  MOL    O620   620  -0.4300000   15.9994
  621        CA    1  MOL    C621   621  -0.1150000   12.0115
  622        CA    1  MOL    C622   622  -0.1150000   12.0115
  623        CA    1  MOL    C623   623  -0.1150000   12.0115
  624        CA    1  MOL    C624   624  -0.1150000   12.0115
  625       CO4    1  MOL    C625   625   0.6250000   12.0115
  626         O    1  MOL    O626   626  -0.4300000   15.9994
  627       OES    1  MOL    O627   627  -0.3300000   15.9994
  628        CA    1  MOL    C628   628  -0.1150000   12.0115
  629        CA    1  MOL    C629   629  -0.1150000   12.0115
  630        HC    1  MOL    H630   630   0.0600000    1.0080
  631        HC    1  MOL    H631   631   0.0600000    1.0080
  632        HC    1  MOL    H632   632   0.0600000    1.0080
  633        HC    1  MOL    H633   633   0.0600000    1.0080
  634        HC    1  MOL    H634   634   0.0600000    1.0080
  635       HAE    1  MOL    H635   635   0.0300000    1.0080
  636       HAE    1  MOL    H636   636   0.0300000    1.0080
  637        HC    1  MOL    H637   637   0.0600000    1.0080
  638        HC    1  MOL    H638   638   0.0600000    1.0080
  639        HC    1  MOL    H639   639   0.0600000    1.0080
  640        HC    1  MOL    H640   640   0.0600000    1.0080
  641        HC    1  MOL    H641   641   0.0600000    1.0080
  642       HAE    1  MOL    H642   642   0.0300000    1.0080
  643       HAE    1  MOL    H643   643   0.0300000    1.0080
  644        HA    1  MOL    H644   644   0.1150000    1.0080
  645        HA    1  MOL    H645   645   0.1150000    1.0080
  646        HA    1  MOL    H646   646   0.1150000    1.0080
  647        HA    1  MOL    H647   647   0.1150000    1.0080
  648       CYA    1  MOL    C648   648  -0.1200000   12.0115
  649       CYA    1  MOL    C649   649  -0.1200000   12.0115
  650       CYA    1  MOL    C650   650  -0.0600000   12.0115
  651        CT    1  MOL    C651   651   0.1900000   12.0115
  652       CYA    1  MOL    C652   652  -0.1200000   12.0115
  653       CYA    1  MOL    C653   653  -0.1200000   12.0115
  654       CYA    1  MOL    C654   654  -0.0600000   12.0115
  655        CT    1  MOL    C655   655   0.1900000   12.0115
  656       OES    1  MOL    O656   656  -0.3300000   15.9994
  657       CO4    1  MOL    C657   657   0.6250000   12.0115
  658         O    1  MOL    O658   658  -0.4300000   15.9994
  659        CA    1  MOL    C659   659  -0.1150000   12.0115
  660        CA    1  MOL    C660   660  -0.1150000   12.0115
  661        CA    1  MOL    C661   661  -0.1150000   12.0115
  662        CA    1  MOL    C662   662  -0.1150000   12.0115
  663       CO4    1  MOL    C663   663   0.6250000   12.0115
  664         O    1  MOL    O664   664  -0.4300000   15.9994
  665       OES    1  MOL    O665   665  -0.3300000   15.9994
  666        CA    1  MOL    C666   666  -0.1150000   12.0115
  667        CA    1  MOL    C667   667  -0.1150000   12.0115
  668        HC    1  MOL    H668   668   0.0600000    1.0080
  669        HC    1  MOL    H669   669   0.0600000    1.0080
  670        HC    1  MOL    H670   670   0.0600000    1.0080
  671        HC    1  MOL    H671   671   0.0600000    1.0080
  672        HC    1  MOL    H672   672   0.0600000    1.0080
  673       HAE    1  MOL    H673   673   0.0300000    1.0080
  674       HAE    1  MOL    H674   674   0.0300000    1.0080
  675        HC    1  MOL    H675   675   0.0600000    1.0080
  676        HC    1  MOL    H676   676   0.0600000    1.0080
  677        HC    1  MOL    H677   677   0.0600000    1.0080
  678        HC    1  MOL    H678   678   0.0600000    1.0080
  679        HC    1  MOL    H679   679   0.0600000    1.0080
  680       HAE    1  MOL    H680   680   0.0300000    1.0080
  681       HAE    1  MOL    H681   681   0.0300000    1.0080
  682        HA    1  MOL    H682   682   0.1150000    1.0080
  683        HA    1  MOL    H683   683   0.1150000    1.0080
  684        HA    1  MOL    H684   684   0.1150000    1.0080
  685        HA    1  MOL    H685   685   0.1150000    1.0080
  686       CYA    1  MOL    C686   686  -0.1200000   12.0115
  687       CYA    1  MOL    C687   687  -0.1200000   12.0115
  688       CYA    1  MOL    C688   688  -0.0600000   12.0115
  689        CT    1  MOL    C689   689   0.1900000   12.0115
  690       CYA    1  MOL    C690   690  -0.1200000   12.0115
  691       CYA    1  MOL    C691   691  -0.1200000   12.0115
  692       CYA    1  MOL    C692   692  -0.0600000   12.0115
  693        CT    1  MOL    C693   693   0.1900000   12.0115
  694       OES    1  MOL    O694   694  -0.3300000   15.9994
  695       CO4    1  MOL    C695   695   0.6250000   12.0115
  696         O    1  MOL    O696   696  -0.4300000   15.9994
  697        CA    1  MOL    C697   697  -0.1150000   12.0115
  698        CA    1  MOL    C698   698  -0.1150000   12.0115
  699        CA    1  MOL    C699   699  -0.1150000   12.0115
  700        CA    1  MOL    C700   700  -0.1150000   12.0115
  701       CO4    1  MOL    C701   701   0.6250000   12.0115
  702         O    1  MOL    O702   702  -0.4300000   15.9994
  703       OES    1  MOL    O703   703  -0.3300000   15.9994
  704        CA    1  MOL    C704   704  -0.1150000   12.0115
  705        CA    1  MOL    C705   705  -0.1150000   12.0115
  706        HC    1  MOL    H706   706   0.0600000    1.0080
  707        HC    1  MOL    H707   707   0.0600000    1.0080
  708        HC    1  MOL    H708   708   0.0600000    1.0080
  709        HC    1  MOL    H709   709   0.0600000    1.0080
  710        HC    1  MOL    H710   710   0.0600000    1.0080
  711       HAE    1  MOL    H711   711   0.0300000    1.0080
  712       HAE    1  MOL    H712   712   0.0300000    1.0080
  713        HC    1  MOL    H713   713   0.0600000    1.0080
  714        HC    1  MOL    H714   714   0.0600000    1.0080
  715        HC    1  MOL    H715   715   0.0600000    1.0080
  716        HC    1  MOL    H716   716   0.0600000    1.0080
  717        HC    1  MOL    H717   717   0.0600000    1.0080
  718       HAE    1  MOL    H718   718   0.0300000    1.0080
  719       HAE    1  MOL    H719   719   0.0300000    1.0080
  720        HA    1  MOL    H720   720   0.1150000    1.0080
  721        HA    1  MOL    H721   721   0.1150000    1.0080
  722        HA    1  MOL    H722   722   0.1150000    1.0080
  723        HA    1  MOL    H723   723   0.1150000    1.0080
  724       CYA    1  MOL    C724   724  -0.1200000   12.0115
  725       CYA    1  MOL    C725   725  -0.1200000   12.0115
  726       CYA    1  MOL    C726   726  -0.0600000   12.0115
  727        CT    1  MOL    C727   727   0.1900000   12.0115
  728       CYA    1  MOL    C728   728  -0.1200000   12.0115
  729       CYA    1  MOL    C729   729  -0.1200000   12.0115
  730       CYA    1  MOL    C730   730  -0.0600000   12.0115
  731        CT    1  MOL    C731   731   0.1900000   12.0115
  732       OES    1  MOL    O732   732  -0.3300000   15.9994
  733       CO4    1  MOL    C733   733   0.6250000   12.0115
  734         O    1  MOL    O734   734  -0.4300000   15.9994
  735        CA    1  MOL    C735   735  -0.1150000   12.0115
  736        CA    1  MOL    C736   736  -0.1150000   12.0115
  737        CA    1  MOL    C737   737  -0.1150000   12.0115
  738        CA    1  MOL    C738   738  -0.1150000   12.0115
  739         C    1  MOL    C739   739   0.6350000   12.0115
  740         O    1  MOL    O740   740  -0.4400000   15.9994
  741        OH    1  MOL    O741   741  -0.5300000   15.9994
  742        CA    1  MOL    C742   742  -0.1150000   12.0115
  743        CA    1  MOL    C743   743  -0.1150000   12.0115
  744        HC    1  MOL    H744   744   0.0600000    1.0080
  745        HC    1  MOL    H745   745   0.0600000    1.0080
  746        HC    1  MOL    H746   746   0.0600000    1.0080
  747        HC    1  MOL    H747   747   0.0600000    1.0080
  748        HC    1  MOL    H748   748   0.0600000    1.0080
  749       HAE    1  MOL    H749   749   0.0300000    1.0080
  750       HAE    1  MOL    H750   750   0.0300000    1.0080
  751        HC    1  MOL    H751   751   0.0600000    1.0080
  752        HC    1  MOL    H752   752   0.0600000    1.0080
  753        HC    1  MOL    H753   753   0.0600000    1.0080
  754        HC    1  MOL    H754   754   0.0600000    1.0080
  755        HC    1  MOL    H755   755   0.0600000    1.0080
  756       HAE    1  MOL    H756   756   0.0300000    1.0080
  757       HAE    1  MOL    H757   757   0.0300000    1.0080
  758        HA    1  MOL    H758   758   0.1150000    1.0080
  759        HA    1  MOL    H759   759   0.1150000    1.0080
  760        HA    1  MOL    H760   760   0.1150000    1.0080
  761        HA    1  MOL    H761   761   0.1150000    1.0080
  762        HO    1  MOL    H762   762   0.4500000    1.0080

[ bonds ]
      1      2   1      0.1529 224262.4000
      1      7   1      0.1529 224262.4000
      1     21   1      0.1090 284512.0000
      1     22   1      0.1090 284512.0000
      2      3   1      0.1529 224262.4000
      2     23   1      0.1090 284512.0000
      2     24   1      0.1090 284512.0000
      3      4   1      0.1529 224262.4000
      3      5   1      0.1529 224262.4000
      3     25   1      0.1090 284512.0000
      4     26   1      0.1090 284512.0000
      4     27   1      0.1090 284512.0000
      4     39   1      0.1090 284512.0000
      5      6   1      0.1529 224262.4000
      5     28   1      0.1090 284512.0000
      5     29   1      0.1090 284512.0000
      6      7   1      0.1529 224262.4000
      6     30   1      0.1090 284512.0000
      6     31   1      0.1090 284512.0000
      7      8   1      0.1529 224262.4000
      7     32   1      0.1090 284512.0000
      8      9   1      0.1410 267776.0000
      8     33   1      0.1090 284512.0000
      8     34   1      0.1090 284512.0000
      9     10   1      0.1327 179075.2000
     10     11   1      0.1229 476976.0000
     10     12   1      0.1470 259408.0000
     12     13   1      0.1400 392459.2000
     12     20   1      0.1400 392459.2000
     13     14   1      0.1400 392459.2000
     13     35   1      0.1080 307105.6000
     14     15   1      0.1400 392459.2000
     14     36   1      0.1080 307105.6000
     15     16   1      0.1470 259408.0000
     15     19   1      0.1400 392459.2000
     16     17   1      0.1229 476976.0000
     16     18   1      0.1327 179075.2000
     18     43   1      0.1410 267776.0000
     19     20   1      0.1400 392459.2000
     19     37   1      0.1080 307105.6000
     20     38   1      0.1080 307105.6000
     40     41   1      0.1529 224262.4000
     40     46   1      0.1529 224262.4000
     40     60   1      0.1090 284512.0000
     40     61   1      0.1090 284512.0000
     41     42   1      0.1529 224262.4000
     41     62   1      0.1090 284512.0000
     41     63   1      0.1090 284512.0000
     42     43   1      0.1529 224262.4000
     42     44   1      0.1529 224262.4000
     42     64   1      0.1090 284512.0000
     43     65   1      0.1090 284512.0000
     43     66   1      0.1090 284512.0000
     44     45   1      0.1529 224262.4000
     44     67   1      0.1090 284512.0000
     44     68   1      0.1090 284512.0000
     45     46   1      0.1529 224262.4000
     45     69   1      0.1090 284512.0000
     45     70   1      0.1090 284512.0000
     46     47   1      0.1529 224262.4000
     46     71   1      0.1090 284512.0000
     47     48   1      0.1410 267776.0000
     47     72   1      0.1090 284512.0000
     47     73   1      0.1090 284512.0000
     48     49   1      0.1327 179075.2000
     49     50   1      0.1229 476976.0000
     49     51   1      0.1470 259408.0000
     51     52   1      0.1400 392459.2000
     51     59   1      0.1400 392459.2000
     52     53   1      0.1400 392459.2000
     52     74   1      0.1080 307105.6000
     53     54   1      0.1400 392459.2000
     53     75   1      0.1080 307105.6000
     54     55   1      0.1470 259408.0000
     54     58   1      0.1400 392459.2000
     55     56   1      0.1229 476976.0000
     55     57   1      0.1327 179075.2000
     57     81   1      0.1410 267776.0000
     58     59   1      0.1400 392459.2000
     58     76   1      0.1080 307105.6000
     59     77   1      0.1080 307105.6000
     78     79   1      0.1529 224262.4000
     78     84   1      0.1529 224262.4000
     78     98   1      0.1090 284512.0000
     78     99   1      0.1090 284512.0000
     79     80   1      0.1529 224262.4000
     79    100   1      0.1090 284512.0000
     79    101   1      0.1090 284512.0000
     80     81   1      0.1529 224262.4000
     80     82   1      0.1529 224262.4000
     80    102   1      0.1090 284512.0000
     81    103   1      0.1090 284512.0000
     81    104   1      0.1090 284512.0000
     82     83   1      0.1529 224262.4000
     82    105   1      0.1090 284512.0000
     82    106   1      0.1090 284512.0000
     83     84   1      0.1529 224262.4000
     83    107   1      0.1090 284512.0000
     83    108   1      0.1090 284512.0000
     84     85   1      0.1529 224262.4000
     84    109   1      0.1090 284512.0000
     85     86   1      0.1410 267776.0000
     85    110   1      0.1090 284512.0000
     85    111   1      0.1090 284512.0000
     86     87   1      0.1327 179075.2000
     87     88   1      0.1229 476976.0000
     87     89   1      0.1470 259408.0000
     89     90   1      0.1400 392459.2000
     89     97   1      0.1400 392459.2000
     90     91   1      0.1400 392459.2000
     90    112   1      0.1080 307105.6000
     91     92   1      0.1400 392459.2000
     91    113   1      0.1080 307105.6000
     92     93   1      0.1470 259408.0000
     92     96   1      0.1400 392459.2000
     93     94   1      0.1229 476976.0000
     93     95   1      0.1327 179075.2000
     95    119   1      0.1410 267776.0000
     96     97   1      0.1400 392459.2000
     96    114   1      0.1080 307105.6000
     97    115   1      0.1080 307105.6000
    116    117   1      0.1529 224262.4000
    116    122   1      0.1529 224262.4000
    116    136   1      0.1090 284512.0000
    116    137   1      0.1090 284512.0000
    117    118   1      0.1529 224262.4000
    117    138   1      0.1090 284512.0000
    117    139   1      0.1090 284512.0000
    118    119   1      0.1529 224262.4000
    118    120   1      0.1529 224262.4000
    118    140   1      0.1090 284512.0000
    119    141   1      0.1090 284512.0000
    119    142   1      0.1090 284512.0000
    120    121   1      0.1529 224262.4000
    120    143   1      0.1090 284512.0000
    120    144   1      0.1090 284512.0000
    121    122   1      0.1529 224262.4000
    121    145   1      0.1090 284512.0000
    121    146   1      0.1090 284512.0000
    122    123   1      0.1529 224262.4000
    122    147   1      0.1090 284512.0000
    123    124   1      0.1410 267776.0000
    123    148   1      0.1090 284512.0000
    123    149   1      0.1090 284512.0000
    124    125   1      0.1327 179075.2000
    125    126   1      0.1229 476976.0000
    125    127   1      0.1470 259408.0000
    127    128   1      0.1400 392459.2000
    127    135   1      0.1400 392459.2000
    128    129   1      0.1400 392459.2000
    128    150   1      0.1080 307105.6000
    129    130   1      0.1400 392459.2000
    129    151   1      0.1080 307105.6000
    130    131   1      0.1470 259408.0000
    130    134   1      0.1400 392459.2000
    131    132   1      0.1229 476976.0000
    131    133   1      0.1327 179075.2000
    133    157   1      0.1410 267776.0000
    134    135   1      0.1400 392459.2000
    134    152   1      0.1080 307105.6000
    135    153   1      0.1080 307105.6000
    154    155   1      0.1529 224262.4000
    154    160   1      0.1529 224262.4000
    154    174   1      0.1090 284512.0000
    154    175   1      0.1090 284512.0000
    155    156   1      0.1529 224262.4000
    155    176   1      0.1090 284512.0000
    155    177   1      0.1090 284512.0000
    156    157   1      0.1529 224262.4000
    156    158   1      0.1529 224262.4000
    156    178   1      0.1090 284512.0000
    157    179   1      0.1090 284512.0000
    157    180   1      0.1090 284512.0000
    158    159   1      0.1529 224262.4000
    158    181   1      0.1090 284512.0000
    158    182   1      0.1090 284512.0000
    159    160   1      0.1529 224262.4000
    159    183   1      0.1090 284512.0000
    159    184   1      0.1090 284512.0000
    160    161   1      0.1529 224262.4000
    160    185   1      0.1090 284512.0000
    161    162   1      0.1410 267776.0000
    161    186   1      0.1090 284512.0000
    161    187   1      0.1090 284512.0000
    162    163   1      0.1327 179075.2000
    163    164   1      0.1229 476976.0000
    163    165   1      0.1470 259408.0000
    165    166   1      0.1400 392459.2000
    165    173   1      0.1400 392459.2000
    166    167   1      0.1400 392459.2000
    166    188   1      0.1080 307105.6000
    167    168   1      0.1400 392459.2000
    167    189   1      0.1080 307105.6000
    168    169   1      0.1470 259408.0000
    168    172   1      0.1400 392459.2000
    169    170   1      0.1229 476976.0000
    169    171   1      0.1327 179075.2000
    171    195   1      0.1410 267776.0000
    172    173   1      0.1400 392459.2000
    172    190   1      0.1080 307105.6000
    173    191   1      0.1080 307105.6000
    192    193   1      0.1529 224262.4000
    192    198   1      0.1529 224262.4000
    192    212   1      0.1090 284512.0000
    192    213   1      0.1090 284512.0000
    193    194   1      0.1529 224262.4000
    193    214   1      0.1090 284512.0000
    193    215   1      0.1090 284512.0000
    194    195   1      0.1529 224262.4000
    194    196   1      0.1529 224262.4000
    194    216   1      0.1090 284512.0000
    195    217   1      0.1090 284512.0000
    195    218   1      0.1090 284512.0000
    196    197   1      0.1529 224262.4000
    196    219   1      0.1090 284512.0000
    196    220   1      0.1090 284512.0000
    197    198   1      0.1529 224262.4000
    197    221   1      0.1090 284512.0000
    197    222   1      0.1090 284512.0000
    198    199   1      0.1529 224262.4000
    198    223   1      0.1090 284512.0000
    199    200   1      0.1410 267776.0000
    199    224   1      0.1090 284512.0000
    199    225   1      0.1090 284512.0000
    200    201   1      0.1327 179075.2000
    201    202   1      0.1229 476976.0000
    201    203   1      0.1470 259408.0000
    203    204   1      0.1400 392459.2000
    203    211   1      0.1400 392459.2000
    204    205   1      0.1400 392459.2000
    204    226   1      0.1080 307105.6000
    205    206   1      0.1400 392459.2000
    205    227   1      0.1080 307105.6000
    206    207   1      0.1470 259408.0000
    206    210   1      0.1400 392459.2000
    207    208   1      0.1229 476976.0000
    207    209   1      0.1327 179075.2000
    209    233   1      0.1410 267776.0000
    210    211   1      0.1400 392459.2000
    210    228   1      0.1080 307105.6000
    211    229   1      0.1080 307105.6000
    230    231   1      0.1529 224262.4000
    230    236   1      0.1529 224262.4000
    230    250   1      0.1090 284512.0000
    230    251   1      0.1090 284512.0000
    231    232   1      0.1529 224262.4000
    231    252   1      0.1090 284512.0000
    231    253   1      0.1090 284512.0000
    232    233   1      0.1529 224262.4000
    232    234   1      0.1529 224262.4000
    232    254   1      0.1090 284512.0000
    233    255   1      0.1090 284512.0000
    233    256   1      0.1090 284512.0000
    234    235   1      0.1529 224262.4000
    234    257   1      0.1090 284512.0000
    234    258   1      0.1090 284512.0000
    235    236   1      0.1529 224262.4000
    235    259   1      0.1090 284512.0000
    235    260   1      0.1090 284512.0000
    236    237   1      0.1529 224262.4000
    236    261   1      0.1090 284512.0000
    237    238   1      0.1410 267776.0000
    237    262   1      0.1090 284512.0000
    237    263   1      0.1090 284512.0000
    238    239   1      0.1327 179075.2000
    239    240   1      0.1229 476976.0000
    239    241   1      0.1470 259408.0000
    241    242   1      0.1400 392459.2000
    241    249   1      0.1400 392459.2000
    242    243   1      0.1400 392459.2000
    242    264   1      0.1080 307105.6000
    243    244   1      0.1400 392459.2000
    243    265   1      0.1080 307105.6000
    244    245   1      0.1470 259408.0000
    244    248   1      0.1400 392459.2000
    245    246   1      0.1229 476976.0000
    245    247   1      0.1327 179075.2000
    247    271   1      0.1410 267776.0000
    248    249   1      0.1400 392459.2000
    248    266   1      0.1080 307105.6000
    249    267   1      0.1080 307105.6000
    268    269   1      0.1529 224262.4000
    268    274   1      0.1529 224262.4000
    268    288   1      0.1090 284512.0000
    268    289   1      0.1090 284512.0000
    269    270   1      0.1529 224262.4000
    269    290   1      0.1090 284512.0000
    269    291   1      0.1090 284512.0000
    270    271   1      0.1529 224262.4000
    270    272   1      0.1529 224262.4000
    270    292   1      0.1090 284512.0000
    271    293   1      0.1090 284512.0000
    271    294   1      0.1090 284512.0000
    272    273   1      0.1529 224262.4000
    272    295   1      0.1090 284512.0000
    272    296   1      0.1090 284512.0000
    273    274   1      0.1529 224262.4000
    273    297   1      0.1090 284512.0000
    273    298   1      0.1090 284512.0000
    274    275   1      0.1529 224262.4000
    274    299   1      0.1090 284512.0000
    275    276   1      0.1410 267776.0000
    275    300   1      0.1090 284512.0000
    275    301   1      0.1090 284512.0000
    276    277   1      0.1327 179075.2000
    277    278   1      0.1229 476976.0000
    277    279   1      0.1470 259408.0000
    279    280   1      0.1400 392459.2000
    279    287   1      0.1400 392459.2000
    280    281   1      0.1400 392459.2000
    280    302   1      0.1080 307105.6000
    281    282   1      0.1400 392459.2000
    281    303   1      0.1080 307105.6000
    282    283   1      0.1470 259408.0000
    282    286   1      0.1400 392459.2000
    283    284   1      0.1229 476976.0000
    283    285   1      0.1327 179075.2000
    285    309   1      0.1410 267776.0000
    286    287   1      0.1400 392459.2000
    286    304   1      0.1080 307105.6000
    287    305   1      0.1080 307105.6000
    306    307   1      0.1529 224262.4000
    306    312   1      0.1529 224262.4000
    306    326   1      0.1090 284512.0000
    306    327   1      0.1090 284512.0000
    307    308   1      0.1529 224262.4000
    307    328   1      0.1090 284512.0000
    307    329   1      0.1090 284512.0000
    308    309   1      0.1529 224262.4000
    308    310   1      0.1529 224262.4000
    308    330   1      0.1090 284512.0000
    309    331   1      0.1090 284512.0000
    309    332   1      0.1090 284512.0000
    310    311   1      0.1529 224262.4000
    310    333   1      0.1090 284512.0000
    310    334   1      0.1090 284512.0000
    311    312   1      0.1529 224262.4000
    311    335   1      0.1090 284512.0000
    311    336   1      0.1090 284512.0000
    312    313   1      0.1529 224262.4000
    312    337   1      0.1090 284512.0000
    313    314   1      0.1410 267776.0000
    313    338   1      0.1090 284512.0000
    313    339   1      0.1090 284512.0000
    314    315   1      0.1327 179075.2000
    315    316   1      0.1229 476976.0000
    315    317   1      0.1470 259408.0000
    317    318   1      0.1400 392459.2000
    317    325   1      0.1400 392459.2000
    318    319   1      0.1400 392459.2000
    318    340   1      0.1080 307105.6000
    319    320   1      0.1400 392459.2000
    319    341   1      0.1080 307105.6000
    320    321   1      0.1470 259408.0000
    320    324   1      0.1400 392459.2000
    321    322   1      0.1229 476976.0000
    321    323   1      0.1327 179075.2000
    323    347   1      0.1410 267776.0000
    324    325   1      0.1400 392459.2000
    324    342   1      0.1080 307105.6000
    325    343   1      0.1080 307105.6000
    344    345   1      0.1529 224262.4000
    344    350   1      0.1529 224262.4000
    344    364   1      0.1090 284512.0000
    344    365   1      0.1090 284512.0000
    345    346   1      0.1529 224262.4000
    345    366   1      0.1090 284512.0000
    345    367   1      0.1090 284512.0000
    346    347   1      0.1529 224262.4000
    346    348   1      0.1529 224262.4000
    346    368   1      0.1090 284512.0000
    347    369   1      0.1090 284512.0000
    347    370   1      0.1090 284512.0000
    348    349   1      0.1529 224262.4000
    348    371   1      0.1090 284512.0000
    348    372   1      0.1090 284512.0000
    349    350   1      0.1529 224262.4000
    349    373   1      0.1090 284512.0000
    349    374   1      0.1090 284512.0000
    350    351   1      0.1529 224262.4000
    350    375   1      0.1090 284512.0000
    351    352   1      0.1410 267776.0000
    351    376   1      0.1090 284512.0000
    351    377   1      0.1090 284512.0000
    352    353   1      0.1327 179075.2000
    353    354   1      0.1229 476976.0000
    353    355   1      0.1470 259408.0000
    355    356   1      0.1400 392459.2000
    355    363   1      0.1400 392459.2000
    356    357   1      0.1400 392459.2000
    356    378   1      0.1080 307105.6000
    357    358   1      0.1400 392459.2000
    357    379   1      0.1080 307105.6000
    358    359   1      0.1470 259408.0000
    358    362   1      0.1400 392459.2000
    359    360   1      0.1229 476976.0000
    359    361   1      0.1327 179075.2000
    361    385   1      0.1410 267776.0000
    362    363   1      0.1400 392459.2000
    362    380   1      0.1080 307105.6000
    363    381   1      0.1080 307105.6000
    382    383   1      0.1529 224262.4000
    382    388   1      0.1529 224262.4000
    382    402   1      0.1090 284512.0000
    382    403   1      0.1090 284512.0000
    383    384   1      0.1529 224262.4000
    383    404   1      0.1090 284512.0000
    383    405   1      0.1090 284512.0000
    384    385   1      0.1529 224262.4000
    384    386   1      0.1529 224262.4000
    384    406   1      0.1090 284512.0000
    385    407   1      0.1090 284512.0000
    385    408   1      0.1090 284512.0000
    386    387   1      0.1529 224262.4000
    386    409   1      0.1090 284512.0000
    386    410   1      0.1090 284512.0000
    387    388   1      0.1529 224262.4000
    387    411   1      0.1090 284512.0000
    387    412   1      0.1090 284512.0000
    388    389   1      0.1529 224262.4000
    388    413   1      0.1090 284512.0000
    389    390   1      0.1410 267776.0000
    389    414   1      0.1090 284512.0000
    389    415   1      0.1090 284512.0000
    390    391   1      0.1327 179075.2000
    391    392   1      0.1229 476976.0000
    391    393   1      0.1470 259408.0000
    393    394   1      0.1400 392459.2000
    393    401   1      0.1400 392459.2000
    394    395   1      0.1400 392459.2000
    394    416   1      0.1080 307105.6000
    395    396   1      0.1400 392459.2000
    395    417   1      0.1080 307105.6000
    396    397   1      0.1470 259408.0000
    396    400   1      0.1400 392459.2000
    397    398   1      0.1229 476976.0000
    397    399   1      0.1327 179075.2000
    399    423   1      0.1410 267776.0000
    400    401   1      0.1400 392459.2000
    400    418   1      0.1080 307105.6000
    401    419   1      0.1080 307105.6000
    420    421   1      0.1529 224262.4000
    420    426   1      0.1529 224262.4000
    420    440   1      0.1090 284512.0000
    420    441   1      0.1090 284512.0000
    421    422   1      0.1529 224262.4000
    421    442   1      0.1090 284512.0000
    421    443   1      0.1090 284512.0000
    422    423   1      0.1529 224262.4000
    422    424   1      0.1529 224262.4000
    422    444   1      0.1090 284512.0000
    423    445   1      0.1090 284512.0000
    423    446   1      0.1090 284512.0000
    424    425   1      0.1529 224262.4000
    424    447   1      0.1090 284512.0000
    424    448   1      0.1090 284512.0000
    425    426   1      0.1529 224262.4000
    425    449   1      0.1090 284512.0000
    425    450   1      0.1090 284512.0000
    426    427   1      0.1529 224262.4000
    426    451   1      0.1090 284512.0000
    427    428   1      0.1410 267776.0000
    427    452   1      0.1090 284512.0000
    427    453   1      0.1090 284512.0000
    428    429   1      0.1327 179075.2000
    429    430   1      0.1229 476976.0000
    429    431   1      0.1470 259408.0000
    431    432   1      0.1400 392459.2000
    431    439   1      0.1400 392459.2000
    432    433   1      0.1400 392459.2000
    432    454   1      0.1080 307105.6000
    433    434   1      0.1400 392459.2000
    433    455   1      0.1080 307105.6000
    434    435   1      0.1470 259408.0000
    434    438   1      0.1400 392459.2000
    435    436   1      0.1229 476976.0000
    435    437   1      0.1327 179075.2000
    437    461   1      0.1410 267776.0000
    438    439   1      0.1400 392459.2000
    438    456   1      0.1080 307105.6000
    439    457   1      0.1080 307105.6000
    458    459   1      0.1529 224262.4000
    458    464   1      0.1529 224262.4000
    458    478   1      0.1090 284512.0000
    458    479   1      0.1090 284512.0000
    459    460   1      0.1529 224262.4000
    459    480   1      0.1090 284512.0000
    459    481   1      0.1090 284512.0000
    460    461   1      0.1529 224262.4000
    460    462   1      0.1529 224262.4000
    460    482   1      0.1090 284512.0000
    461    483   1      0.1090 284512.0000
    461    484   1      0.1090 284512.0000
    462    463   1      0.1529 224262.4000
    462    485   1      0.1090 284512.0000
    462    486   1      0.1090 284512.0000
    463    464   1      0.1529 224262.4000
    463    487   1      0.1090 284512.0000
    463    488   1      0.1090 284512.0000
    464    465   1      0.1529 224262.4000
    464    489   1      0.1090 284512.0000
    465    466   1      0.1410 267776.0000
    465    490   1      0.1090 284512.0000
    465    491   1      0.1090 284512.0000
    466    467   1      0.1327 179075.2000
    467    468   1      0.1229 476976.0000
    467    469   1      0.1470 259408.0000
    469    470   1      0.1400 392459.2000
    469    477   1      0.1400 392459.2000
    470    471   1      0.1400 392459.2000
    470    492   1      0.1080 307105.6000
    471    472   1      0.1400 392459.2000
    471    493   1      0.1080 307105.6000
    472    473   1      0.1470 259408.0000
    472    476   1      0.1400 392459.2000
    473    474   1      0.1229 476976.0000
    473    475   1      0.1327 179075.2000
    475    499   1      0.1410 267776.0000
    476    477   1      0.1400 392459.2000
    476    494   1      0.1080 307105.6000
    477    495   1      0.1080 307105.6000
    496    497   1      0.1529 224262.4000
    496    502   1      0.1529 224262.4000
    496    516   1      0.1090 284512.0000
    496    517   1      0.1090 284512.0000
    497    498   1      0.1529 224262.4000
    497    518   1      0.1090 284512.0000
    497    519   1      0.1090 284512.0000
    498    499   1      0.1529 224262.4000
    498    500   1      0.1529 224262.4000
    498    520   1      0.1090 284512.0000
    499    521   1      0.1090 284512.0000
    499    522   1      0.1090 284512.0000
    500    501   1      0.1529 224262.4000
    500    523   1      0.1090 284512.0000
    500    524   1      0.1090 284512.0000
    501    502   1      0.1529 224262.4000
    501    525   1      0.1090 284512.0000
    501    526   1      0.1090 284512.0000
    502    503   1      0.1529 224262.4000
    502    527   1      0.1090 284512.0000
    503    504   1      0.1410 267776.0000
    503    528   1      0.1090 284512.0000
    503    529   1      0.1090 284512.0000
    504    505   1      0.1327 179075.2000
    505    506   1      0.1229 476976.0000
    505    507   1      0.1470 259408.0000
    507    508   1      0.1400 392459.2000
    507    515   1      0.1400 392459.2000
    508    509   1      0.1400 392459.2000
    508    530   1      0.1080 307105.6000
    509    510   1      0.1400 392459.2000
    509    531   1      0.1080 307105.6000
    510    511   1      0.1470 259408.0000
    510    514   1      0.1400 392459.2000
    511    512   1      0.1229 476976.0000
    511    513   1      0.1327 179075.2000
    513    537   1      0.1410 267776.0000
    514    515   1      0.1400 392459.2000
    514    532   1      0.1080 307105.6000
    515    533   1      0.1080 307105.6000
    534    535   1      0.1529 224262.4000
    534    540   1      0.1529 224262.4000
    534    554   1      0.1090 284512.0000
    534    555   1      0.1090 284512.0000
    535    536   1      0.1529 224262.4000
    535    556   1      0.1090 284512.0000
    535    557   1      0.1090 284512.0000
    536    537   1      0.1529 224262.4000
    536    538   1      0.1529 224262.4000
    536    558   1      0.1090 284512.0000
    537    559   1      0.1090 284512.0000
    537    560   1      0.1090 284512.0000
    538    539   1      0.1529 224262.4000
    538    561   1      0.1090 284512.0000
    538    562   1      0.1090 284512.0000
    539    540   1      0.1529 224262.4000
    539    563   1      0.1090 284512.0000
    539    564   1      0.1090 284512.0000
    540    541   1      0.1529 224262.4000
    540    565   1      0.1090 284512.0000
    541    542   1      0.1410 267776.0000
    541    566   1      0.1090 284512.0000
    541    567   1      0.1090 284512.0000
    542    543   1      0.1327 179075.2000
    543    544   1      0.1229 476976.0000
    543    545   1      0.1470 259408.0000
    545    546   1      0.1400 392459.2000
    545    553   1      0.1400 392459.2000
    546    547   1      0.1400 392459.2000
    546    568   1      0.1080 307105.6000
    547    548   1      0.1400 392459.2000
    547    569   1      0.1080 307105.6000
    548    549   1      0.1470 259408.0000
    548    552   1      0.1400 392459.2000
    549    550   1      0.1229 476976.0000
    549    551   1      0.1327 179075.2000
    551    575   1      0.1410 267776.0000
    552    553   1      0.1400 392459.2000
    552    570   1      0.1080 307105.6000
    553    571   1      0.1080 307105.6000
    572    573   1      0.1529 224262.4000
    572    578   1      0.1529 224262.4000
    572    592   1      0.1090 284512.0000
    572    593   1      0.1090 284512.0000
    573    574   1      0.1529 224262.4000
    573    594   1      0.1090 284512.0000
    573    595   1      0.1090 284512.0000
    574    575   1      0.1529 224262.4000
    574    576   1      0.1529 224262.4000
    574    596   1      0.1090 284512.0000
    575    597   1      0.1090 284512.0000
    575    598   1      0.1090 284512.0000
    576    577   1      0.1529 224262.4000
    576    599   1      0.1090 284512.0000
    576    600   1      0.1090 284512.0000
    577    578   1      0.1529 224262.4000
    577    601   1      0.1090 284512.0000
    577    602   1      0.1090 284512.0000
    578    579   1      0.1529 224262.4000
    578    603   1      0.1090 284512.0000
    579    580   1      0.1410 267776.0000
    579    604   1      0.1090 284512.0000
    579    605   1      0.1090 284512.0000
    580    581   1      0.1327 179075.2000
    581    582   1      0.1229 476976.0000
    581    583   1      0.1470 259408.0000
    583    584   1      0.1400 392459.2000
    583    591   1      0.1400 392459.2000
    584    585   1      0.1400 392459.2000
    584    606   1      0.1080 307105.6000
    585    586   1      0.1400 392459.2000
    585    607   1      0.1080 307105.6000
    586    587   1      0.1470 259408.0000
    586    590   1      0.1400 392459.2000
    587    588   1      0.1229 476976.0000
    587    589   1      0.1327 179075.2000
    589    613   1      0.1410 267776.0000
    590    591   1      0.1400 392459.2000
    590    608   1      0.1080 307105.6000
    591    609   1      0.1080 307105.6000
    610    611   1      0.1529 224262.4000
    610    616   1      0.1529 224262.4000
    610    630   1      0.1090 284512.0000
    610    631   1      0.1090 284512.0000
    611    612   1      0.1529 224262.4000
    611    632   1      0.1090 284512.0000
    611    633   1      0.1090 284512.0000
    612    613   1      0.1529 224262.4000
    612    614   1      0.1529 224262.4000
    612    634   1      0.1090 284512.0000
    613    635   1      0.1090 284512.0000
    613    636   1      0.1090 284512.0000
    614    615   1      0.1529 224262.4000
    614    637   1      0.1090 284512.0000
    614    638   1      0.1090 284512.0000
    615    616   1      0.1529 224262.4000
    615    639   1      0.1090 284512.0000
    615    640   1      0.1090 284512.0000
    616    617   1      0.1529 224262.4000
    616    641   1      0.1090 284512.0000
    617    618   1      0.1410 267776.0000
    617    642   1      0.1090 284512.0000
    617    643   1      0.1090 284512.0000
    618    619   1      0.1327 179075.2000
    619    620   1      0.1229 476976.0000
    619    621   1      0.1470 259408.0000
    621    622   1      0.1400 392459.2000
    621    629   1      0.1400 392459.2000
    622    623   1      0.1400 392459.2000
    622    644   1      0.1080 307105.6000
    623    624   1      0.1400 392459.2000
    623    645   1      0.1080 307105.6000
    624    625   1      0.1470 259408.0000
    624    628   1      0.1400 392459.2000
    625    626   1      0.1229 476976.0000
    625    627   1      0.1327 179075.2000
    627    651   1      0.1410 267776.0000
    628    629   1      0.1400 392459.2000
    628    646   1      0.1080 307105.6000
    629    647   1      0.1080 307105.6000
    648    649   1      0.1529 224262.4000
    648    654   1      0.1529 224262.4000
    648    668   1      0.1090 284512.0000
    648    669   1      0.1090 284512.0000
    649    650   1      0.1529 224262.4000
    649    670   1      0.1090 284512.0000
    649    671   1      0.1090 284512.0000
    650    651   1      0.1529 224262.4000
    650    652   1      0.1529 224262.4000
    650    672   1      0.1090 284512.0000
    651    673   1      0.1090 284512.0000
    651    674   1      0.1090 284512.0000
    652    653   1      0.1529 224262.4000
    652    675   1      0.1090 284512.0000
    652    676   1      0.1090 284512.0000
    653    654   1      0.1529 224262.4000
    653    677   1      0.1090 284512.0000
    653    678   1      0.1090 284512.0000
    654    655   1      0.1529 224262.4000
    654    679   1      0.1090 284512.0000
    655    656   1      0.1410 267776.0000
    655    680   1      0.1090 284512.0000
    655    681   1      0.1090 284512.0000
    656    657   1      0.1327 179075.2000
    657    658   1      0.1229 476976.0000
    657    659   1      0.1470 259408.0000
    659    660   1      0.1400 392459.2000
    659    667   1      0.1400 392459.2000
    660    661   1      0.1400 392459.2000
    660    682   1      0.1080 307105.6000
    661    662   1      0.1400 392459.2000
    661    683   1      0.1080 307105.6000
    662    663   1      0.1470 259408.0000
    662    666   1      0.1400 392459.2000
    663    664   1      0.1229 476976.0000
    663    665   1      0.1327 179075.2000
    665    689   1      0.1410 267776.0000
    666    667   1      0.1400 392459.2000
    666    684   1      0.1080 307105.6000
    667    685   1      0.1080 307105.6000
    686    687   1      0.1529 224262.4000
    686    692   1      0.1529 224262.4000
    686    706   1      0.1090 284512.0000
    686    707   1      0.1090 284512.0000
    687    688   1      0.1529 224262.4000
    687    708   1      0.1090 284512.0000
    687    709   1      0.1090 284512.0000
    688    689   1      0.1529 224262.4000
    688    690   1      0.1529 224262.4000
    688    710   1      0.1090 284512.0000
    689    711   1      0.1090 284512.0000
    689    712   1      0.1090 284512.0000
    690    691   1      0.1529 224262.4000
    690    713   1      0.1090 284512.0000
    690    714   1      0.1090 284512.0000
    691    692   1      0.1529 224262.4000
    691    715   1      0.1090 284512.0000
    691    716   1      0.1090 284512.0000
    692    693   1      0.1529 224262.4000
    692    717   1      0.1090 284512.0000
    693    694   1      0.1410 267776.0000
    693    718   1      0.1090 284512.0000
    693    719   1      0.1090 284512.0000
    694    695   1      0.1327 179075.2000
    695    696   1      0.1229 476976.0000
    695    697   1      0.1470 259408.0000
    697    698   1      0.1400 392459.2000
    697    705   1      0.1400 392459.2000
    698    699   1      0.1400 392459.2000
    698    720   1      0.1080 307105.6000
    699    700   1      0.1400 392459.2000
    699    721   1      0.1080 307105.6000
    700    701   1      0.1470 259408.0000
    700    704   1      0.1400 392459.2000
    701    702   1      0.1229 476976.0000
    701    703   1      0.1327 179075.2000
    703    727   1      0.1410 267776.0000
    704    705   1      0.1400 392459.2000
    704    722   1      0.1080 307105.6000
    705    723   1      0.1080 307105.6000
    724    725   1      0.1529 224262.4000
    724    730   1      0.1529 224262.4000
    724    744   1      0.1090 284512.0000
    724    745   1      0.1090 284512.0000
    725    726   1      0.1529 224262.4000
    725    746   1      0.1090 284512.0000
    725    747   1      0.1090 284512.0000
    726    727   1      0.1529 224262.4000
    726    728   1      0.1529 224262.4000
    726    748   1      0.1090 284512.0000
    727    749   1      0.1090 284512.0000
    727    750   1      0.1090 284512.0000
    728    729   1      0.1529 224262.4000
    728    751   1      0.1090 284512.0000
    728    752   1      0.1090 284512.0000
    729    730   1      0.1529 224262.4000
    729    753   1      0.1090 284512.0000
    729    754   1      0.1090 284512.0000
    730    731   1      0.1529 224262.4000
    730    755   1      0.1090 284512.0000
    731    732   1      0.1410 267776.0000
    731    756   1      0.1090 284512.0000
    731    757   1      0.1090 284512.0000
    732    733   1      0.1327 179075.2000
    733    734   1      0.1229 476976.0000
    733    735   1      0.1470 259408.0000
    735    736   1      0.1400 392459.2000
    735    743   1      0.1400 392459.2000
    736    737   1      0.1400 392459.2000
    736    758   1      0.1080 307105.6000
    737    738   1      0.1400 392459.2000
    737    759   1      0.1080 307105.6000
    738    739   1      0.1490 334720.0000
    738    742   1      0.1400 392459.2000
    739    740   1      0.1229 476976.0000
    739    741   1      0.1364 376560.0000
    741    762   1      0.0945 462750.4000
    742    743   1      0.1400 392459.2000
    742    760   1      0.1080 307105.6000
    743    761   1      0.1080 307105.6000

[ pairs ]
; ai   aj   funct   fudge_QQ  charge_i   charge_j   c6    c12
      7      3   2   0.50000    -0.0600000   -0.0600000   1.015252e-03  1.866303e-06
      7     23   2   0.50000    -0.0600000    0.0600000   2.494471e-04  1.671101e-07
      7     24   2   0.50000    -0.0600000    0.0600000   2.494471e-04  1.671101e-07
     21      3   2   0.50000     0.0600000   -0.0600000   2.494471e-04  1.671101e-07
     21     23   2   0.50000     0.0600000    0.0600000   6.128906e-05  1.496315e-08
     21     24   2   0.50000     0.0600000    0.0600000   6.128906e-05  1.496315e-08
     22      3   2   0.50000     0.0600000   -0.0600000   2.494471e-04  1.671101e-07
     22     23   2   0.50000     0.0600000    0.0600000   6.128906e-05  1.496315e-08
     22     24   2   0.50000     0.0600000    0.0600000   6.128906e-05  1.496315e-08
      2      6   2   0.50000    -0.1200000   -0.1200000   1.015252e-03  1.866303e-06
      2      8   2   0.50000    -0.1200000    0.1900000   1.015252e-03  1.866303e-06
      2     32   2   0.50000    -0.1200000    0.0600000   2.494471e-04  1.671101e-07
     21      6   2   0.50000     0.0600000   -0.1200000   2.494471e-04  1.671101e-07
     21      8   2   0.50000     0.0600000    0.1900000   2.494471e-04  1.671101e-07
     21     32   2   0.50000     0.0600000    0.0600000   6.128906e-05  1.496315e-08
     22      6   2   0.50000     0.0600000   -0.1200000   2.494471e-04  1.671101e-07
     22      8   2   0.50000     0.0600000    0.1900000   2.494471e-04  1.671101e-07
     22     32   2   0.50000     0.0600000    0.0600000   6.128906e-05  1.496315e-08
      1      4   2   0.50000    -0.1200000   -0.1800000   1.015252e-03  1.866303e-06
      1      5   2   0.50000    -0.1200000   -0.1200000   1.015252e-03  1.866303e-06
      1     25   2   0.50000    -0.1200000    0.0600000   2.494471e-04  1.671101e-07
     23      4   2   0.50000     0.0600000   -0.1800000   2.494471e-04  1.671101e-07
     23      5   2   0.50000     0.0600000   -0.1200000   2.494471e-04  1.671101e-07
     23     25   2   0.50000     0.0600000    0.0600000   6.128906e-05  1.496315e-08
     24      4   2   0.50000     0.0600000   -0.1800000   2.494471e-04  1.671101e-07
     24      5   2   0.50000     0.0600000   -0.1200000   2.494471e-04  1.671101e-07
     24     25   2   0.50000     0.0600000    0.0600000   6.128906e-05  1.496315e-08
      2     26   2   0.50000    -0.1200000    0.0600000   2.494471e-04  1.671101e-07
      2     27   2   0.50000    -0.1200000    0.0600000   2.494471e-04  1.671101e-07
      2     39   2   0.50000    -0.1200000    0.0600000   2.494471e-04  1.671101e-07
      5     26   2   0.50000    -0.1200000    0.0600000   2.494471e-04  1.671101e-07
      5     27   2   0.50000    -0.1200000    0.0600000   2.494471e-04  1.671101e-07
      5     39   2   0.50000    -0.1200000    0.0600000   2.494471e-04  1.671101e-07
     25     26   2   0.50000     0.0600000    0.0600000   6.128906e-05  1.496315e-08
     25     27   2   0.50000     0.0600000    0.0600000   6.128906e-05  1.496315e-08
     25     39   2   0.50000     0.0600000    0.0600000   6.128906e-05  1.496315e-08
      2     28   2   0.50000    -0.1200000    0.0600000   2.494471e-04  1.671101e-07
      2     29   2   0.50000    -0.1200000    0.0600000   2.494471e-04  1.671101e-07
      4      6   2   0.50000    -0.1800000   -0.1200000   1.015252e-03  1.866303e-06
      4     28   2   0.50000    -0.1800000    0.0600000   2.494471e-04  1.671101e-07
      4     29   2   0.50000    -0.1800000    0.0600000   2.494471e-04  1.671101e-07
     25      6   2   0.50000     0.0600000   -0.1200000   2.494471e-04  1.671101e-07
     25     28   2   0.50000     0.0600000    0.0600000   6.128906e-05  1.496315e-08
     25     29   2   0.50000     0.0600000    0.0600000   6.128906e-05  1.496315e-08
      3     30   2   0.50000    -0.0600000    0.0600000   2.494471e-04  1.671101e-07
      3     31   2   0.50000    -0.0600000    0.0600000   2.494471e-04  1.671101e-07
     28      7   2   0.50000     0.0600000   -0.0600000   2.494471e-04  1.671101e-07
     28     30   2   0.50000     0.0600000    0.0600000   6.128906e-05  1.496315e-08
     28     31   2   0.50000     0.0600000    0.0600000   6.128906e-05  1.496315e-08
     29      7   2   0.50000     0.0600000   -0.0600000   2.494471e-04  1.671101e-07
     29     30   2   0.50000     0.0600000    0.0600000   6.128906e-05  1.496315e-08
     29     31   2   0.50000     0.0600000    0.0600000   6.128906e-05  1.496315e-08
      5      8   2   0.50000    -0.1200000    0.1900000   1.015252e-03  1.866303e-06
      5     32   2   0.50000    -0.1200000    0.0600000   2.494471e-04  1.671101e-07
     30      1   2   0.50000     0.0600000   -0.1200000   2.494471e-04  1.671101e-07
     30      8   2   0.50000     0.0600000    0.1900000   2.494471e-04  1.671101e-07
     30     32   2   0.50000     0.0600000    0.0600000   6.128906e-05  1.496315e-08
     31      1   2   0.50000     0.0600000   -0.1200000   2.494471e-04  1.671101e-07
     31      8   2   0.50000     0.0600000    0.1900000   2.494471e-04  1.671101e-07
     31     32   2   0.50000     0.0600000    0.0600000   6.128906e-05  1.496315e-08
      1      9   2   0.50000    -0.1200000   -0.3300000   1.026091e-03  1.187829e-06
      1     33   2   0.50000    -0.1200000    0.0300000   1.599888e-04  9.721644e-08
      1     34   2   0.50000    -0.1200000    0.0300000   1.599888e-04  9.721644e-08
      6      9   2   0.50000    -0.1200000   -0.3300000   1.026091e-03  1.187829e-06
      6     33   2   0.50000    -0.1200000    0.0300000   1.599888e-04  9.721644e-08
      6     34   2   0.50000    -0.1200000    0.0300000   1.599888e-04  9.721644e-08
     32      9   2   0.50000     0.0600000   -0.3300000   2.521103e-04  1.063590e-07
     32     33   2   0.50000     0.0600000    0.0300000   3.930919e-05  8.704828e-09
     32     34   2   0.50000     0.0600000    0.0300000   3.930919e-05  8.704828e-09
      7     10   2   0.50000    -0.0600000    0.6250000   1.575021e-03  3.561100e-06
     33     10   2   0.50000     0.0300000    0.6250000   2.482000e-04  1.854991e-07
     34     10   2   0.50000     0.0300000    0.6250000   2.482000e-04  1.854991e-07
      8     11   2   0.50000     0.1900000   -0.4300000   1.095425e-03  1.218041e-06
      8     12   2   0.50000     0.1900000   -0.1150000   1.091018e-03  2.092768e-06
      9     13   2   0.50000    -0.3300000   -0.1150000   1.102666e-03  1.331965e-06
      9     20   2   0.50000    -0.3300000   -0.1150000   1.102666e-03  1.331965e-06
     11     13   2   0.50000    -0.4300000   -0.1150000   1.177174e-03  1.365843e-06
     11     20   2   0.50000    -0.4300000   -0.1150000   1.177174e-03  1.365843e-06
     10     14   2   0.50000     0.6250000   -0.1150000   1.692561e-03  3.993218e-06
     10     35   2   0.50000     0.6250000    0.1150000   3.510079e-04  2.623353e-07
     20     14   2   0.50000    -0.1150000   -0.1150000   1.172438e-03  2.346713e-06
     20     35   2   0.50000    -0.1150000    0.1150000   2.431434e-04  1.541678e-07
     10     19   2   0.50000     0.6250000   -0.1150000   1.692561e-03  3.993218e-06
     10     38   2   0.50000     0.6250000    0.1150000   3.510079e-04  2.623353e-07
     13     19   2   0.50000    -0.1150000   -0.1150000   1.172438e-03  2.346713e-06
     13     38   2   0.50000    -0.1150000    0.1150000   2.431434e-04  1.541678e-07
     12     15   2   0.50000    -0.1150000   -0.1150000   1.172438e-03  2.346713e-06
     12     36   2   0.50000    -0.1150000    0.1150000   2.431434e-04  1.541678e-07
     35     15   2   0.50000     0.1150000   -0.1150000   2.431434e-04  1.541678e-07
     35     36   2   0.50000     0.1150000    0.1150000   5.042375e-05  1.012808e-08
     13     16   2   0.50000    -0.1150000    0.6250000   1.692561e-03  3.993218e-06
     36     16   2   0.50000     0.1150000    0.6250000   3.510079e-04  2.623353e-07
     36     19   2   0.50000     0.1150000   -0.1150000   2.431434e-04  1.541678e-07
     14     17   2   0.50000    -0.1150000   -0.4300000   1.177174e-03  1.365843e-06
     14     18   2   0.50000    -0.1150000   -0.3300000   1.102666e-03  1.331965e-06
     19     17   2   0.50000    -0.1150000   -0.4300000   1.177174e-03  1.365843e-06
     19     18   2   0.50000    -0.1150000   -0.3300000   1.102666e-03  1.331965e-06
     14     37   2   0.50000    -0.1150000    0.1150000   2.431434e-04  1.541678e-07
     16     20   2   0.50000     0.6250000   -0.1150000   1.692561e-03  3.993218e-06
     16     37   2   0.50000     0.6250000    0.1150000   3.510079e-04  2.623353e-07
     15     43   2   0.50000    -0.1150000    0.1900000   1.091018e-03  2.092768e-06
     17     43   2   0.50000    -0.4300000    0.1900000   1.095425e-03  1.218041e-06
     16     42   2   0.50000     0.6250000   -0.0600000   1.575021e-03  3.561100e-06
     16     65   2   0.50000     0.6250000    0.0300000   2.482000e-04  1.854991e-07
     16     66   2   0.50000     0.6250000    0.0300000   2.482000e-04  1.854991e-07
     15     38   2   0.50000    -0.1150000    0.1150000   2.431434e-04  1.541678e-07
     37     12   2   0.50000     0.1150000   -0.1150000   2.431434e-04  1.541678e-07
     37     38   2   0.50000     0.1150000    0.1150000   5.042375e-05  1.012808e-08
     46     42   2   0.50000    -0.0600000   -0.0600000   1.015252e-03  1.866303e-06
     46     62   2   0.50000    -0.0600000    0.0600000   2.494471e-04  1.671101e-07
     46     63   2   0.50000    -0.0600000    0.0600000   2.494471e-04  1.671101e-07
     60     42   2   0.50000     0.0600000   -0.0600000   2.494471e-04  1.671101e-07
     60     62   2   0.50000     0.0600000    0.0600000   6.128906e-05  1.496315e-08
     60     63   2   0.50000     0.0600000    0.0600000   6.128906e-05  1.496315e-08
     61     42   2   0.50000     0.0600000   -0.0600000   2.494471e-04  1.671101e-07
     61     62   2   0.50000     0.0600000    0.0600000   6.128906e-05  1.496315e-08
     61     63   2   0.50000     0.0600000    0.0600000   6.128906e-05  1.496315e-08
     41     45   2   0.50000    -0.1200000   -0.1200000   1.015252e-03  1.866303e-06
     41     47   2   0.50000    -0.1200000    0.1900000   1.015252e-03  1.866303e-06
     41     71   2   0.50000    -0.1200000    0.0600000   2.494471e-04  1.671101e-07
     60     45   2   0.50000     0.0600000   -0.1200000   2.494471e-04  1.671101e-07
     60     47   2   0.50000     0.0600000    0.1900000   2.494471e-04  1.671101e-07
     60     71   2   0.50000     0.0600000    0.0600000   6.128906e-05  1.496315e-08
     61     45   2   0.50000     0.0600000   -0.1200000   2.494471e-04  1.671101e-07
     61     47   2   0.50000     0.0600000    0.1900000   2.494471e-04  1.671101e-07
     61     71   2   0.50000     0.0600000    0.0600000   6.128906e-05  1.496315e-08
     40     43   2   0.50000    -0.1200000    0.1900000   1.015252e-03  1.866303e-06
     40     44   2   0.50000    -0.1200000   -0.1200000   1.015252e-03  1.866303e-06
     40     64   2   0.50000    -0.1200000    0.0600000   2.494471e-04  1.671101e-07
     62     43   2   0.50000     0.0600000    0.1900000   2.494471e-04  1.671101e-07
     62     44   2   0.50000     0.0600000   -0.1200000   2.494471e-04  1.671101e-07
     62     64   2   0.50000     0.0600000    0.0600000   6.128906e-05  1.496315e-08
     63     43   2   0.50000     0.0600000    0.1900000   2.494471e-04  1.671101e-07
     63     44   2   0.50000     0.0600000   -0.1200000   2.494471e-04  1.671101e-07
     63     64   2   0.50000     0.0600000    0.0600000   6.128906e-05  1.496315e-08
     41     18   2   0.50000    -0.1200000   -0.3300000   1.026091e-03  1.187829e-06
     41     65   2   0.50000    -0.1200000    0.0300000   1.599888e-04  9.721644e-08
     41     66   2   0.50000    -0.1200000    0.0300000   1.599888e-04  9.721644e-08
     44     18   2   0.50000    -0.1200000   -0.3300000   1.026091e-03  1.187829e-06
     44     65   2   0.50000    -0.1200000    0.0300000   1.599888e-04  9.721644e-08
     44     66   2   0.50000    -0.1200000    0.0300000   1.599888e-04  9.721644e-08
     64     18   2   0.50000     0.0600000   -0.3300000   2.521103e-04  1.063590e-07
     64     65   2   0.50000     0.0600000    0.0300000   3.930919e-05  8.704828e-09
     64     66   2   0.50000     0.0600000    0.0300000   3.930919e-05  8.704828e-09
     41     67   2   0.50000    -0.1200000    0.0600000   2.494471e-04  1.671101e-07
     41     68   2   0.50000    -0.1200000    0.0600000   2.494471e-04  1.671101e-07
     43     45   2   0.50000     0.1900000   -0.1200000   1.015252e-03  1.866303e-06
     43     67   2   0.50000     0.1900000    0.0600000   2.494471e-04  1.671101e-07
     43     68   2   0.50000     0.1900000    0.0600000   2.494471e-04  1.671101e-07
     64     45   2   0.50000     0.0600000   -0.1200000   2.494471e-04  1.671101e-07
     64     67   2   0.50000     0.0600000    0.0600000   6.128906e-05  1.496315e-08
     64     68   2   0.50000     0.0600000    0.0600000   6.128906e-05  1.496315e-08
     42     69   2   0.50000    -0.0600000    0.0600000   2.494471e-04  1.671101e-07
     42     70   2   0.50000    -0.0600000    0.0600000   2.494471e-04  1.671101e-07
     67     46   2   0.50000     0.0600000   -0.0600000   2.494471e-04  1.671101e-07
     67     69   2   0.50000     0.0600000    0.0600000   6.128906e-05  1.496315e-08
     67     70   2   0.50000     0.0600000    0.0600000   6.128906e-05  1.496315e-08
     68     46   2   0.50000     0.0600000   -0.0600000   2.494471e-04  1.671101e-07
     68     69   2   0.50000     0.0600000    0.0600000   6.128906e-05  1.496315e-08
     68     70   2   0.50000     0.0600000    0.0600000   6.128906e-05  1.496315e-08
     44     47   2   0.50000    -0.1200000    0.1900000   1.015252e-03  1.866303e-06
     44     71   2   0.50000    -0.1200000    0.0600000   2.494471e-04  1.671101e-07
     69     40   2   0.50000     0.0600000   -0.1200000   2.494471e-04  1.671101e-07
     69     47   2   0.50000     0.0600000    0.1900000   2.494471e-04  1.671101e-07
     69     71   2   0.50000     0.0600000    0.0600000   6.128906e-05  1.496315e-08
     70     40   2   0.50000     0.0600000   -0.1200000   2.494471e-04  1.671101e-07
     70     47   2   0.50000     0.0600000    0.1900000   2.494471e-04  1.671101e-07
     70     71   2   0.50000     0.0600000    0.0600000   6.128906e-05  1.496315e-08
     40     48   2   0.50000    -0.1200000   -0.3300000   1.026091e-03  1.187829e-06
     40     72   2   0.50000    -0.1200000    0.0300000   1.599888e-04  9.721644e-08
     40     73   2   0.50000    -0.1200000    0.0300000   1.599888e-04  9.721644e-08
     45     48   2   0.50000    -0.1200000   -0.3300000   1.026091e-03  1.187829e-06
     45     72   2   0.50000    -0.1200000    0.0300000   1.599888e-04  9.721644e-08
     45     73   2   0.50000    -0.1200000    0.0300000   1.599888e-04  9.721644e-08
     71     48   2   0.50000     0.0600000   -0.3300000   2.521103e-04  1.063590e-07
     71     72   2   0.50000     0.0600000    0.0300000   3.930919e-05  8.704828e-09
     71     73   2   0.50000     0.0600000    0.0300000   3.930919e-05  8.704828e-09
     46     49   2   0.50000    -0.0600000    0.6250000   1.575021e-03  3.561100e-06
     72     49   2   0.50000     0.0300000    0.6250000   2.482000e-04  1.854991e-07
     73     49   2   0.50000     0.0300000    0.6250000   2.482000e-04  1.854991e-07
     47     50   2   0.50000     0.1900000   -0.4300000   1.095425e-03  1.218041e-06
     47     51   2   0.50000     0.1900000   -0.1150000   1.091018e-03  2.092768e-06
     48     52   2   0.50000    -0.3300000   -0.1150000   1.102666e-03  1.331965e-06
     48     59   2   0.50000    -0.3300000   -0.1150000   1.102666e-03  1.331965e-06
     50     52   2   0.50000    -0.4300000   -0.1150000   1.177174e-03  1.365843e-06
     50     59   2   0.50000    -0.4300000   -0.1150000   1.177174e-03  1.365843e-06
     49     53   2   0.50000     0.6250000   -0.1150000   1.692561e-03  3.993218e-06
     49     74   2   0.50000     0.6250000    0.1150000   3.510079e-04  2.623353e-07
     59     53   2   0.50000    -0.1150000   -0.1150000   1.172438e-03  2.346713e-06
     59     74   2   0.50000    -0.1150000    0.1150000   2.431434e-04  1.541678e-07
     49     58   2   0.50000     0.6250000   -0.1150000   1.692561e-03  3.993218e-06
     49     77   2   0.50000     0.6250000    0.1150000   3.510079e-04  2.623353e-07
     52     58   2   0.50000    -0.1150000   -0.1150000   1.172438e-03  2.346713e-06
     52     77   2   0.50000    -0.1150000    0.1150000   2.431434e-04  1.541678e-07
     51     54   2   0.50000    -0.1150000   -0.1150000   1.172438e-03  2.346713e-06
     51     75   2   0.50000    -0.1150000    0.1150000   2.431434e-04  1.541678e-07
     74     54   2   0.50000     0.1150000   -0.1150000   2.431434e-04  1.541678e-07
     74     75   2   0.50000     0.1150000    0.1150000   5.042375e-05  1.012808e-08
     52     55   2   0.50000    -0.1150000    0.6250000   1.692561e-03  3.993218e-06
     75     55   2   0.50000     0.1150000    0.6250000   3.510079e-04  2.623353e-07
     75     58   2   0.50000     0.1150000   -0.1150000   2.431434e-04  1.541678e-07
     53     56   2   0.50000    -0.1150000   -0.4300000   1.177174e-03  1.365843e-06
     53     57   2   0.50000    -0.1150000   -0.3300000   1.102666e-03  1.331965e-06
     58     56   2   0.50000    -0.1150000   -0.4300000   1.177174e-03  1.365843e-06
     58     57   2   0.50000    -0.1150000   -0.3300000   1.102666e-03  1.331965e-06
     53     76   2   0.50000    -0.1150000    0.1150000   2.431434e-04  1.541678e-07
     55     59   2   0.50000     0.6250000   -0.1150000   1.692561e-03  3.993218e-06
     55     76   2   0.50000     0.6250000    0.1150000   3.510079e-04  2.623353e-07
     54     81   2   0.50000    -0.1150000    0.1900000   1.091018e-03  2.092768e-06
     56     81   2   0.50000    -0.4300000    0.1900000   1.095425e-03  1.218041e-06
     55     80   2   0.50000     0.6250000   -0.0600000   1.575021e-03  3.561100e-06
     55    103   2   0.50000     0.6250000    0.0300000   2.482000e-04  1.854991e-07
     55    104   2   0.50000     0.6250000    0.0300000   2.482000e-04  1.854991e-07
     54     77   2   0.50000    -0.1150000    0.1150000   2.431434e-04  1.541678e-07
     76     51   2   0.50000     0.1150000   -0.1150000   2.431434e-04  1.541678e-07
     76     77   2   0.50000     0.1150000    0.1150000   5.042375e-05  1.012808e-08
     84     80   2   0.50000    -0.0600000   -0.0600000   1.015252e-03  1.866303e-06
     84    100   2   0.50000    -0.0600000    0.0600000   2.494471e-04  1.671101e-07
     84    101   2   0.50000    -0.0600000    0.0600000   2.494471e-04  1.671101e-07
     98     80   2   0.50000     0.0600000   -0.0600000   2.494471e-04  1.671101e-07
     98    100   2   0.50000     0.0600000    0.0600000   6.128906e-05  1.496315e-08
     98    101   2   0.50000     0.0600000    0.0600000   6.128906e-05  1.496315e-08
     99     80   2   0.50000     0.0600000   -0.0600000   2.494471e-04  1.671101e-07
     99    100   2   0.50000     0.0600000    0.0600000   6.128906e-05  1.496315e-08
     99    101   2   0.50000     0.0600000    0.0600000   6.128906e-05  1.496315e-08
     79     83   2   0.50000    -0.1200000   -0.1200000   1.015252e-03  1.866303e-06
     79     85   2   0.50000    -0.1200000    0.1900000   1.015252e-03  1.866303e-06
     79    109   2   0.50000    -0.1200000    0.0600000   2.494471e-04  1.671101e-07
     98     83   2   0.50000     0.0600000   -0.1200000   2.494471e-04  1.671101e-07
     98     85   2   0.50000     0.0600000    0.1900000   2.494471e-04  1.671101e-07
     98    109   2   0.50000     0.0600000    0.0600000   6.128906e-05  1.496315e-08
     99     83   2   0.50000     0.0600000   -0.1200000   2.494471e-04  1.671101e-07
     99     85   2   0.50000     0.0600000    0.1900000   2.494471e-04  1.671101e-07
     99    109   2   0.50000     0.0600000    0.0600000   6.128906e-05  1.496315e-08
     78     81   2   0.50000    -0.1200000    0.1900000   1.015252e-03  1.866303e-06
     78     82   2   0.50000    -0.1200000   -0.1200000   1.015252e-03  1.866303e-06
     78    102   2   0.50000    -0.1200000    0.0600000   2.494471e-04  1.671101e-07
    100     81   2   0.50000     0.0600000    0.1900000   2.494471e-04  1.671101e-07
    100     82   2   0.50000     0.0600000   -0.1200000   2.494471e-04  1.671101e-07
    100    102   2   0.50000     0.0600000    0.0600000   6.128906e-05  1.496315e-08
    101     81   2   0.50000     0.0600000    0.1900000   2.494471e-04  1.671101e-07
    101     82   2   0.50000     0.0600000   -0.1200000   2.494471e-04  1.671101e-07
    101    102   2   0.50000     0.0600000    0.0600000   6.128906e-05  1.496315e-08
     79     57   2   0.50000    -0.1200000   -0.3300000   1.026091e-03  1.187829e-06
     79    103   2   0.50000    -0.1200000    0.0300000   1.599888e-04  9.721644e-08
     79    104   2   0.50000    -0.1200000    0.0300000   1.599888e-04  9.721644e-08
     82     57   2   0.50000    -0.1200000   -0.3300000   1.026091e-03  1.187829e-06
     82    103   2   0.50000    -0.1200000    0.0300000   1.599888e-04  9.721644e-08
     82    104   2   0.50000    -0.1200000    0.0300000   1.599888e-04  9.721644e-08
    102     57   2   0.50000     0.0600000   -0.3300000   2.521103e-04  1.063590e-07
    102    103   2   0.50000     0.0600000    0.0300000   3.930919e-05  8.704828e-09
    102    104   2   0.50000     0.0600000    0.0300000   3.930919e-05  8.704828e-09
     79    105   2   0.50000    -0.1200000    0.0600000   2.494471e-04  1.671101e-07
     79    106   2   0.50000    -0.1200000    0.0600000   2.494471e-04  1.671101e-07
     81     83   2   0.50000     0.1900000   -0.1200000   1.015252e-03  1.866303e-06
     81    105   2   0.50000     0.1900000    0.0600000   2.494471e-04  1.671101e-07
     81    106   2   0.50000     0.1900000    0.0600000   2.494471e-04  1.671101e-07
    102     83   2   0.50000     0.0600000   -0.1200000   2.494471e-04  1.671101e-07
    102    105   2   0.50000     0.0600000    0.0600000   6.128906e-05  1.496315e-08
    102    106   2   0.50000     0.0600000    0.0600000   6.128906e-05  1.496315e-08
     80    107   2   0.50000    -0.0600000    0.0600000   2.494471e-04  1.671101e-07
     80    108   2   0.50000    -0.0600000    0.0600000   2.494471e-04  1.671101e-07
    105     84   2   0.50000     0.0600000   -0.0600000   2.494471e-04  1.671101e-07
    105    107   2   0.50000     0.0600000    0.0600000   6.128906e-05  1.496315e-08
    105    108   2   0.50000     0.0600000    0.0600000   6.128906e-05  1.496315e-08
    106     84   2   0.50000     0.0600000   -0.0600000   2.494471e-04  1.671101e-07
    106    107   2   0.50000     0.0600000    0.0600000   6.128906e-05  1.496315e-08
    106    108   2   0.50000     0.0600000    0.0600000   6.128906e-05  1.496315e-08
     82     85   2   0.50000    -0.1200000    0.1900000   1.015252e-03  1.866303e-06
     82    109   2   0.50000    -0.1200000    0.0600000   2.494471e-04  1.671101e-07
    107     78   2   0.50000     0.0600000   -0.1200000   2.494471e-04  1.671101e-07
    107     85   2   0.50000     0.0600000    0.1900000   2.494471e-04  1.671101e-07
    107    109   2   0.50000     0.0600000    0.0600000   6.128906e-05  1.496315e-08
    108     78   2   0.50000     0.0600000   -0.1200000   2.494471e-04  1.671101e-07
    108     85   2   0.50000     0.0600000    0.1900000   2.494471e-04  1.671101e-07
    108    109   2   0.50000     0.0600000    0.0600000   6.128906e-05  1.496315e-08
     78     86   2   0.50000    -0.1200000   -0.3300000   1.026091e-03  1.187829e-06
     78    110   2   0.50000    -0.1200000    0.0300000   1.599888e-04  9.721644e-08
     78    111   2   0.50000    -0.1200000    0.0300000   1.599888e-04  9.721644e-08
     83     86   2   0.50000    -0.1200000   -0.3300000   1.026091e-03  1.187829e-06
     83    110   2   0.50000    -0.1200000    0.0300000   1.599888e-04  9.721644e-08
     83    111   2   0.50000    -0.1200000    0.0300000   1.599888e-04  9.721644e-08
    109     86   2   0.50000     0.0600000   -0.3300000   2.521103e-04  1.063590e-07
    109    110   2   0.50000     0.0600000    0.0300000   3.930919e-05  8.704828e-09
    109    111   2   0.50000     0.0600000    0.0300000   3.930919e-05  8.704828e-09
     84     87   2   0.50000    -0.0600000    0.6250000   1.575021e-03  3.561100e-06
    110     87   2   0.50000     0.0300000    0.6250000   2.482000e-04  1.854991e-07
    111     87   2   0.50000     0.0300000    0.6250000   2.482000e-04  1.854991e-07
     85     88   2   0.50000     0.1900000   -0.4300000   1.095425e-03  1.218041e-06
     85     89   2   0.50000     0.1900000   -0.1150000   1.091018e-03  2.092768e-06
     86     90   2   0.50000    -0.3300000   -0.1150000   1.102666e-03  1.331965e-06
     86     97   2   0.50000    -0.3300000   -0.1150000   1.102666e-03  1.331965e-06
     88     90   2   0.50000    -0.4300000   -0.1150000   1.177174e-03  1.365843e-06
     88     97   2   0.50000    -0.4300000   -0.1150000   1.177174e-03  1.365843e-06
     87     91   2   0.50000     0.6250000   -0.1150000   1.692561e-03  3.993218e-06
     87    112   2   0.50000     0.6250000    0.1150000   3.510079e-04  2.623353e-07
     97     91   2   0.50000    -0.1150000   -0.1150000   1.172438e-03  2.346713e-06
     97    112   2   0.50000    -0.1150000    0.1150000   2.431434e-04  1.541678e-07
     87     96   2   0.50000     0.6250000   -0.1150000   1.692561e-03  3.993218e-06
     87    115   2   0.50000     0.6250000    0.1150000   3.510079e-04  2.623353e-07
     90     96   2   0.50000    -0.1150000   -0.1150000   1.172438e-03  2.346713e-06
     90    115   2   0.50000    -0.1150000    0.1150000   2.431434e-04  1.541678e-07
     89     92   2   0.50000    -0.1150000   -0.1150000   1.172438e-03  2.346713e-06
     89    113   2   0.50000    -0.1150000    0.1150000   2.431434e-04  1.541678e-07
    112     92   2   0.50000     0.1150000   -0.1150000   2.431434e-04  1.541678e-07
    112    113   2   0.50000     0.1150000    0.1150000   5.042375e-05  1.012808e-08
     90     93   2   0.50000    -0.1150000    0.6250000   1.692561e-03  3.993218e-06
    113     93   2   0.50000     0.1150000    0.6250000   3.510079e-04  2.623353e-07
    113     96   2   0.50000     0.1150000   -0.1150000   2.431434e-04  1.541678e-07
     91     94   2   0.50000    -0.1150000   -0.4300000   1.177174e-03  1.365843e-06
     91     95   2   0.50000    -0.1150000   -0.3300000   1.102666e-03  1.331965e-06
     96     94   2   0.50000    -0.1150000   -0.4300000   1.177174e-03  1.365843e-06
     96     95   2   0.50000    -0.1150000   -0.3300000   1.102666e-03  1.331965e-06
     91    114   2   0.50000    -0.1150000    0.1150000   2.431434e-04  1.541678e-07
     93     97   2   0.50000     0.6250000   -0.1150000   1.692561e-03  3.993218e-06
     93    114   2   0.50000     0.6250000    0.1150000   3.510079e-04  2.623353e-07
     92    119   2   0.50000    -0.1150000    0.1900000   1.091018e-03  2.092768e-06
     94    119   2   0.50000    -0.4300000    0.1900000   1.095425e-03  1.218041e-06
     93    118   2   0.50000     0.6250000   -0.0600000   1.575021e-03  3.561100e-06
     93    141   2   0.50000     0.6250000    0.0300000   2.482000e-04  1.854991e-07
     93    142   2   0.50000     0.6250000    0.0300000   2.482000e-04  1.854991e-07
     92    115   2   0.50000    -0.1150000    0.1150000   2.431434e-04  1.541678e-07
    114     89   2   0.50000     0.1150000   -0.1150000   2.431434e-04  1.541678e-07
    114    115   2   0.50000     0.1150000    0.1150000   5.042375e-05  1.012808e-08
    122    118   2   0.50000    -0.0600000   -0.0600000   1.015252e-03  1.866303e-06
    122    138   2   0.50000    -0.0600000    0.0600000   2.494471e-04  1.671101e-07
    122    139   2   0.50000    -0.0600000    0.0600000   2.494471e-04  1.671101e-07
    136    118   2   0.50000     0.0600000   -0.0600000   2.494471e-04  1.671101e-07
    136    138   2   0.50000     0.0600000    0.0600000   6.128906e-05  1.496315e-08
    136    139   2   0.50000     0.0600000    0.0600000   6.128906e-05  1.496315e-08
    137    118   2   0.50000     0.0600000   -0.0600000   2.494471e-04  1.671101e-07
    137    138   2   0.50000     0.0600000    0.0600000   6.128906e-05  1.496315e-08
    137    139   2   0.50000     0.0600000    0.0600000   6.128906e-05  1.496315e-08
    117    121   2   0.50000    -0.1200000   -0.1200000   1.015252e-03  1.866303e-06
    117    123   2   0.50000    -0.1200000    0.1900000   1.015252e-03  1.866303e-06
    117    147   2   0.50000    -0.1200000    0.0600000   2.494471e-04  1.671101e-07
    136    121   2   0.50000     0.0600000   -0.1200000   2.494471e-04  1.671101e-07
    136    123   2   0.50000     0.0600000    0.1900000   2.494471e-04  1.671101e-07
    136    147   2   0.50000     0.0600000    0.0600000   6.128906e-05  1.496315e-08
    137    121   2   0.50000     0.0600000   -0.1200000   2.494471e-04  1.671101e-07
    137    123   2   0.50000     0.0600000    0.1900000   2.494471e-04  1.671101e-07
    137    147   2   0.50000     0.0600000    0.0600000   6.128906e-05  1.496315e-08
    116    119   2   0.50000    -0.1200000    0.1900000   1.015252e-03  1.866303e-06
    116    120   2   0.50000    -0.1200000   -0.1200000   1.015252e-03  1.866303e-06
    116    140   2   0.50000    -0.1200000    0.0600000   2.494471e-04  1.671101e-07
    138    119   2   0.50000     0.0600000    0.1900000   2.494471e-04  1.671101e-07
    138    120   2   0.50000     0.0600000   -0.1200000   2.494471e-04  1.671101e-07
    138    140   2   0.50000     0.0600000    0.0600000   6.128906e-05  1.496315e-08
    139    119   2   0.50000     0.0600000    0.1900000   2.494471e-04  1.671101e-07
    139    120   2   0.50000     0.0600000   -0.1200000   2.494471e-04  1.671101e-07
    139    140   2   0.50000     0.0600000    0.0600000   6.128906e-05  1.496315e-08
    117     95   2   0.50000    -0.1200000   -0.3300000   1.026091e-03  1.187829e-06
    117    141   2   0.50000    -0.1200000    0.0300000   1.599888e-04  9.721644e-08
    117    142   2   0.50000    -0.1200000    0.0300000   1.599888e-04  9.721644e-08
    120     95   2   0.50000    -0.1200000   -0.3300000   1.026091e-03  1.187829e-06
    120    141   2   0.50000    -0.1200000    0.0300000   1.599888e-04  9.721644e-08
    120    142   2   0.50000    -0.1200000    0.0300000   1.599888e-04  9.721644e-08
    140     95   2   0.50000     0.0600000   -0.3300000   2.521103e-04  1.063590e-07
    140    141   2   0.50000     0.0600000    0.0300000   3.930919e-05  8.704828e-09
    140    142   2   0.50000     0.0600000    0.0300000   3.930919e-05  8.704828e-09
    117    143   2   0.50000    -0.1200000    0.0600000   2.494471e-04  1.671101e-07
    117    144   2   0.50000    -0.1200000    0.0600000   2.494471e-04  1.671101e-07
    119    121   2   0.50000     0.1900000   -0.1200000   1.015252e-03  1.866303e-06
    119    143   2   0.50000     0.1900000    0.0600000   2.494471e-04  1.671101e-07
    119    144   2   0.50000     0.1900000    0.0600000   2.494471e-04  1.671101e-07
    140    121   2   0.50000     0.0600000   -0.1200000   2.494471e-04  1.671101e-07
    140    143   2   0.50000     0.0600000    0.0600000   6.128906e-05  1.496315e-08
    140    144   2   0.50000     0.0600000    0.0600000   6.128906e-05  1.496315e-08
    118    145   2   0.50000    -0.0600000    0.0600000   2.494471e-04  1.671101e-07
    118    146   2   0.50000    -0.0600000    0.0600000   2.494471e-04  1.671101e-07
    143    122   2   0.50000     0.0600000   -0.0600000   2.494471e-04  1.671101e-07
    143    145   2   0.50000     0.0600000    0.0600000   6.128906e-05  1.496315e-08
    143    146   2   0.50000     0.0600000    0.0600000   6.128906e-05  1.496315e-08
    144    122   2   0.50000     0.0600000   -0.0600000   2.494471e-04  1.671101e-07
    144    145   2   0.50000     0.0600000    0.0600000   6.128906e-05  1.496315e-08
    144    146   2   0.50000     0.0600000    0.0600000   6.128906e-05  1.496315e-08
    120    123   2   0.50000    -0.1200000    0.1900000   1.015252e-03  1.866303e-06
    120    147   2   0.50000    -0.1200000    0.0600000   2.494471e-04  1.671101e-07
    145    116   2   0.50000     0.0600000   -0.1200000   2.494471e-04  1.671101e-07
    145    123   2   0.50000     0.0600000    0.1900000   2.494471e-04  1.671101e-07
    145    147   2   0.50000     0.0600000    0.0600000   6.128906e-05  1.496315e-08
    146    116   2   0.50000     0.0600000   -0.1200000   2.494471e-04  1.671101e-07
    146    123   2   0.50000     0.0600000    0.1900000   2.494471e-04  1.671101e-07
    146    147   2   0.50000     0.0600000    0.0600000   6.128906e-05  1.496315e-08
    116    124   2   0.50000    -0.1200000   -0.3300000   1.026091e-03  1.187829e-06
    116    148   2   0.50000    -0.1200000    0.0300000   1.599888e-04  9.721644e-08
    116    149   2   0.50000    -0.1200000    0.0300000   1.599888e-04  9.721644e-08
    121    124   2   0.50000    -0.1200000   -0.3300000   1.026091e-03  1.187829e-06
    121    148   2   0.50000    -0.1200000    0.0300000   1.599888e-04  9.721644e-08
    121    149   2   0.50000    -0.1200000    0.0300000   1.599888e-04  9.721644e-08
    147    124   2   0.50000     0.0600000   -0.3300000   2.521103e-04  1.063590e-07
    147    148   2   0.50000     0.0600000    0.0300000   3.930919e-05  8.704828e-09
    147    149   2   0.50000     0.0600000    0.0300000   3.930919e-05  8.704828e-09
    122    125   2   0.50000    -0.0600000    0.6250000   1.575021e-03  3.561100e-06
    148    125   2   0.50000     0.0300000    0.6250000   2.482000e-04  1.854991e-07
    149    125   2   0.50000     0.0300000    0.6250000   2.482000e-04  1.854991e-07
    123    126   2   0.50000     0.1900000   -0.4300000   1.095425e-03  1.218041e-06
    123    127   2   0.50000     0.1900000   -0.1150000   1.091018e-03  2.092768e-06
    124    128   2   0.50000    -0.3300000   -0.1150000   1.102666e-03  1.331965e-06
    124    135   2   0.50000    -0.3300000   -0.1150000   1.102666e-03  1.331965e-06
    126    128   2   0.50000    -0.4300000   -0.1150000   1.177174e-03  1.365843e-06
    126    135   2   0.50000    -0.4300000   -0.1150000   1.177174e-03  1.365843e-06
    125    129   2   0.50000     0.6250000   -0.1150000   1.692561e-03  3.993218e-06
    125    150   2   0.50000     0.6250000    0.1150000   3.510079e-04  2.623353e-07
    135    129   2   0.50000    -0.1150000   -0.1150000   1.172438e-03  2.346713e-06
    135    150   2   0.50000    -0.1150000    0.1150000   2.431434e-04  1.541678e-07
    125    134   2   0.50000     0.6250000   -0.1150000   1.692561e-03  3.993218e-06
    125    153   2   0.50000     0.6250000    0.1150000   3.510079e-04  2.623353e-07
    128    134   2   0.50000    -0.1150000   -0.1150000   1.172438e-03  2.346713e-06
    128    153   2   0.50000    -0.1150000    0.1150000   2.431434e-04  1.541678e-07
    127    130   2   0.50000    -0.1150000   -0.1150000   1.172438e-03  2.346713e-06
    127    151   2   0.50000    -0.1150000    0.1150000   2.431434e-04  1.541678e-07
    150    130   2   0.50000     0.1150000   -0.1150000   2.431434e-04  1.541678e-07
    150    151   2   0.50000     0.1150000    0.1150000   5.042375e-05  1.012808e-08
    128    131   2   0.50000    -0.1150000    0.6250000   1.692561e-03  3.993218e-06
    151    131   2   0.50000     0.1150000    0.6250000   3.510079e-04  2.623353e-07
    151    134   2   0.50000     0.1150000   -0.1150000   2.431434e-04  1.541678e-07
    129    132   2   0.50000    -0.1150000   -0.4300000   1.177174e-03  1.365843e-06
    129    133   2   0.50000    -0.1150000   -0.3300000   1.102666e-03  1.331965e-06
    134    132   2   0.50000    -0.1150000   -0.4300000   1.177174e-03  1.365843e-06
    134    133   2   0.50000    -0.1150000   -0.3300000   1.102666e-03  1.331965e-06
    129    152   2   0.50000    -0.1150000    0.1150000   2.431434e-04  1.541678e-07
    131    135   2   0.50000     0.6250000   -0.1150000   1.692561e-03  3.993218e-06
    131    152   2   0.50000     0.6250000    0.1150000   3.510079e-04  2.623353e-07
    130    157   2   0.50000    -0.1150000    0.1900000   1.091018e-03  2.092768e-06
    132    157   2   0.50000    -0.4300000    0.1900000   1.095425e-03  1.218041e-06
    131    156   2   0.50000     0.6250000   -0.0600000   1.575021e-03  3.561100e-06
    131    179   2   0.50000     0.6250000    0.0300000   2.482000e-04  1.854991e-07
    131    180   2   0.50000     0.6250000    0.0300000   2.482000e-04  1.854991e-07
    130    153   2   0.50000    -0.1150000    0.1150000   2.431434e-04  1.541678e-07
    152    127   2   0.50000     0.1150000   -0.1150000   2.431434e-04  1.541678e-07
    152    153   2   0.50000     0.1150000    0.1150000   5.042375e-05  1.012808e-08
    160    156   2   0.50000    -0.0600000   -0.0600000   1.015252e-03  1.866303e-06
    160    176   2   0.50000    -0.0600000    0.0600000   2.494471e-04  1.671101e-07
    160    177   2   0.50000    -0.0600000    0.0600000   2.494471e-04  1.671101e-07
    174    156   2   0.50000     0.0600000   -0.0600000   2.494471e-04  1.671101e-07
    174    176   2   0.50000     0.0600000    0.0600000   6.128906e-05  1.496315e-08
    174    177   2   0.50000     0.0600000    0.0600000   6.128906e-05  1.496315e-08
    175    156   2   0.50000     0.0600000   -0.0600000   2.494471e-04  1.671101e-07
    175    176   2   0.50000     0.0600000    0.0600000   6.128906e-05  1.496315e-08
    175    177   2   0.50000     0.0600000    0.0600000   6.128906e-05  1.496315e-08
    155    159   2   0.50000    -0.1200000   -0.1200000   1.015252e-03  1.866303e-06
    155    161   2   0.50000    -0.1200000    0.1900000   1.015252e-03  1.866303e-06
    155    185   2   0.50000    -0.1200000    0.0600000   2.494471e-04  1.671101e-07
    174    159   2   0.50000     0.0600000   -0.1200000   2.494471e-04  1.671101e-07
    174    161   2   0.50000     0.0600000    0.1900000   2.494471e-04  1.671101e-07
    174    185   2   0.50000     0.0600000    0.0600000   6.128906e-05  1.496315e-08
    175    159   2   0.50000     0.0600000   -0.1200000   2.494471e-04  1.671101e-07
    175    161   2   0.50000     0.0600000    0.1900000   2.494471e-04  1.671101e-07
    175    185   2   0.50000     0.0600000    0.0600000   6.128906e-05  1.496315e-08
    154    157   2   0.50000    -0.1200000    0.1900000   1.015252e-03  1.866303e-06
    154    158   2   0.50000    -0.1200000   -0.1200000   1.015252e-03  1.866303e-06
    154    178   2   0.50000    -0.1200000    0.0600000   2.494471e-04  1.671101e-07
    176    157   2   0.50000     0.0600000    0.1900000   2.494471e-04  1.671101e-07
    176    158   2   0.50000     0.0600000   -0.1200000   2.494471e-04  1.671101e-07
    176    178   2   0.50000     0.0600000    0.0600000   6.128906e-05  1.496315e-08
    177    157   2   0.50000     0.0600000    0.1900000   2.494471e-04  1.671101e-07
    177    158   2   0.50000     0.0600000   -0.1200000   2.494471e-04  1.671101e-07
    177    178   2   0.50000     0.0600000    0.0600000   6.128906e-05  1.496315e-08
    155    133   2   0.50000    -0.1200000   -0.3300000   1.026091e-03  1.187829e-06
    155    179   2   0.50000    -0.1200000    0.0300000   1.599888e-04  9.721644e-08
    155    180   2   0.50000    -0.1200000    0.0300000   1.599888e-04  9.721644e-08
    158    133   2   0.50000    -0.1200000   -0.3300000   1.026091e-03  1.187829e-06
    158    179   2   0.50000    -0.1200000    0.0300000   1.599888e-04  9.721644e-08
    158    180   2   0.50000    -0.1200000    0.0300000   1.599888e-04  9.721644e-08
    178    133   2   0.50000     0.0600000   -0.3300000   2.521103e-04  1.063590e-07
    178    179   2   0.50000     0.0600000    0.0300000   3.930919e-05  8.704828e-09
    178    180   2   0.50000     0.0600000    0.0300000   3.930919e-05  8.704828e-09
    155    181   2   0.50000    -0.1200000    0.0600000   2.494471e-04  1.671101e-07
    155    182   2   0.50000    -0.1200000    0.0600000   2.494471e-04  1.671101e-07
    157    159   2   0.50000     0.1900000   -0.1200000   1.015252e-03  1.866303e-06
    157    181   2   0.50000     0.1900000    0.0600000   2.494471e-04  1.671101e-07
    157    182   2   0.50000     0.1900000    0.0600000   2.494471e-04  1.671101e-07
    178    159   2   0.50000     0.0600000   -0.1200000   2.494471e-04  1.671101e-07
    178    181   2   0.50000     0.0600000    0.0600000   6.128906e-05  1.496315e-08
    178    182   2   0.50000     0.0600000    0.0600000   6.128906e-05  1.496315e-08
    156    183   2   0.50000    -0.0600000    0.0600000   2.494471e-04  1.671101e-07
    156    184   2   0.50000    -0.0600000    0.0600000   2.494471e-04  1.671101e-07
    181    160   2   0.50000     0.0600000   -0.0600000   2.494471e-04  1.671101e-07
    181    183   2   0.50000     0.0600000    0.0600000   6.128906e-05  1.496315e-08
    181    184   2   0.50000     0.0600000    0.0600000   6.128906e-05  1.496315e-08
    182    160   2   0.50000     0.0600000   -0.0600000   2.494471e-04  1.671101e-07
    182    183   2   0.50000     0.0600000    0.0600000   6.128906e-05  1.496315e-08
    182    184   2   0.50000     0.0600000    0.0600000   6.128906e-05  1.496315e-08
    158    161   2   0.50000    -0.1200000    0.1900000   1.015252e-03  1.866303e-06
    158    185   2   0.50000    -0.1200000    0.0600000   2.494471e-04  1.671101e-07
    183    154   2   0.50000     0.0600000   -0.1200000   2.494471e-04  1.671101e-07
    183    161   2   0.50000     0.0600000    0.1900000   2.494471e-04  1.671101e-07
    183    185   2   0.50000     0.0600000    0.0600000   6.128906e-05  1.496315e-08
    184    154   2   0.50000     0.0600000   -0.1200000   2.494471e-04  1.671101e-07
    184    161   2   0.50000     0.0600000    0.1900000   2.494471e-04  1.671101e-07
    184    185   2   0.50000     0.0600000    0.0600000   6.128906e-05  1.496315e-08
    154    162   2   0.50000    -0.1200000   -0.3300000   1.026091e-03  1.187829e-06
    154    186   2   0.50000    -0.1200000    0.0300000   1.599888e-04  9.721644e-08
    154    187   2   0.50000    -0.1200000    0.0300000   1.599888e-04  9.721644e-08
    159    162   2   0.50000    -0.1200000   -0.3300000   1.026091e-03  1.187829e-06
    159    186   2   0.50000    -0.1200000    0.0300000   1.599888e-04  9.721644e-08
    159    187   2   0.50000    -0.1200000    0.0300000   1.599888e-04  9.721644e-08
    185    162   2   0.50000     0.0600000   -0.3300000   2.521103e-04  1.063590e-07
    185    186   2   0.50000     0.0600000    0.0300000   3.930919e-05  8.704828e-09
    185    187   2   0.50000     0.0600000    0.0300000   3.930919e-05  8.704828e-09
    160    163   2   0.50000    -0.0600000    0.6250000   1.575021e-03  3.561100e-06
    186    163   2   0.50000     0.0300000    0.6250000   2.482000e-04  1.854991e-07
    187    163   2   0.50000     0.0300000    0.6250000   2.482000e-04  1.854991e-07
    161    164   2   0.50000     0.1900000   -0.4300000   1.095425e-03  1.218041e-06
    161    165   2   0.50000     0.1900000   -0.1150000   1.091018e-03  2.092768e-06
    162    166   2   0.50000    -0.3300000   -0.1150000   1.102666e-03  1.331965e-06
    162    173   2   0.50000    -0.3300000   -0.1150000   1.102666e-03  1.331965e-06
    164    166   2   0.50000    -0.4300000   -0.1150000   1.177174e-03  1.365843e-06
    164    173   2   0.50000    -0.4300000   -0.1150000   1.177174e-03  1.365843e-06
    163    167   2   0.50000     0.6250000   -0.1150000   1.692561e-03  3.993218e-06
    163    188   2   0.50000     0.6250000    0.1150000   3.510079e-04  2.623353e-07
    173    167   2   0.50000    -0.1150000   -0.1150000   1.172438e-03  2.346713e-06
    173    188   2   0.50000    -0.1150000    0.1150000   2.431434e-04  1.541678e-07
    163    172   2   0.50000     0.6250000   -0.1150000   1.692561e-03  3.993218e-06
    163    191   2   0.50000     0.6250000    0.1150000   3.510079e-04  2.623353e-07
    166    172   2   0.50000    -0.1150000   -0.1150000   1.172438e-03  2.346713e-06
    166    191   2   0.50000    -0.1150000    0.1150000   2.431434e-04  1.541678e-07
    165    168   2   0.50000    -0.1150000   -0.1150000   1.172438e-03  2.346713e-06
    165    189   2   0.50000    -0.1150000    0.1150000   2.431434e-04  1.541678e-07
    188    168   2   0.50000     0.1150000   -0.1150000   2.431434e-04  1.541678e-07
    188    189   2   0.50000     0.1150000    0.1150000   5.042375e-05  1.012808e-08
    166    169   2   0.50000    -0.1150000    0.6250000   1.692561e-03  3.993218e-06
    189    169   2   0.50000     0.1150000    0.6250000   3.510079e-04  2.623353e-07
    189    172   2   0.50000     0.1150000   -0.1150000   2.431434e-04  1.541678e-07
    167    170   2   0.50000    -0.1150000   -0.4300000   1.177174e-03  1.365843e-06
    167    171   2   0.50000    -0.1150000   -0.3300000   1.102666e-03  1.331965e-06
    172    170   2   0.50000    -0.1150000   -0.4300000   1.177174e-03  1.365843e-06
    172    171   2   0.50000    -0.1150000   -0.3300000   1.102666e-03  1.331965e-06
    167    190   2   0.50000    -0.1150000    0.1150000   2.431434e-04  1.541678e-07
    169    173   2   0.50000     0.6250000   -0.1150000   1.692561e-03  3.993218e-06
    169    190   2   0.50000     0.6250000    0.1150000   3.510079e-04  2.623353e-07
    168    195   2   0.50000    -0.1150000    0.1900000   1.091018e-03  2.092768e-06
    170    195   2   0.50000    -0.4300000    0.1900000   1.095425e-03  1.218041e-06
    169    194   2   0.50000     0.6250000   -0.0600000   1.575021e-03  3.561100e-06
    169    217   2   0.50000     0.6250000    0.0300000   2.482000e-04  1.854991e-07
    169    218   2   0.50000     0.6250000    0.0300000   2.482000e-04  1.854991e-07
    168    191   2   0.50000    -0.1150000    0.1150000   2.431434e-04  1.541678e-07
    190    165   2   0.50000     0.1150000   -0.1150000   2.431434e-04  1.541678e-07
    190    191   2   0.50000     0.1150000    0.1150000   5.042375e-05  1.012808e-08
    198    194   2   0.50000    -0.0600000   -0.0600000   1.015252e-03  1.866303e-06
    198    214   2   0.50000    -0.0600000    0.0600000   2.494471e-04  1.671101e-07
    198    215   2   0.50000    -0.0600000    0.0600000   2.494471e-04  1.671101e-07
    212    194   2   0.50000     0.0600000   -0.0600000   2.494471e-04  1.671101e-07
    212    214   2   0.50000     0.0600000    0.0600000   6.128906e-05  1.496315e-08
    212    215   2   0.50000     0.0600000    0.0600000   6.128906e-05  1.496315e-08
    213    194   2   0.50000     0.0600000   -0.0600000   2.494471e-04  1.671101e-07
    213    214   2   0.50000     0.0600000    0.0600000   6.128906e-05  1.496315e-08
    213    215   2   0.50000     0.0600000    0.0600000   6.128906e-05  1.496315e-08
    193    197   2   0.50000    -0.1200000   -0.1200000   1.015252e-03  1.866303e-06
    193    199   2   0.50000    -0.1200000    0.1900000   1.015252e-03  1.866303e-06
    193    223   2   0.50000    -0.1200000    0.0600000   2.494471e-04  1.671101e-07
    212    197   2   0.50000     0.0600000   -0.1200000   2.494471e-04  1.671101e-07
    212    199   2   0.50000     0.0600000    0.1900000   2.494471e-04  1.671101e-07
    212    223   2   0.50000     0.0600000    0.0600000   6.128906e-05  1.496315e-08
    213    197   2   0.50000     0.0600000   -0.1200000   2.494471e-04  1.671101e-07
    213    199   2   0.50000     0.0600000    0.1900000   2.494471e-04  1.671101e-07
    213    223   2   0.50000     0.0600000    0.0600000   6.128906e-05  1.496315e-08
    192    195   2   0.50000    -0.1200000    0.1900000   1.015252e-03  1.866303e-06
    192    196   2   0.50000    -0.1200000   -0.1200000   1.015252e-03  1.866303e-06
    192    216   2   0.50000    -0.1200000    0.0600000   2.494471e-04  1.671101e-07
    214    195   2   0.50000     0.0600000    0.1900000   2.494471e-04  1.671101e-07
    214    196   2   0.50000     0.0600000   -0.1200000   2.494471e-04  1.671101e-07
    214    216   2   0.50000     0.0600000    0.0600000   6.128906e-05  1.496315e-08
    215    195   2   0.50000     0.0600000    0.1900000   2.494471e-04  1.671101e-07
    215    196   2   0.50000     0.0600000   -0.1200000   2.494471e-04  1.671101e-07
    215    216   2   0.50000     0.0600000    0.0600000   6.128906e-05  1.496315e-08
    193    171   2   0.50000    -0.1200000   -0.3300000   1.026091e-03  1.187829e-06
    193    217   2   0.50000    -0.1200000    0.0300000   1.599888e-04  9.721644e-08
    193    218   2   0.50000    -0.1200000    0.0300000   1.599888e-04  9.721644e-08
    196    171   2   0.50000    -0.1200000   -0.3300000   1.026091e-03  1.187829e-06
    196    217   2   0.50000    -0.1200000    0.0300000   1.599888e-04  9.721644e-08
    196    218   2   0.50000    -0.1200000    0.0300000   1.599888e-04  9.721644e-08
    216    171   2   0.50000     0.0600000   -0.3300000   2.521103e-04  1.063590e-07
    216    217   2   0.50000     0.0600000    0.0300000   3.930919e-05  8.704828e-09
    216    218   2   0.50000     0.0600000    0.0300000   3.930919e-05  8.704828e-09
    193    219   2   0.50000    -0.1200000    0.0600000   2.494471e-04  1.671101e-07
    193    220   2   0.50000    -0.1200000    0.0600000   2.494471e-04  1.671101e-07
    195    197   2   0.50000     0.1900000   -0.1200000   1.015252e-03  1.866303e-06
    195    219   2   0.50000     0.1900000    0.0600000   2.494471e-04  1.671101e-07
    195    220   2   0.50000     0.1900000    0.0600000   2.494471e-04  1.671101e-07
    216    197   2   0.50000     0.0600000   -0.1200000   2.494471e-04  1.671101e-07
    216    219   2   0.50000     0.0600000    0.0600000   6.128906e-05  1.496315e-08
    216    220   2   0.50000     0.0600000    0.0600000   6.128906e-05  1.496315e-08
    194    221   2   0.50000    -0.0600000    0.0600000   2.494471e-04  1.671101e-07
    194    222   2   0.50000    -0.0600000    0.0600000   2.494471e-04  1.671101e-07
    219    198   2   0.50000     0.0600000   -0.0600000   2.494471e-04  1.671101e-07
    219    221   2   0.50000     0.0600000    0.0600000   6.128906e-05  1.496315e-08
    219    222   2   0.50000     0.0600000    0.0600000   6.128906e-05  1.496315e-08
    220    198   2   0.50000     0.0600000   -0.0600000   2.494471e-04  1.671101e-07
    220    221   2   0.50000     0.0600000    0.0600000   6.128906e-05  1.496315e-08
    220    222   2   0.50000     0.0600000    0.0600000   6.128906e-05  1.496315e-08
    196    199   2   0.50000    -0.1200000    0.1900000   1.015252e-03  1.866303e-06
    196    223   2   0.50000    -0.1200000    0.0600000   2.494471e-04  1.671101e-07
    221    192   2   0.50000     0.0600000   -0.1200000   2.494471e-04  1.671101e-07
    221    199   2   0.50000     0.0600000    0.1900000   2.494471e-04  1.671101e-07
    221    223   2   0.50000     0.0600000    0.0600000   6.128906e-05  1.496315e-08
    222    192   2   0.50000     0.0600000   -0.1200000   2.494471e-04  1.671101e-07
    222    199   2   0.50000     0.0600000    0.1900000   2.494471e-04  1.671101e-07
    222    223   2   0.50000     0.0600000    0.0600000   6.128906e-05  1.496315e-08
    192    200   2   0.50000    -0.1200000   -0.3300000   1.026091e-03  1.187829e-06
    192    224   2   0.50000    -0.1200000    0.0300000   1.599888e-04  9.721644e-08
    192    225   2   0.50000    -0.1200000    0.0300000   1.599888e-04  9.721644e-08
    197    200   2   0.50000    -0.1200000   -0.3300000   1.026091e-03  1.187829e-06
    197    224   2   0.50000    -0.1200000    0.0300000   1.599888e-04  9.721644e-08
    197    225   2   0.50000    -0.1200000    0.0300000   1.599888e-04  9.721644e-08
    223    200   2   0.50000     0.0600000   -0.3300000   2.521103e-04  1.063590e-07
    223    224   2   0.50000     0.0600000    0.0300000   3.930919e-05  8.704828e-09
    223    225   2   0.50000     0.0600000    0.0300000   3.930919e-05  8.704828e-09
    198    201   2   0.50000    -0.0600000    0.6250000   1.575021e-03  3.561100e-06
    224    201   2   0.50000     0.0300000    0.6250000   2.482000e-04  1.854991e-07
    225    201   2   0.50000     0.0300000    0.6250000   2.482000e-04  1.854991e-07
    199    202   2   0.50000     0.1900000   -0.4300000   1.095425e-03  1.218041e-06
    199    203   2   0.50000     0.1900000   -0.1150000   1.091018e-03  2.092768e-06
    200    204   2   0.50000    -0.3300000   -0.1150000   1.102666e-03  1.331965e-06
    200    211   2   0.50000    -0.3300000   -0.1150000   1.102666e-03  1.331965e-06
    202    204   2   0.50000    -0.4300000   -0.1150000   1.177174e-03  1.365843e-06
    202    211   2   0.50000    -0.4300000   -0.1150000   1.177174e-03  1.365843e-06
    201    205   2   0.50000     0.6250000   -0.1150000   1.692561e-03  3.993218e-06
    201    226   2   0.50000     0.6250000    0.1150000   3.510079e-04  2.623353e-07
    211    205   2   0.50000    -0.1150000   -0.1150000   1.172438e-03  2.346713e-06
    211    226   2   0.50000    -0.1150000    0.1150000   2.431434e-04  1.541678e-07
    201    210   2   0.50000     0.6250000   -0.1150000   1.692561e-03  3.993218e-06
    201    229   2   0.50000     0.6250000    0.1150000   3.510079e-04  2.623353e-07
    204    210   2   0.50000    -0.1150000   -0.1150000   1.172438e-03  2.346713e-06
    204    229   2   0.50000    -0.1150000    0.1150000   2.431434e-04  1.541678e-07
    203    206   2   0.50000    -0.1150000   -0.1150000   1.172438e-03  2.346713e-06
    203    227   2   0.50000    -0.1150000    0.1150000   2.431434e-04  1.541678e-07
    226    206   2   0.50000     0.1150000   -0.1150000   2.431434e-04  1.541678e-07
    226    227   2   0.50000     0.1150000    0.1150000   5.042375e-05  1.012808e-08
    204    207   2   0.50000    -0.1150000    0.6250000   1.692561e-03  3.993218e-06
    227    207   2   0.50000     0.1150000    0.6250000   3.510079e-04  2.623353e-07
    227    210   2   0.50000     0.1150000   -0.1150000   2.431434e-04  1.541678e-07
    205    208   2   0.50000    -0.1150000   -0.4300000   1.177174e-03  1.365843e-06
    205    209   2   0.50000    -0.1150000   -0.3300000   1.102666e-03  1.331965e-06
    210    208   2   0.50000    -0.1150000   -0.4300000   1.177174e-03  1.365843e-06
    210    209   2   0.50000    -0.1150000   -0.3300000   1.102666e-03  1.331965e-06
    205    228   2   0.50000    -0.1150000    0.1150000   2.431434e-04  1.541678e-07
    207    211   2   0.50000     0.6250000   -0.1150000   1.692561e-03  3.993218e-06
    207    228   2   0.50000     0.6250000    0.1150000   3.510079e-04  2.623353e-07
    206    233   2   0.50000    -0.1150000    0.1900000   1.091018e-03  2.092768e-06
    208    233   2   0.50000    -0.4300000    0.1900000   1.095425e-03  1.218041e-06
    207    232   2   0.50000     0.6250000   -0.0600000   1.575021e-03  3.561100e-06
    207    255   2   0.50000     0.6250000    0.0300000   2.482000e-04  1.854991e-07
    207    256   2   0.50000     0.6250000    0.0300000   2.482000e-04  1.854991e-07
    206    229   2   0.50000    -0.1150000    0.1150000   2.431434e-04  1.541678e-07
    228    203   2   0.50000     0.1150000   -0.1150000   2.431434e-04  1.541678e-07
    228    229   2   0.50000     0.1150000    0.1150000   5.042375e-05  1.012808e-08
    236    232   2   0.50000    -0.0600000   -0.0600000   1.015252e-03  1.866303e-06
    236    252   2   0.50000    -0.0600000    0.0600000   2.494471e-04  1.671101e-07
    236    253   2   0.50000    -0.0600000    0.0600000   2.494471e-04  1.671101e-07
    250    232   2   0.50000     0.0600000   -0.0600000   2.494471e-04  1.671101e-07
    250    252   2   0.50000     0.0600000    0.0600000   6.128906e-05  1.496315e-08
    250    253   2   0.50000     0.0600000    0.0600000   6.128906e-05  1.496315e-08
    251    232   2   0.50000     0.0600000   -0.0600000   2.494471e-04  1.671101e-07
    251    252   2   0.50000     0.0600000    0.0600000   6.128906e-05  1.496315e-08
    251    253   2   0.50000     0.0600000    0.0600000   6.128906e-05  1.496315e-08
    231    235   2   0.50000    -0.1200000   -0.1200000   1.015252e-03  1.866303e-06
    231    237   2   0.50000    -0.1200000    0.1900000   1.015252e-03  1.866303e-06
    231    261   2   0.50000    -0.1200000    0.0600000   2.494471e-04  1.671101e-07
    250    235   2   0.50000     0.0600000   -0.1200000   2.494471e-04  1.671101e-07
    250    237   2   0.50000     0.0600000    0.1900000   2.494471e-04  1.671101e-07
    250    261   2   0.50000     0.0600000    0.0600000   6.128906e-05  1.496315e-08
    251    235   2   0.50000     0.0600000   -0.1200000   2.494471e-04  1.671101e-07
    251    237   2   0.50000     0.0600000    0.1900000   2.494471e-04  1.671101e-07
    251    261   2   0.50000     0.0600000    0.0600000   6.128906e-05  1.496315e-08
    230    233   2   0.50000    -0.1200000    0.1900000   1.015252e-03  1.866303e-06
    230    234   2   0.50000    -0.1200000   -0.1200000   1.015252e-03  1.866303e-06
    230    254   2   0.50000    -0.1200000    0.0600000   2.494471e-04  1.671101e-07
    252    233   2   0.50000     0.0600000    0.1900000   2.494471e-04  1.671101e-07
    252    234   2   0.50000     0.0600000   -0.1200000   2.494471e-04  1.671101e-07
    252    254   2   0.50000     0.0600000    0.0600000   6.128906e-05  1.496315e-08
    253    233   2   0.50000     0.0600000    0.1900000   2.494471e-04  1.671101e-07
    253    234   2   0.50000     0.0600000   -0.1200000   2.494471e-04  1.671101e-07
    253    254   2   0.50000     0.0600000    0.0600000   6.128906e-05  1.496315e-08
    231    209   2   0.50000    -0.1200000   -0.3300000   1.026091e-03  1.187829e-06
    231    255   2   0.50000    -0.1200000    0.0300000   1.599888e-04  9.721644e-08
    231    256   2   0.50000    -0.1200000    0.0300000   1.599888e-04  9.721644e-08
    234    209   2   0.50000    -0.1200000   -0.3300000   1.026091e-03  1.187829e-06
    234    255   2   0.50000    -0.1200000    0.0300000   1.599888e-04  9.721644e-08
    234    256   2   0.50000    -0.1200000    0.0300000   1.599888e-04  9.721644e-08
    254    209   2   0.50000     0.0600000   -0.3300000   2.521103e-04  1.063590e-07
    254    255   2   0.50000     0.0600000    0.0300000   3.930919e-05  8.704828e-09
    254    256   2   0.50000     0.0600000    0.0300000   3.930919e-05  8.704828e-09
    231    257   2   0.50000    -0.1200000    0.0600000   2.494471e-04  1.671101e-07
    231    258   2   0.50000    -0.1200000    0.0600000   2.494471e-04  1.671101e-07
    233    235   2   0.50000     0.1900000   -0.1200000   1.015252e-03  1.866303e-06
    233    257   2   0.50000     0.1900000    0.0600000   2.494471e-04  1.671101e-07
    233    258   2   0.50000     0.1900000    0.0600000   2.494471e-04  1.671101e-07
    254    235   2   0.50000     0.0600000   -0.1200000   2.494471e-04  1.671101e-07
    254    257   2   0.50000     0.0600000    0.0600000   6.128906e-05  1.496315e-08
    254    258   2   0.50000     0.0600000    0.0600000   6.128906e-05  1.496315e-08
    232    259   2   0.50000    -0.0600000    0.0600000   2.494471e-04  1.671101e-07
    232    260   2   0.50000    -0.0600000    0.0600000   2.494471e-04  1.671101e-07
    257    236   2   0.50000     0.0600000   -0.0600000   2.494471e-04  1.671101e-07
    257    259   2   0.50000     0.0600000    0.0600000   6.128906e-05  1.496315e-08
    257    260   2   0.50000     0.0600000    0.0600000   6.128906e-05  1.496315e-08
    258    236   2   0.50000     0.0600000   -0.0600000   2.494471e-04  1.671101e-07
    258    259   2   0.50000     0.0600000    0.0600000   6.128906e-05  1.496315e-08
    258    260   2   0.50000     0.0600000    0.0600000   6.128906e-05  1.496315e-08
    234    237   2   0.50000    -0.1200000    0.1900000   1.015252e-03  1.866303e-06
    234    261   2   0.50000    -0.1200000    0.0600000   2.494471e-04  1.671101e-07
    259    230   2   0.50000     0.0600000   -0.1200000   2.494471e-04  1.671101e-07
    259    237   2   0.50000     0.0600000    0.1900000   2.494471e-04  1.671101e-07
    259    261   2   0.50000     0.0600000    0.0600000   6.128906e-05  1.496315e-08
    260    230   2   0.50000     0.0600000   -0.1200000   2.494471e-04  1.671101e-07
    260    237   2   0.50000     0.0600000    0.1900000   2.494471e-04  1.671101e-07
    260    261   2   0.50000     0.0600000    0.0600000   6.128906e-05  1.496315e-08
    230    238   2   0.50000    -0.1200000   -0.3300000   1.026091e-03  1.187829e-06
    230    262   2   0.50000    -0.1200000    0.0300000   1.599888e-04  9.721644e-08
    230    263   2   0.50000    -0.1200000    0.0300000   1.599888e-04  9.721644e-08
    235    238   2   0.50000    -0.1200000   -0.3300000   1.026091e-03  1.187829e-06
    235    262   2   0.50000    -0.1200000    0.0300000   1.599888e-04  9.721644e-08
    235    263   2   0.50000    -0.1200000    0.0300000   1.599888e-04  9.721644e-08
    261    238   2   0.50000     0.0600000   -0.3300000   2.521103e-04  1.063590e-07
    261    262   2   0.50000     0.0600000    0.0300000   3.930919e-05  8.704828e-09
    261    263   2   0.50000     0.0600000    0.0300000   3.930919e-05  8.704828e-09
    236    239   2   0.50000    -0.0600000    0.6250000   1.575021e-03  3.561100e-06
    262    239   2   0.50000     0.0300000    0.6250000   2.482000e-04  1.854991e-07
    263    239   2   0.50000     0.0300000    0.6250000   2.482000e-04  1.854991e-07
    237    240   2   0.50000     0.1900000   -0.4300000   1.095425e-03  1.218041e-06
    237    241   2   0.50000     0.1900000   -0.1150000   1.091018e-03  2.092768e-06
    238    242   2   0.50000    -0.3300000   -0.1150000   1.102666e-03  1.331965e-06
    238    249   2   0.50000    -0.3300000   -0.1150000   1.102666e-03  1.331965e-06
    240    242   2   0.50000    -0.4300000   -0.1150000   1.177174e-03  1.365843e-06
    240    249   2   0.50000    -0.4300000   -0.1150000   1.177174e-03  1.365843e-06
    239    243   2   0.50000     0.6250000   -0.1150000   1.692561e-03  3.993218e-06
    239    264   2   0.50000     0.6250000    0.1150000   3.510079e-04  2.623353e-07
    249    243   2   0.50000    -0.1150000   -0.1150000   1.172438e-03  2.346713e-06
    249    264   2   0.50000    -0.1150000    0.1150000   2.431434e-04  1.541678e-07
    239    248   2   0.50000     0.6250000   -0.1150000   1.692561e-03  3.993218e-06
    239    267   2   0.50000     0.6250000    0.1150000   3.510079e-04  2.623353e-07
    242    248   2   0.50000    -0.1150000   -0.1150000   1.172438e-03  2.346713e-06
    242    267   2   0.50000    -0.1150000    0.1150000   2.431434e-04  1.541678e-07
    241    244   2   0.50000    -0.1150000   -0.1150000   1.172438e-03  2.346713e-06
    241    265   2   0.50000    -0.1150000    0.1150000   2.431434e-04  1.541678e-07
    264    244   2   0.50000     0.1150000   -0.1150000   2.431434e-04  1.541678e-07
    264    265   2   0.50000     0.1150000    0.1150000   5.042375e-05  1.012808e-08
    242    245   2   0.50000    -0.1150000    0.6250000   1.692561e-03  3.993218e-06
    265    245   2   0.50000     0.1150000    0.6250000   3.510079e-04  2.623353e-07
    265    248   2   0.50000     0.1150000   -0.1150000   2.431434e-04  1.541678e-07
    243    246   2   0.50000    -0.1150000   -0.4300000   1.177174e-03  1.365843e-06
    243    247   2   0.50000    -0.1150000   -0.3300000   1.102666e-03  1.331965e-06
    248    246   2   0.50000    -0.1150000   -0.4300000   1.177174e-03  1.365843e-06
    248    247   2   0.50000    -0.1150000   -0.3300000   1.102666e-03  1.331965e-06
    243    266   2   0.50000    -0.1150000    0.1150000   2.431434e-04  1.541678e-07
    245    249   2   0.50000     0.6250000   -0.1150000   1.692561e-03  3.993218e-06
    245    266   2   0.50000     0.6250000    0.1150000   3.510079e-04  2.623353e-07
    244    271   2   0.50000    -0.1150000    0.1900000   1.091018e-03  2.092768e-06
    246    271   2   0.50000    -0.4300000    0.1900000   1.095425e-03  1.218041e-06
    245    270   2   0.50000     0.6250000   -0.0600000   1.575021e-03  3.561100e-06
    245    293   2   0.50000     0.6250000    0.0300000   2.482000e-04  1.854991e-07
    245    294   2   0.50000     0.6250000    0.0300000   2.482000e-04  1.854991e-07
    244    267   2   0.50000    -0.1150000    0.1150000   2.431434e-04  1.541678e-07
    266    241   2   0.50000     0.1150000   -0.1150000   2.431434e-04  1.541678e-07
    266    267   2   0.50000     0.1150000    0.1150000   5.042375e-05  1.012808e-08
    274    270   2   0.50000    -0.0600000   -0.0600000   1.015252e-03  1.866303e-06
    274    290   2   0.50000    -0.0600000    0.0600000   2.494471e-04  1.671101e-07
    274    291   2   0.50000    -0.0600000    0.0600000   2.494471e-04  1.671101e-07
    288    270   2   0.50000     0.0600000   -0.0600000   2.494471e-04  1.671101e-07
    288    290   2   0.50000     0.0600000    0.0600000   6.128906e-05  1.496315e-08
    288    291   2   0.50000     0.0600000    0.0600000   6.128906e-05  1.496315e-08
    289    270   2   0.50000     0.0600000   -0.0600000   2.494471e-04  1.671101e-07
    289    290   2   0.50000     0.0600000    0.0600000   6.128906e-05  1.496315e-08
    289    291   2   0.50000     0.0600000    0.0600000   6.128906e-05  1.496315e-08
    269    273   2   0.50000    -0.1200000   -0.1200000   1.015252e-03  1.866303e-06
    269    275   2   0.50000    -0.1200000    0.1900000   1.015252e-03  1.866303e-06
    269    299   2   0.50000    -0.1200000    0.0600000   2.494471e-04  1.671101e-07
    288    273   2   0.50000     0.0600000   -0.1200000   2.494471e-04  1.671101e-07
    288    275   2   0.50000     0.0600000    0.1900000   2.494471e-04  1.671101e-07
    288    299   2   0.50000     0.0600000    0.0600000   6.128906e-05  1.496315e-08
    289    273   2   0.50000     0.0600000   -0.1200000   2.494471e-04  1.671101e-07
    289    275   2   0.50000     0.0600000    0.1900000   2.494471e-04  1.671101e-07
    289    299   2   0.50000     0.0600000    0.0600000   6.128906e-05  1.496315e-08
    268    271   2   0.50000    -0.1200000    0.1900000   1.015252e-03  1.866303e-06
    268    272   2   0.50000    -0.1200000   -0.1200000   1.015252e-03  1.866303e-06
    268    292   2   0.50000    -0.1200000    0.0600000   2.494471e-04  1.671101e-07
    290    271   2   0.50000     0.0600000    0.1900000   2.494471e-04  1.671101e-07
    290    272   2   0.50000     0.0600000   -0.1200000   2.494471e-04  1.671101e-07
    290    292   2   0.50000     0.0600000    0.0600000   6.128906e-05  1.496315e-08
    291    271   2   0.50000     0.0600000    0.1900000   2.494471e-04  1.671101e-07
    291    272   2   0.50000     0.0600000   -0.1200000   2.494471e-04  1.671101e-07
    291    292   2   0.50000     0.0600000    0.0600000   6.128906e-05  1.496315e-08
    269    247   2   0.50000    -0.1200000   -0.3300000   1.026091e-03  1.187829e-06
    269    293   2   0.50000    -0.1200000    0.0300000   1.599888e-04  9.721644e-08
    269    294   2   0.50000    -0.1200000    0.0300000   1.599888e-04  9.721644e-08
    272    247   2   0.50000    -0.1200000   -0.3300000   1.026091e-03  1.187829e-06
    272    293   2   0.50000    -0.1200000    0.0300000   1.599888e-04  9.721644e-08
    272    294   2   0.50000    -0.1200000    0.0300000   1.599888e-04  9.721644e-08
    292    247   2   0.50000     0.0600000   -0.3300000   2.521103e-04  1.063590e-07
    292    293   2   0.50000     0.0600000    0.0300000   3.930919e-05  8.704828e-09
    292    294   2   0.50000     0.0600000    0.0300000   3.930919e-05  8.704828e-09
    269    295   2   0.50000    -0.1200000    0.0600000   2.494471e-04  1.671101e-07
    269    296   2   0.50000    -0.1200000    0.0600000   2.494471e-04  1.671101e-07
    271    273   2   0.50000     0.1900000   -0.1200000   1.015252e-03  1.866303e-06
    271    295   2   0.50000     0.1900000    0.0600000   2.494471e-04  1.671101e-07
    271    296   2   0.50000     0.1900000    0.0600000   2.494471e-04  1.671101e-07
    292    273   2   0.50000     0.0600000   -0.1200000   2.494471e-04  1.671101e-07
    292    295   2   0.50000     0.0600000    0.0600000   6.128906e-05  1.496315e-08
    292    296   2   0.50000     0.0600000    0.0600000   6.128906e-05  1.496315e-08
    270    297   2   0.50000    -0.0600000    0.0600000   2.494471e-04  1.671101e-07
    270    298   2   0.50000    -0.0600000    0.0600000   2.494471e-04  1.671101e-07
    295    274   2   0.50000     0.0600000   -0.0600000   2.494471e-04  1.671101e-07
    295    297   2   0.50000     0.0600000    0.0600000   6.128906e-05  1.496315e-08
    295    298   2   0.50000     0.0600000    0.0600000   6.128906e-05  1.496315e-08
    296    274   2   0.50000     0.0600000   -0.0600000   2.494471e-04  1.671101e-07
    296    297   2   0.50000     0.0600000    0.0600000   6.128906e-05  1.496315e-08
    296    298   2   0.50000     0.0600000    0.0600000   6.128906e-05  1.496315e-08
    272    275   2   0.50000    -0.1200000    0.1900000   1.015252e-03  1.866303e-06
    272    299   2   0.50000    -0.1200000    0.0600000   2.494471e-04  1.671101e-07
    297    268   2   0.50000     0.0600000   -0.1200000   2.494471e-04  1.671101e-07
    297    275   2   0.50000     0.0600000    0.1900000   2.494471e-04  1.671101e-07
    297    299   2   0.50000     0.0600000    0.0600000   6.128906e-05  1.496315e-08
    298    268   2   0.50000     0.0600000   -0.1200000   2.494471e-04  1.671101e-07
    298    275   2   0.50000     0.0600000    0.1900000   2.494471e-04  1.671101e-07
    298    299   2   0.50000     0.0600000    0.0600000   6.128906e-05  1.496315e-08
    268    276   2   0.50000    -0.1200000   -0.3300000   1.026091e-03  1.187829e-06
    268    300   2   0.50000    -0.1200000    0.0300000   1.599888e-04  9.721644e-08
    268    301   2   0.50000    -0.1200000    0.0300000   1.599888e-04  9.721644e-08
    273    276   2   0.50000    -0.1200000   -0.3300000   1.026091e-03  1.187829e-06
    273    300   2   0.50000    -0.1200000    0.0300000   1.599888e-04  9.721644e-08
    273    301   2   0.50000    -0.1200000    0.0300000   1.599888e-04  9.721644e-08
    299    276   2   0.50000     0.0600000   -0.3300000   2.521103e-04  1.063590e-07
    299    300   2   0.50000     0.0600000    0.0300000   3.930919e-05  8.704828e-09
    299    301   2   0.50000     0.0600000    0.0300000   3.930919e-05  8.704828e-09
    274    277   2   0.50000    -0.0600000    0.6250000   1.575021e-03  3.561100e-06
    300    277   2   0.50000     0.0300000    0.6250000   2.482000e-04  1.854991e-07
    301    277   2   0.50000     0.0300000    0.6250000   2.482000e-04  1.854991e-07
    275    278   2   0.50000     0.1900000   -0.4300000   1.095425e-03  1.218041e-06
    275    279   2   0.50000     0.1900000   -0.1150000   1.091018e-03  2.092768e-06
    276    280   2   0.50000    -0.3300000   -0.1150000   1.102666e-03  1.331965e-06
    276    287   2   0.50000    -0.3300000   -0.1150000   1.102666e-03  1.331965e-06
    278    280   2   0.50000    -0.4300000   -0.1150000   1.177174e-03  1.365843e-06
    278    287   2   0.50000    -0.4300000   -0.1150000   1.177174e-03  1.365843e-06
    277    281   2   0.50000     0.6250000   -0.1150000   1.692561e-03  3.993218e-06
    277    302   2   0.50000     0.6250000    0.1150000   3.510079e-04  2.623353e-07
    287    281   2   0.50000    -0.1150000   -0.1150000   1.172438e-03  2.346713e-06
    287    302   2   0.50000    -0.1150000    0.1150000   2.431434e-04  1.541678e-07
    277    286   2   0.50000     0.6250000   -0.1150000   1.692561e-03  3.993218e-06
    277    305   2   0.50000     0.6250000    0.1150000   3.510079e-04  2.623353e-07
    280    286   2   0.50000    -0.1150000   -0.1150000   1.172438e-03  2.346713e-06
    280    305   2   0.50000    -0.1150000    0.1150000   2.431434e-04  1.541678e-07
    279    282   2   0.50000    -0.1150000   -0.1150000   1.172438e-03  2.346713e-06
    279    303   2   0.50000    -0.1150000    0.1150000   2.431434e-04  1.541678e-07
    302    282   2   0.50000     0.1150000   -0.1150000   2.431434e-04  1.541678e-07
    302    303   2   0.50000     0.1150000    0.1150000   5.042375e-05  1.012808e-08
    280    283   2   0.50000    -0.1150000    0.6250000   1.692561e-03  3.993218e-06
    303    283   2   0.50000     0.1150000    0.6250000   3.510079e-04  2.623353e-07
    303    286   2   0.50000     0.1150000   -0.1150000   2.431434e-04  1.541678e-07
    281    284   2   0.50000    -0.1150000   -0.4300000   1.177174e-03  1.365843e-06
    281    285   2   0.50000    -0.1150000   -0.3300000   1.102666e-03  1.331965e-06
    286    284   2   0.50000    -0.1150000   -0.4300000   1.177174e-03  1.365843e-06
    286    285   2   0.50000    -0.1150000   -0.3300000   1.102666e-03  1.331965e-06
    281    304   2   0.50000    -0.1150000    0.1150000   2.431434e-04  1.541678e-07
    283    287   2   0.50000     0.6250000   -0.1150000   1.692561e-03  3.993218e-06
    283    304   2   0.50000     0.6250000    0.1150000   3.510079e-04  2.623353e-07
    282    309   2   0.50000    -0.1150000    0.1900000   1.091018e-03  2.092768e-06
    284    309   2   0.50000    -0.4300000    0.1900000   1.095425e-03  1.218041e-06
    283    308   2   0.50000     0.6250000   -0.0600000   1.575021e-03  3.561100e-06
    283    331   2   0.50000     0.6250000    0.0300000   2.482000e-04  1.854991e-07
    283    332   2   0.50000     0.6250000    0.0300000   2.482000e-04  1.854991e-07
    282    305   2   0.50000    -0.1150000    0.1150000   2.431434e-04  1.541678e-07
    304    279   2   0.50000     0.1150000   -0.1150000   2.431434e-04  1.541678e-07
    304    305   2   0.50000     0.1150000    0.1150000   5.042375e-05  1.012808e-08
    312    308   2   0.50000    -0.0600000   -0.0600000   1.015252e-03  1.866303e-06
    312    328   2   0.50000    -0.0600000    0.0600000   2.494471e-04  1.671101e-07
    312    329   2   0.50000    -0.0600000    0.0600000   2.494471e-04  1.671101e-07
    326    308   2   0.50000     0.0600000   -0.0600000   2.494471e-04  1.671101e-07
    326    328   2   0.50000     0.0600000    0.0600000   6.128906e-05  1.496315e-08
    326    329   2   0.50000     0.0600000    0.0600000   6.128906e-05  1.496315e-08
    327    308   2   0.50000     0.0600000   -0.0600000   2.494471e-04  1.671101e-07
    327    328   2   0.50000     0.0600000    0.0600000   6.128906e-05  1.496315e-08
    327    329   2   0.50000     0.0600000    0.0600000   6.128906e-05  1.496315e-08
    307    311   2   0.50000    -0.1200000   -0.1200000   1.015252e-03  1.866303e-06
    307    313   2   0.50000    -0.1200000    0.1900000   1.015252e-03  1.866303e-06
    307    337   2   0.50000    -0.1200000    0.0600000   2.494471e-04  1.671101e-07
    326    311   2   0.50000     0.0600000   -0.1200000   2.494471e-04  1.671101e-07
    326    313   2   0.50000     0.0600000    0.1900000   2.494471e-04  1.671101e-07
    326    337   2   0.50000     0.0600000    0.0600000   6.128906e-05  1.496315e-08
    327    311   2   0.50000     0.0600000   -0.1200000   2.494471e-04  1.671101e-07
    327    313   2   0.50000     0.0600000    0.1900000   2.494471e-04  1.671101e-07
    327    337   2   0.50000     0.0600000    0.0600000   6.128906e-05  1.496315e-08
    306    309   2   0.50000    -0.1200000    0.1900000   1.015252e-03  1.866303e-06
    306    310   2   0.50000    -0.1200000   -0.1200000   1.015252e-03  1.866303e-06
    306    330   2   0.50000    -0.1200000    0.0600000   2.494471e-04  1.671101e-07
    328    309   2   0.50000     0.0600000    0.1900000   2.494471e-04  1.671101e-07
    328    310   2   0.50000     0.0600000   -0.1200000   2.494471e-04  1.671101e-07
    328    330   2   0.50000     0.0600000    0.0600000   6.128906e-05  1.496315e-08
    329    309   2   0.50000     0.0600000    0.1900000   2.494471e-04  1.671101e-07
    329    310   2   0.50000     0.0600000   -0.1200000   2.494471e-04  1.671101e-07
    329    330   2   0.50000     0.0600000    0.0600000   6.128906e-05  1.496315e-08
    307    285   2   0.50000    -0.1200000   -0.3300000   1.026091e-03  1.187829e-06
    307    331   2   0.50000    -0.1200000    0.0300000   1.599888e-04  9.721644e-08
    307    332   2   0.50000    -0.1200000    0.0300000   1.599888e-04  9.721644e-08
    310    285   2   0.50000    -0.1200000   -0.3300000   1.026091e-03  1.187829e-06
    310    331   2   0.50000    -0.1200000    0.0300000   1.599888e-04  9.721644e-08
    310    332   2   0.50000    -0.1200000    0.0300000   1.599888e-04  9.721644e-08
    330    285   2   0.50000     0.0600000   -0.3300000   2.521103e-04  1.063590e-07
    330    331   2   0.50000     0.0600000    0.0300000   3.930919e-05  8.704828e-09
    330    332   2   0.50000     0.0600000    0.0300000   3.930919e-05  8.704828e-09
    307    333   2   0.50000    -0.1200000    0.0600000   2.494471e-04  1.671101e-07
    307    334   2   0.50000    -0.1200000    0.0600000   2.494471e-04  1.671101e-07
    309    311   2   0.50000     0.1900000   -0.1200000   1.015252e-03  1.866303e-06
    309    333   2   0.50000     0.1900000    0.0600000   2.494471e-04  1.671101e-07
    309    334   2   0.50000     0.1900000    0.0600000   2.494471e-04  1.671101e-07
    330    311   2   0.50000     0.0600000   -0.1200000   2.494471e-04  1.671101e-07
    330    333   2   0.50000     0.0600000    0.0600000   6.128906e-05  1.496315e-08
    330    334   2   0.50000     0.0600000    0.0600000   6.128906e-05  1.496315e-08
    308    335   2   0.50000    -0.0600000    0.0600000   2.494471e-04  1.671101e-07
    308    336   2   0.50000    -0.0600000    0.0600000   2.494471e-04  1.671101e-07
    333    312   2   0.50000     0.0600000   -0.0600000   2.494471e-04  1.671101e-07
    333    335   2   0.50000     0.0600000    0.0600000   6.128906e-05  1.496315e-08
    333    336   2   0.50000     0.0600000    0.0600000   6.128906e-05  1.496315e-08
    334    312   2   0.50000     0.0600000   -0.0600000   2.494471e-04  1.671101e-07
    334    335   2   0.50000     0.0600000    0.0600000   6.128906e-05  1.496315e-08
    334    336   2   0.50000     0.0600000    0.0600000   6.128906e-05  1.496315e-08
    310    313   2   0.50000    -0.1200000    0.1900000   1.015252e-03  1.866303e-06
    310    337   2   0.50000    -0.1200000    0.0600000   2.494471e-04  1.671101e-07
    335    306   2   0.50000     0.0600000   -0.1200000   2.494471e-04  1.671101e-07
    335    313   2   0.50000     0.0600000    0.1900000   2.494471e-04  1.671101e-07
    335    337   2   0.50000     0.0600000    0.0600000   6.128906e-05  1.496315e-08
    336    306   2   0.50000     0.0600000   -0.1200000   2.494471e-04  1.671101e-07
    336    313   2   0.50000     0.0600000    0.1900000   2.494471e-04  1.671101e-07
    336    337   2   0.50000     0.0600000    0.0600000   6.128906e-05  1.496315e-08
    306    314   2   0.50000    -0.1200000   -0.3300000   1.026091e-03  1.187829e-06
    306    338   2   0.50000    -0.1200000    0.0300000   1.599888e-04  9.721644e-08
    306    339   2   0.50000    -0.1200000    0.0300000   1.599888e-04  9.721644e-08
    311    314   2   0.50000    -0.1200000   -0.3300000   1.026091e-03  1.187829e-06
    311    338   2   0.50000    -0.1200000    0.0300000   1.599888e-04  9.721644e-08
    311    339   2   0.50000    -0.1200000    0.0300000   1.599888e-04  9.721644e-08
    337    314   2   0.50000     0.0600000   -0.3300000   2.521103e-04  1.063590e-07
    337    338   2   0.50000     0.0600000    0.0300000   3.930919e-05  8.704828e-09
    337    339   2   0.50000     0.0600000    0.0300000   3.930919e-05  8.704828e-09
    312    315   2   0.50000    -0.0600000    0.6250000   1.575021e-03  3.561100e-06
    338    315   2   0.50000     0.0300000    0.6250000   2.482000e-04  1.854991e-07
    339    315   2   0.50000     0.0300000    0.6250000   2.482000e-04  1.854991e-07
    313    316   2   0.50000     0.1900000   -0.4300000   1.095425e-03  1.218041e-06
    313    317   2   0.50000     0.1900000   -0.1150000   1.091018e-03  2.092768e-06
    314    318   2   0.50000    -0.3300000   -0.1150000   1.102666e-03  1.331965e-06
    314    325   2   0.50000    -0.3300000   -0.1150000   1.102666e-03  1.331965e-06
    316    318   2   0.50000    -0.4300000   -0.1150000   1.177174e-03  1.365843e-06
    316    325   2   0.50000    -0.4300000   -0.1150000   1.177174e-03  1.365843e-06
    315    319   2   0.50000     0.6250000   -0.1150000   1.692561e-03  3.993218e-06
    315    340   2   0.50000     0.6250000    0.1150000   3.510079e-04  2.623353e-07
    325    319   2   0.50000    -0.1150000   -0.1150000   1.172438e-03  2.346713e-06
    325    340   2   0.50000    -0.1150000    0.1150000   2.431434e-04  1.541678e-07
    315    324   2   0.50000     0.6250000   -0.1150000   1.692561e-03  3.993218e-06
    315    343   2   0.50000     0.6250000    0.1150000   3.510079e-04  2.623353e-07
    318    324   2   0.50000    -0.1150000   -0.1150000   1.172438e-03  2.346713e-06
    318    343   2   0.50000    -0.1150000    0.1150000   2.431434e-04  1.541678e-07
    317    320   2   0.50000    -0.1150000   -0.1150000   1.172438e-03  2.346713e-06
    317    341   2   0.50000    -0.1150000    0.1150000   2.431434e-04  1.541678e-07
    340    320   2   0.50000     0.1150000   -0.1150000   2.431434e-04  1.541678e-07
    340    341   2   0.50000     0.1150000    0.1150000   5.042375e-05  1.012808e-08
    318    321   2   0.50000    -0.1150000    0.6250000   1.692561e-03  3.993218e-06
    341    321   2   0.50000     0.1150000    0.6250000   3.510079e-04  2.623353e-07
    341    324   2   0.50000     0.1150000   -0.1150000   2.431434e-04  1.541678e-07
    319    322   2   0.50000    -0.1150000   -0.4300000   1.177174e-03  1.365843e-06
    319    323   2   0.50000    -0.1150000   -0.3300000   1.102666e-03  1.331965e-06
    324    322   2   0.50000    -0.1150000   -0.4300000   1.177174e-03  1.365843e-06
    324    323   2   0.50000    -0.1150000   -0.3300000   1.102666e-03  1.331965e-06
    319    342   2   0.50000    -0.1150000    0.1150000   2.431434e-04  1.541678e-07
    321    325   2   0.50000     0.6250000   -0.1150000   1.692561e-03  3.993218e-06
    321    342   2   0.50000     0.6250000    0.1150000   3.510079e-04  2.623353e-07
    320    347   2   0.50000    -0.1150000    0.1900000   1.091018e-03  2.092768e-06
    322    347   2   0.50000    -0.4300000    0.1900000   1.095425e-03  1.218041e-06
    321    346   2   0.50000     0.6250000   -0.0600000   1.575021e-03  3.561100e-06
    321    369   2   0.50000     0.6250000    0.0300000   2.482000e-04  1.854991e-07
    321    370   2   0.50000     0.6250000    0.0300000   2.482000e-04  1.854991e-07
    320    343   2   0.50000    -0.1150000    0.1150000   2.431434e-04  1.541678e-07
    342    317   2   0.50000     0.1150000   -0.1150000   2.431434e-04  1.541678e-07
    342    343   2   0.50000     0.1150000    0.1150000   5.042375e-05  1.012808e-08
    350    346   2   0.50000    -0.0600000   -0.0600000   1.015252e-03  1.866303e-06
    350    366   2   0.50000    -0.0600000    0.0600000   2.494471e-04  1.671101e-07
    350    367   2   0.50000    -0.0600000    0.0600000   2.494471e-04  1.671101e-07
    364    346   2   0.50000     0.0600000   -0.0600000   2.494471e-04  1.671101e-07
    364    366   2   0.50000     0.0600000    0.0600000   6.128906e-05  1.496315e-08
    364    367   2   0.50000     0.0600000    0.0600000   6.128906e-05  1.496315e-08
    365    346   2   0.50000     0.0600000   -0.0600000   2.494471e-04  1.671101e-07
    365    366   2   0.50000     0.0600000    0.0600000   6.128906e-05  1.496315e-08
    365    367   2   0.50000     0.0600000    0.0600000   6.128906e-05  1.496315e-08
    345    349   2   0.50000    -0.1200000   -0.1200000   1.015252e-03  1.866303e-06
    345    351   2   0.50000    -0.1200000    0.1900000   1.015252e-03  1.866303e-06
    345    375   2   0.50000    -0.1200000    0.0600000   2.494471e-04  1.671101e-07
    364    349   2   0.50000     0.0600000   -0.1200000   2.494471e-04  1.671101e-07
    364    351   2   0.50000     0.0600000    0.1900000   2.494471e-04  1.671101e-07
    364    375   2   0.50000     0.0600000    0.0600000   6.128906e-05  1.496315e-08
    365    349   2   0.50000     0.0600000   -0.1200000   2.494471e-04  1.671101e-07
    365    351   2   0.50000     0.0600000    0.1900000   2.494471e-04  1.671101e-07
    365    375   2   0.50000     0.0600000    0.0600000   6.128906e-05  1.496315e-08
    344    347   2   0.50000    -0.1200000    0.1900000   1.015252e-03  1.866303e-06
    344    348   2   0.50000    -0.1200000   -0.1200000   1.015252e-03  1.866303e-06
    344    368   2   0.50000    -0.1200000    0.0600000   2.494471e-04  1.671101e-07
    366    347   2   0.50000     0.0600000    0.1900000   2.494471e-04  1.671101e-07
    366    348   2   0.50000     0.0600000   -0.1200000   2.494471e-04  1.671101e-07
    366    368   2   0.50000     0.0600000    0.0600000   6.128906e-05  1.496315e-08
    367    347   2   0.50000     0.0600000    0.1900000   2.494471e-04  1.671101e-07
    367    348   2   0.50000     0.0600000   -0.1200000   2.494471e-04  1.671101e-07
    367    368   2   0.50000     0.0600000    0.0600000   6.128906e-05  1.496315e-08
    345    323   2   0.50000    -0.1200000   -0.3300000   1.026091e-03  1.187829e-06
    345    369   2   0.50000    -0.1200000    0.0300000   1.599888e-04  9.721644e-08
    345    370   2   0.50000    -0.1200000    0.0300000   1.599888e-04  9.721644e-08
    348    323   2   0.50000    -0.1200000   -0.3300000   1.026091e-03  1.187829e-06
    348    369   2   0.50000    -0.1200000    0.0300000   1.599888e-04  9.721644e-08
    348    370   2   0.50000    -0.1200000    0.0300000   1.599888e-04  9.721644e-08
    368    323   2   0.50000     0.0600000   -0.3300000   2.521103e-04  1.063590e-07
    368    369   2   0.50000     0.0600000    0.0300000   3.930919e-05  8.704828e-09
    368    370   2   0.50000     0.0600000    0.0300000   3.930919e-05  8.704828e-09
    345    371   2   0.50000    -0.1200000    0.0600000   2.494471e-04  1.671101e-07
    345    372   2   0.50000    -0.1200000    0.0600000   2.494471e-04  1.671101e-07
    347    349   2   0.50000     0.1900000   -0.1200000   1.015252e-03  1.866303e-06
    347    371   2   0.50000     0.1900000    0.0600000   2.494471e-04  1.671101e-07
    347    372   2   0.50000     0.1900000    0.0600000   2.494471e-04  1.671101e-07
    368    349   2   0.50000     0.0600000   -0.1200000   2.494471e-04  1.671101e-07
    368    371   2   0.50000     0.0600000    0.0600000   6.128906e-05  1.496315e-08
    368    372   2   0.50000     0.0600000    0.0600000   6.128906e-05  1.496315e-08
    346    373   2   0.50000    -0.0600000    0.0600000   2.494471e-04  1.671101e-07
    346    374   2   0.50000    -0.0600000    0.0600000   2.494471e-04  1.671101e-07
    371    350   2   0.50000     0.0600000   -0.0600000   2.494471e-04  1.671101e-07
    371    373   2   0.50000     0.0600000    0.0600000   6.128906e-05  1.496315e-08
    371    374   2   0.50000     0.0600000    0.0600000   6.128906e-05  1.496315e-08
    372    350   2   0.50000     0.0600000   -0.0600000   2.494471e-04  1.671101e-07
    372    373   2   0.50000     0.0600000    0.0600000   6.128906e-05  1.496315e-08
    372    374   2   0.50000     0.0600000    0.0600000   6.128906e-05  1.496315e-08
    348    351   2   0.50000    -0.1200000    0.1900000   1.015252e-03  1.866303e-06
    348    375   2   0.50000    -0.1200000    0.0600000   2.494471e-04  1.671101e-07
    373    344   2   0.50000     0.0600000   -0.1200000   2.494471e-04  1.671101e-07
    373    351   2   0.50000     0.0600000    0.1900000   2.494471e-04  1.671101e-07
    373    375   2   0.50000     0.0600000    0.0600000   6.128906e-05  1.496315e-08
    374    344   2   0.50000     0.0600000   -0.1200000   2.494471e-04  1.671101e-07
    374    351   2   0.50000     0.0600000    0.1900000   2.494471e-04  1.671101e-07
    374    375   2   0.50000     0.0600000    0.0600000   6.128906e-05  1.496315e-08
    344    352   2   0.50000    -0.1200000   -0.3300000   1.026091e-03  1.187829e-06
    344    376   2   0.50000    -0.1200000    0.0300000   1.599888e-04  9.721644e-08
    344    377   2   0.50000    -0.1200000    0.0300000   1.599888e-04  9.721644e-08
    349    352   2   0.50000    -0.1200000   -0.3300000   1.026091e-03  1.187829e-06
    349    376   2   0.50000    -0.1200000    0.0300000   1.599888e-04  9.721644e-08
    349    377   2   0.50000    -0.1200000    0.0300000   1.599888e-04  9.721644e-08
    375    352   2   0.50000     0.0600000   -0.3300000   2.521103e-04  1.063590e-07
    375    376   2   0.50000     0.0600000    0.0300000   3.930919e-05  8.704828e-09
    375    377   2   0.50000     0.0600000    0.0300000   3.930919e-05  8.704828e-09
    350    353   2   0.50000    -0.0600000    0.6250000   1.575021e-03  3.561100e-06
    376    353   2   0.50000     0.0300000    0.6250000   2.482000e-04  1.854991e-07
    377    353   2   0.50000     0.0300000    0.6250000   2.482000e-04  1.854991e-07
    351    354   2   0.50000     0.1900000   -0.4300000   1.095425e-03  1.218041e-06
    351    355   2   0.50000     0.1900000   -0.1150000   1.091018e-03  2.092768e-06
    352    356   2   0.50000    -0.3300000   -0.1150000   1.102666e-03  1.331965e-06
    352    363   2   0.50000    -0.3300000   -0.1150000   1.102666e-03  1.331965e-06
    354    356   2   0.50000    -0.4300000   -0.1150000   1.177174e-03  1.365843e-06
    354    363   2   0.50000    -0.4300000   -0.1150000   1.177174e-03  1.365843e-06
    353    357   2   0.50000     0.6250000   -0.1150000   1.692561e-03  3.993218e-06
    353    378   2   0.50000     0.6250000    0.1150000   3.510079e-04  2.623353e-07
    363    357   2   0.50000    -0.1150000   -0.1150000   1.172438e-03  2.346713e-06
    363    378   2   0.50000    -0.1150000    0.1150000   2.431434e-04  1.541678e-07
    353    362   2   0.50000     0.6250000   -0.1150000   1.692561e-03  3.993218e-06
    353    381   2   0.50000     0.6250000    0.1150000   3.510079e-04  2.623353e-07
    356    362   2   0.50000    -0.1150000   -0.1150000   1.172438e-03  2.346713e-06
    356    381   2   0.50000    -0.1150000    0.1150000   2.431434e-04  1.541678e-07
    355    358   2   0.50000    -0.1150000   -0.1150000   1.172438e-03  2.346713e-06
    355    379   2   0.50000    -0.1150000    0.1150000   2.431434e-04  1.541678e-07
    378    358   2   0.50000     0.1150000   -0.1150000   2.431434e-04  1.541678e-07
    378    379   2   0.50000     0.1150000    0.1150000   5.042375e-05  1.012808e-08
    356    359   2   0.50000    -0.1150000    0.6250000   1.692561e-03  3.993218e-06
    379    359   2   0.50000     0.1150000    0.6250000   3.510079e-04  2.623353e-07
    379    362   2   0.50000     0.1150000   -0.1150000   2.431434e-04  1.541678e-07
    357    360   2   0.50000    -0.1150000   -0.4300000   1.177174e-03  1.365843e-06
    357    361   2   0.50000    -0.1150000   -0.3300000   1.102666e-03  1.331965e-06
    362    360   2   0.50000    -0.1150000   -0.4300000   1.177174e-03  1.365843e-06
    362    361   2   0.50000    -0.1150000   -0.3300000   1.102666e-03  1.331965e-06
    357    380   2   0.50000    -0.1150000    0.1150000   2.431434e-04  1.541678e-07
    359    363   2   0.50000     0.6250000   -0.1150000   1.692561e-03  3.993218e-06
    359    380   2   0.50000     0.6250000    0.1150000   3.510079e-04  2.623353e-07
    358    385   2   0.50000    -0.1150000    0.1900000   1.091018e-03  2.092768e-06
    360    385   2   0.50000    -0.4300000    0.1900000   1.095425e-03  1.218041e-06
    359    384   2   0.50000     0.6250000   -0.0600000   1.575021e-03  3.561100e-06
    359    407   2   0.50000     0.6250000    0.0300000   2.482000e-04  1.854991e-07
    359    408   2   0.50000     0.6250000    0.0300000   2.482000e-04  1.854991e-07
    358    381   2   0.50000    -0.1150000    0.1150000   2.431434e-04  1.541678e-07
    380    355   2   0.50000     0.1150000   -0.1150000   2.431434e-04  1.541678e-07
    380    381   2   0.50000     0.1150000    0.1150000   5.042375e-05  1.012808e-08
    388    384   2   0.50000    -0.0600000   -0.0600000   1.015252e-03  1.866303e-06
    388    404   2   0.50000    -0.0600000    0.0600000   2.494471e-04  1.671101e-07
    388    405   2   0.50000    -0.0600000    0.0600000   2.494471e-04  1.671101e-07
    402    384   2   0.50000     0.0600000   -0.0600000   2.494471e-04  1.671101e-07
    402    404   2   0.50000     0.0600000    0.0600000   6.128906e-05  1.496315e-08
    402    405   2   0.50000     0.0600000    0.0600000   6.128906e-05  1.496315e-08
    403    384   2   0.50000     0.0600000   -0.0600000   2.494471e-04  1.671101e-07
    403    404   2   0.50000     0.0600000    0.0600000   6.128906e-05  1.496315e-08
    403    405   2   0.50000     0.0600000    0.0600000   6.128906e-05  1.496315e-08
    383    387   2   0.50000    -0.1200000   -0.1200000   1.015252e-03  1.866303e-06
    383    389   2   0.50000    -0.1200000    0.1900000   1.015252e-03  1.866303e-06
    383    413   2   0.50000    -0.1200000    0.0600000   2.494471e-04  1.671101e-07
    402    387   2   0.50000     0.0600000   -0.1200000   2.494471e-04  1.671101e-07
    402    389   2   0.50000     0.0600000    0.1900000   2.494471e-04  1.671101e-07
    402    413   2   0.50000     0.0600000    0.0600000   6.128906e-05  1.496315e-08
    403    387   2   0.50000     0.0600000   -0.1200000   2.494471e-04  1.671101e-07
    403    389   2   0.50000     0.0600000    0.1900000   2.494471e-04  1.671101e-07
    403    413   2   0.50000     0.0600000    0.0600000   6.128906e-05  1.496315e-08
    382    385   2   0.50000    -0.1200000    0.1900000   1.015252e-03  1.866303e-06
    382    386   2   0.50000    -0.1200000   -0.1200000   1.015252e-03  1.866303e-06
    382    406   2   0.50000    -0.1200000    0.0600000   2.494471e-04  1.671101e-07
    404    385   2   0.50000     0.0600000    0.1900000   2.494471e-04  1.671101e-07
    404    386   2   0.50000     0.0600000   -0.1200000   2.494471e-04  1.671101e-07
    404    406   2   0.50000     0.0600000    0.0600000   6.128906e-05  1.496315e-08
    405    385   2   0.50000     0.0600000    0.1900000   2.494471e-04  1.671101e-07
    405    386   2   0.50000     0.0600000   -0.1200000   2.494471e-04  1.671101e-07
    405    406   2   0.50000     0.0600000    0.0600000   6.128906e-05  1.496315e-08
    383    361   2   0.50000    -0.1200000   -0.3300000   1.026091e-03  1.187829e-06
    383    407   2   0.50000    -0.1200000    0.0300000   1.599888e-04  9.721644e-08
    383    408   2   0.50000    -0.1200000    0.0300000   1.599888e-04  9.721644e-08
    386    361   2   0.50000    -0.1200000   -0.3300000   1.026091e-03  1.187829e-06
    386    407   2   0.50000    -0.1200000    0.0300000   1.599888e-04  9.721644e-08
    386    408   2   0.50000    -0.1200000    0.0300000   1.599888e-04  9.721644e-08
    406    361   2   0.50000     0.0600000   -0.3300000   2.521103e-04  1.063590e-07
    406    407   2   0.50000     0.0600000    0.0300000   3.930919e-05  8.704828e-09
    406    408   2   0.50000     0.0600000    0.0300000   3.930919e-05  8.704828e-09
    383    409   2   0.50000    -0.1200000    0.0600000   2.494471e-04  1.671101e-07
    383    410   2   0.50000    -0.1200000    0.0600000   2.494471e-04  1.671101e-07
    385    387   2   0.50000     0.1900000   -0.1200000   1.015252e-03  1.866303e-06
    385    409   2   0.50000     0.1900000    0.0600000   2.494471e-04  1.671101e-07
    385    410   2   0.50000     0.1900000    0.0600000   2.494471e-04  1.671101e-07
    406    387   2   0.50000     0.0600000   -0.1200000   2.494471e-04  1.671101e-07
    406    409   2   0.50000     0.0600000    0.0600000   6.128906e-05  1.496315e-08
    406    410   2   0.50000     0.0600000    0.0600000   6.128906e-05  1.496315e-08
    384    411   2   0.50000    -0.0600000    0.0600000   2.494471e-04  1.671101e-07
    384    412   2   0.50000    -0.0600000    0.0600000   2.494471e-04  1.671101e-07
    409    388   2   0.50000     0.0600000   -0.0600000   2.494471e-04  1.671101e-07
    409    411   2   0.50000     0.0600000    0.0600000   6.128906e-05  1.496315e-08
    409    412   2   0.50000     0.0600000    0.0600000   6.128906e-05  1.496315e-08
    410    388   2   0.50000     0.0600000   -0.0600000   2.494471e-04  1.671101e-07
    410    411   2   0.50000     0.0600000    0.0600000   6.128906e-05  1.496315e-08
    410    412   2   0.50000     0.0600000    0.0600000   6.128906e-05  1.496315e-08
    386    389   2   0.50000    -0.1200000    0.1900000   1.015252e-03  1.866303e-06
    386    413   2   0.50000    -0.1200000    0.0600000   2.494471e-04  1.671101e-07
    411    382   2   0.50000     0.0600000   -0.1200000   2.494471e-04  1.671101e-07
    411    389   2   0.50000     0.0600000    0.1900000   2.494471e-04  1.671101e-07
    411    413   2   0.50000     0.0600000    0.0600000   6.128906e-05  1.496315e-08
    412    382   2   0.50000     0.0600000   -0.1200000   2.494471e-04  1.671101e-07
    412    389   2   0.50000     0.0600000    0.1900000   2.494471e-04  1.671101e-07
    412    413   2   0.50000     0.0600000    0.0600000   6.128906e-05  1.496315e-08
    382    390   2   0.50000    -0.1200000   -0.3300000   1.026091e-03  1.187829e-06
    382    414   2   0.50000    -0.1200000    0.0300000   1.599888e-04  9.721644e-08
    382    415   2   0.50000    -0.1200000    0.0300000   1.599888e-04  9.721644e-08
    387    390   2   0.50000    -0.1200000   -0.3300000   1.026091e-03  1.187829e-06
    387    414   2   0.50000    -0.1200000    0.0300000   1.599888e-04  9.721644e-08
    387    415   2   0.50000    -0.1200000    0.0300000   1.599888e-04  9.721644e-08
    413    390   2   0.50000     0.0600000   -0.3300000   2.521103e-04  1.063590e-07
    413    414   2   0.50000     0.0600000    0.0300000   3.930919e-05  8.704828e-09
    413    415   2   0.50000     0.0600000    0.0300000   3.930919e-05  8.704828e-09
    388    391   2   0.50000    -0.0600000    0.6250000   1.575021e-03  3.561100e-06
    414    391   2   0.50000     0.0300000    0.6250000   2.482000e-04  1.854991e-07
    415    391   2   0.50000     0.0300000    0.6250000   2.482000e-04  1.854991e-07
    389    392   2   0.50000     0.1900000   -0.4300000   1.095425e-03  1.218041e-06
    389    393   2   0.50000     0.1900000   -0.1150000   1.091018e-03  2.092768e-06
    390    394   2   0.50000    -0.3300000   -0.1150000   1.102666e-03  1.331965e-06
    390    401   2   0.50000    -0.3300000   -0.1150000   1.102666e-03  1.331965e-06
    392    394   2   0.50000    -0.4300000   -0.1150000   1.177174e-03  1.365843e-06
    392    401   2   0.50000    -0.4300000   -0.1150000   1.177174e-03  1.365843e-06
    391    395   2   0.50000     0.6250000   -0.1150000   1.692561e-03  3.993218e-06
    391    416   2   0.50000     0.6250000    0.1150000   3.510079e-04  2.623353e-07
    401    395   2   0.50000    -0.1150000   -0.1150000   1.172438e-03  2.346713e-06
    401    416   2   0.50000    -0.1150000    0.1150000   2.431434e-04  1.541678e-07
    391    400   2   0.50000     0.6250000   -0.1150000   1.692561e-03  3.993218e-06
    391    419   2   0.50000     0.6250000    0.1150000   3.510079e-04  2.623353e-07
    394    400   2   0.50000    -0.1150000   -0.1150000   1.172438e-03  2.346713e-06
    394    419   2   0.50000    -0.1150000    0.1150000   2.431434e-04  1.541678e-07
    393    396   2   0.50000    -0.1150000   -0.1150000   1.172438e-03  2.346713e-06
    393    417   2   0.50000    -0.1150000    0.1150000   2.431434e-04  1.541678e-07
    416    396   2   0.50000     0.1150000   -0.1150000   2.431434e-04  1.541678e-07
    416    417   2   0.50000     0.1150000    0.1150000   5.042375e-05  1.012808e-08
    394    397   2   0.50000    -0.1150000    0.6250000   1.692561e-03  3.993218e-06
    417    397   2   0.50000     0.1150000    0.6250000   3.510079e-04  2.623353e-07
    417    400   2   0.50000     0.1150000   -0.1150000   2.431434e-04  1.541678e-07
    395    398   2   0.50000    -0.1150000   -0.4300000   1.177174e-03  1.365843e-06
    395    399   2   0.50000    -0.1150000   -0.3300000   1.102666e-03  1.331965e-06
    400    398   2   0.50000    -0.1150000   -0.4300000   1.177174e-03  1.365843e-06
    400    399   2   0.50000    -0.1150000   -0.3300000   1.102666e-03  1.331965e-06
    395    418   2   0.50000    -0.1150000    0.1150000   2.431434e-04  1.541678e-07
    397    401   2   0.50000     0.6250000   -0.1150000   1.692561e-03  3.993218e-06
    397    418   2   0.50000     0.6250000    0.1150000   3.510079e-04  2.623353e-07
    396    423   2   0.50000    -0.1150000    0.1900000   1.091018e-03  2.092768e-06
    398    423   2   0.50000    -0.4300000    0.1900000   1.095425e-03  1.218041e-06
    397    422   2   0.50000     0.6250000   -0.0600000   1.575021e-03  3.561100e-06
    397    445   2   0.50000     0.6250000    0.0300000   2.482000e-04  1.854991e-07
    397    446   2   0.50000     0.6250000    0.0300000   2.482000e-04  1.854991e-07
    396    419   2   0.50000    -0.1150000    0.1150000   2.431434e-04  1.541678e-07
    418    393   2   0.50000     0.1150000   -0.1150000   2.431434e-04  1.541678e-07
    418    419   2   0.50000     0.1150000    0.1150000   5.042375e-05  1.012808e-08
    426    422   2   0.50000    -0.0600000   -0.0600000   1.015252e-03  1.866303e-06
    426    442   2   0.50000    -0.0600000    0.0600000   2.494471e-04  1.671101e-07
    426    443   2   0.50000    -0.0600000    0.0600000   2.494471e-04  1.671101e-07
    440    422   2   0.50000     0.0600000   -0.0600000   2.494471e-04  1.671101e-07
    440    442   2   0.50000     0.0600000    0.0600000   6.128906e-05  1.496315e-08
    440    443   2   0.50000     0.0600000    0.0600000   6.128906e-05  1.496315e-08
    441    422   2   0.50000     0.0600000   -0.0600000   2.494471e-04  1.671101e-07
    441    442   2   0.50000     0.0600000    0.0600000   6.128906e-05  1.496315e-08
    441    443   2   0.50000     0.0600000    0.0600000   6.128906e-05  1.496315e-08
    421    425   2   0.50000    -0.1200000   -0.1200000   1.015252e-03  1.866303e-06
    421    427   2   0.50000    -0.1200000    0.1900000   1.015252e-03  1.866303e-06
    421    451   2   0.50000    -0.1200000    0.0600000   2.494471e-04  1.671101e-07
    440    425   2   0.50000     0.0600000   -0.1200000   2.494471e-04  1.671101e-07
    440    427   2   0.50000     0.0600000    0.1900000   2.494471e-04  1.671101e-07
    440    451   2   0.50000     0.0600000    0.0600000   6.128906e-05  1.496315e-08
    441    425   2   0.50000     0.0600000   -0.1200000   2.494471e-04  1.671101e-07
    441    427   2   0.50000     0.0600000    0.1900000   2.494471e-04  1.671101e-07
    441    451   2   0.50000     0.0600000    0.0600000   6.128906e-05  1.496315e-08
    420    423   2   0.50000    -0.1200000    0.1900000   1.015252e-03  1.866303e-06
    420    424   2   0.50000    -0.1200000   -0.1200000   1.015252e-03  1.866303e-06
    420    444   2   0.50000    -0.1200000    0.0600000   2.494471e-04  1.671101e-07
    442    423   2   0.50000     0.0600000    0.1900000   2.494471e-04  1.671101e-07
    442    424   2   0.50000     0.0600000   -0.1200000   2.494471e-04  1.671101e-07
    442    444   2   0.50000     0.0600000    0.0600000   6.128906e-05  1.496315e-08
    443    423   2   0.50000     0.0600000    0.1900000   2.494471e-04  1.671101e-07
    443    424   2   0.50000     0.0600000   -0.1200000   2.494471e-04  1.671101e-07
    443    444   2   0.50000     0.0600000    0.0600000   6.128906e-05  1.496315e-08
    421    399   2   0.50000    -0.1200000   -0.3300000   1.026091e-03  1.187829e-06
    421    445   2   0.50000    -0.1200000    0.0300000   1.599888e-04  9.721644e-08
    421    446   2   0.50000    -0.1200000    0.0300000   1.599888e-04  9.721644e-08
    424    399   2   0.50000    -0.1200000   -0.3300000   1.026091e-03  1.187829e-06
    424    445   2   0.50000    -0.1200000    0.0300000   1.599888e-04  9.721644e-08
    424    446   2   0.50000    -0.1200000    0.0300000   1.599888e-04  9.721644e-08
    444    399   2   0.50000     0.0600000   -0.3300000   2.521103e-04  1.063590e-07
    444    445   2   0.50000     0.0600000    0.0300000   3.930919e-05  8.704828e-09
    444    446   2   0.50000     0.0600000    0.0300000   3.930919e-05  8.704828e-09
    421    447   2   0.50000    -0.1200000    0.0600000   2.494471e-04  1.671101e-07
    421    448   2   0.50000    -0.1200000    0.0600000   2.494471e-04  1.671101e-07
    423    425   2   0.50000     0.1900000   -0.1200000   1.015252e-03  1.866303e-06
    423    447   2   0.50000     0.1900000    0.0600000   2.494471e-04  1.671101e-07
    423    448   2   0.50000     0.1900000    0.0600000   2.494471e-04  1.671101e-07
    444    425   2   0.50000     0.0600000   -0.1200000   2.494471e-04  1.671101e-07
    444    447   2   0.50000     0.0600000    0.0600000   6.128906e-05  1.496315e-08
    444    448   2   0.50000     0.0600000    0.0600000   6.128906e-05  1.496315e-08
    422    449   2   0.50000    -0.0600000    0.0600000   2.494471e-04  1.671101e-07
    422    450   2   0.50000    -0.0600000    0.0600000   2.494471e-04  1.671101e-07
    447    426   2   0.50000     0.0600000   -0.0600000   2.494471e-04  1.671101e-07
    447    449   2   0.50000     0.0600000    0.0600000   6.128906e-05  1.496315e-08
    447    450   2   0.50000     0.0600000    0.0600000   6.128906e-05  1.496315e-08
    448    426   2   0.50000     0.0600000   -0.0600000   2.494471e-04  1.671101e-07
    448    449   2   0.50000     0.0600000    0.0600000   6.128906e-05  1.496315e-08
    448    450   2   0.50000     0.0600000    0.0600000   6.128906e-05  1.496315e-08
    424    427   2   0.50000    -0.1200000    0.1900000   1.015252e-03  1.866303e-06
    424    451   2   0.50000    -0.1200000    0.0600000   2.494471e-04  1.671101e-07
    449    420   2   0.50000     0.0600000   -0.1200000   2.494471e-04  1.671101e-07
    449    427   2   0.50000     0.0600000    0.1900000   2.494471e-04  1.671101e-07
    449    451   2   0.50000     0.0600000    0.0600000   6.128906e-05  1.496315e-08
    450    420   2   0.50000     0.0600000   -0.1200000   2.494471e-04  1.671101e-07
    450    427   2   0.50000     0.0600000    0.1900000   2.494471e-04  1.671101e-07
    450    451   2   0.50000     0.0600000    0.0600000   6.128906e-05  1.496315e-08
    420    428   2   0.50000    -0.1200000   -0.3300000   1.026091e-03  1.187829e-06
    420    452   2   0.50000    -0.1200000    0.0300000   1.599888e-04  9.721644e-08
    420    453   2   0.50000    -0.1200000    0.0300000   1.599888e-04  9.721644e-08
    425    428   2   0.50000    -0.1200000   -0.3300000   1.026091e-03  1.187829e-06
    425    452   2   0.50000    -0.1200000    0.0300000   1.599888e-04  9.721644e-08
    425    453   2   0.50000    -0.1200000    0.0300000   1.599888e-04  9.721644e-08
    451    428   2   0.50000     0.0600000   -0.3300000   2.521103e-04  1.063590e-07
    451    452   2   0.50000     0.0600000    0.0300000   3.930919e-05  8.704828e-09
    451    453   2   0.50000     0.0600000    0.0300000   3.930919e-05  8.704828e-09
    426    429   2   0.50000    -0.0600000    0.6250000   1.575021e-03  3.561100e-06
    452    429   2   0.50000     0.0300000    0.6250000   2.482000e-04  1.854991e-07
    453    429   2   0.50000     0.0300000    0.6250000   2.482000e-04  1.854991e-07
    427    430   2   0.50000     0.1900000   -0.4300000   1.095425e-03  1.218041e-06
    427    431   2   0.50000     0.1900000   -0.1150000   1.091018e-03  2.092768e-06
    428    432   2   0.50000    -0.3300000   -0.1150000   1.102666e-03  1.331965e-06
    428    439   2   0.50000    -0.3300000   -0.1150000   1.102666e-03  1.331965e-06
    430    432   2   0.50000    -0.4300000   -0.1150000   1.177174e-03  1.365843e-06
    430    439   2   0.50000    -0.4300000   -0.1150000   1.177174e-03  1.365843e-06
    429    433   2   0.50000     0.6250000   -0.1150000   1.692561e-03  3.993218e-06
    429    454   2   0.50000     0.6250000    0.1150000   3.510079e-04  2.623353e-07
    439    433   2   0.50000    -0.1150000   -0.1150000   1.172438e-03  2.346713e-06
    439    454   2   0.50000    -0.1150000    0.1150000   2.431434e-04  1.541678e-07
    429    438   2   0.50000     0.6250000   -0.1150000   1.692561e-03  3.993218e-06
    429    457   2   0.50000     0.6250000    0.1150000   3.510079e-04  2.623353e-07
    432    438   2   0.50000    -0.1150000   -0.1150000   1.172438e-03  2.346713e-06
    432    457   2   0.50000    -0.1150000    0.1150000   2.431434e-04  1.541678e-07
    431    434   2   0.50000    -0.1150000   -0.1150000   1.172438e-03  2.346713e-06
    431    455   2   0.50000    -0.1150000    0.1150000   2.431434e-04  1.541678e-07
    454    434   2   0.50000     0.1150000   -0.1150000   2.431434e-04  1.541678e-07
    454    455   2   0.50000     0.1150000    0.1150000   5.042375e-05  1.012808e-08
    432    435   2   0.50000    -0.1150000    0.6250000   1.692561e-03  3.993218e-06
    455    435   2   0.50000     0.1150000    0.6250000   3.510079e-04  2.623353e-07
    455    438   2   0.50000     0.1150000   -0.1150000   2.431434e-04  1.541678e-07
    433    436   2   0.50000    -0.1150000   -0.4300000   1.177174e-03  1.365843e-06
    433    437   2   0.50000    -0.1150000   -0.3300000   1.102666e-03  1.331965e-06
    438    436   2   0.50000    -0.1150000   -0.4300000   1.177174e-03  1.365843e-06
    438    437   2   0.50000    -0.1150000   -0.3300000   1.102666e-03  1.331965e-06
    433    456   2   0.50000    -0.1150000    0.1150000   2.431434e-04  1.541678e-07
    435    439   2   0.50000     0.6250000   -0.1150000   1.692561e-03  3.993218e-06
    435    456   2   0.50000     0.6250000    0.1150000   3.510079e-04  2.623353e-07
    434    461   2   0.50000    -0.1150000    0.1900000   1.091018e-03  2.092768e-06
    436    461   2   0.50000    -0.4300000    0.1900000   1.095425e-03  1.218041e-06
    435    460   2   0.50000     0.6250000   -0.0600000   1.575021e-03  3.561100e-06
    435    483   2   0.50000     0.6250000    0.0300000   2.482000e-04  1.854991e-07
    435    484   2   0.50000     0.6250000    0.0300000   2.482000e-04  1.854991e-07
    434    457   2   0.50000    -0.1150000    0.1150000   2.431434e-04  1.541678e-07
    456    431   2   0.50000     0.1150000   -0.1150000   2.431434e-04  1.541678e-07
    456    457   2   0.50000     0.1150000    0.1150000   5.042375e-05  1.012808e-08
    464    460   2   0.50000    -0.0600000   -0.0600000   1.015252e-03  1.866303e-06
    464    480   2   0.50000    -0.0600000    0.0600000   2.494471e-04  1.671101e-07
    464    481   2   0.50000    -0.0600000    0.0600000   2.494471e-04  1.671101e-07
    478    460   2   0.50000     0.0600000   -0.0600000   2.494471e-04  1.671101e-07
    478    480   2   0.50000     0.0600000    0.0600000   6.128906e-05  1.496315e-08
    478    481   2   0.50000     0.0600000    0.0600000   6.128906e-05  1.496315e-08
    479    460   2   0.50000     0.0600000   -0.0600000   2.494471e-04  1.671101e-07
    479    480   2   0.50000     0.0600000    0.0600000   6.128906e-05  1.496315e-08
    479    481   2   0.50000     0.0600000    0.0600000   6.128906e-05  1.496315e-08
    459    463   2   0.50000    -0.1200000   -0.1200000   1.015252e-03  1.866303e-06
    459    465   2   0.50000    -0.1200000    0.1900000   1.015252e-03  1.866303e-06
    459    489   2   0.50000    -0.1200000    0.0600000   2.494471e-04  1.671101e-07
    478    463   2   0.50000     0.0600000   -0.1200000   2.494471e-04  1.671101e-07
    478    465   2   0.50000     0.0600000    0.1900000   2.494471e-04  1.671101e-07
    478    489   2   0.50000     0.0600000    0.0600000   6.128906e-05  1.496315e-08
    479    463   2   0.50000     0.0600000   -0.1200000   2.494471e-04  1.671101e-07
    479    465   2   0.50000     0.0600000    0.1900000   2.494471e-04  1.671101e-07
    479    489   2   0.50000     0.0600000    0.0600000   6.128906e-05  1.496315e-08
    458    461   2   0.50000    -0.1200000    0.1900000   1.015252e-03  1.866303e-06
    458    462   2   0.50000    -0.1200000   -0.1200000   1.015252e-03  1.866303e-06
    458    482   2   0.50000    -0.1200000    0.0600000   2.494471e-04  1.671101e-07
    480    461   2   0.50000     0.0600000    0.1900000   2.494471e-04  1.671101e-07
    480    462   2   0.50000     0.0600000   -0.1200000   2.494471e-04  1.671101e-07
    480    482   2   0.50000     0.0600000    0.0600000   6.128906e-05  1.496315e-08
    481    461   2   0.50000     0.0600000    0.1900000   2.494471e-04  1.671101e-07
    481    462   2   0.50000     0.0600000   -0.1200000   2.494471e-04  1.671101e-07
    481    482   2   0.50000     0.0600000    0.0600000   6.128906e-05  1.496315e-08
    459    437   2   0.50000    -0.1200000   -0.3300000   1.026091e-03  1.187829e-06
    459    483   2   0.50000    -0.1200000    0.0300000   1.599888e-04  9.721644e-08
    459    484   2   0.50000    -0.1200000    0.0300000   1.599888e-04  9.721644e-08
    462    437   2   0.50000    -0.1200000   -0.3300000   1.026091e-03  1.187829e-06
    462    483   2   0.50000    -0.1200000    0.0300000   1.599888e-04  9.721644e-08
    462    484   2   0.50000    -0.1200000    0.0300000   1.599888e-04  9.721644e-08
    482    437   2   0.50000     0.0600000   -0.3300000   2.521103e-04  1.063590e-07
    482    483   2   0.50000     0.0600000    0.0300000   3.930919e-05  8.704828e-09
    482    484   2   0.50000     0.0600000    0.0300000   3.930919e-05  8.704828e-09
    459    485   2   0.50000    -0.1200000    0.0600000   2.494471e-04  1.671101e-07
    459    486   2   0.50000    -0.1200000    0.0600000   2.494471e-04  1.671101e-07
    461    463   2   0.50000     0.1900000   -0.1200000   1.015252e-03  1.866303e-06
    461    485   2   0.50000     0.1900000    0.0600000   2.494471e-04  1.671101e-07
    461    486   2   0.50000     0.1900000    0.0600000   2.494471e-04  1.671101e-07
    482    463   2   0.50000     0.0600000   -0.1200000   2.494471e-04  1.671101e-07
    482    485   2   0.50000     0.0600000    0.0600000   6.128906e-05  1.496315e-08
    482    486   2   0.50000     0.0600000    0.0600000   6.128906e-05  1.496315e-08
    460    487   2   0.50000    -0.0600000    0.0600000   2.494471e-04  1.671101e-07
    460    488   2   0.50000    -0.0600000    0.0600000   2.494471e-04  1.671101e-07
    485    464   2   0.50000     0.0600000   -0.0600000   2.494471e-04  1.671101e-07
    485    487   2   0.50000     0.0600000    0.0600000   6.128906e-05  1.496315e-08
    485    488   2   0.50000     0.0600000    0.0600000   6.128906e-05  1.496315e-08
    486    464   2   0.50000     0.0600000   -0.0600000   2.494471e-04  1.671101e-07
    486    487   2   0.50000     0.0600000    0.0600000   6.128906e-05  1.496315e-08
    486    488   2   0.50000     0.0600000    0.0600000   6.128906e-05  1.496315e-08
    462    465   2   0.50000    -0.1200000    0.1900000   1.015252e-03  1.866303e-06
    462    489   2   0.50000    -0.1200000    0.0600000   2.494471e-04  1.671101e-07
    487    458   2   0.50000     0.0600000   -0.1200000   2.494471e-04  1.671101e-07
    487    465   2   0.50000     0.0600000    0.1900000   2.494471e-04  1.671101e-07
    487    489   2   0.50000     0.0600000    0.0600000   6.128906e-05  1.496315e-08
    488    458   2   0.50000     0.0600000   -0.1200000   2.494471e-04  1.671101e-07
    488    465   2   0.50000     0.0600000    0.1900000   2.494471e-04  1.671101e-07
    488    489   2   0.50000     0.0600000    0.0600000   6.128906e-05  1.496315e-08
    458    466   2   0.50000    -0.1200000   -0.3300000   1.026091e-03  1.187829e-06
    458    490   2   0.50000    -0.1200000    0.0300000   1.599888e-04  9.721644e-08
    458    491   2   0.50000    -0.1200000    0.0300000   1.599888e-04  9.721644e-08
    463    466   2   0.50000    -0.1200000   -0.3300000   1.026091e-03  1.187829e-06
    463    490   2   0.50000    -0.1200000    0.0300000   1.599888e-04  9.721644e-08
    463    491   2   0.50000    -0.1200000    0.0300000   1.599888e-04  9.721644e-08
    489    466   2   0.50000     0.0600000   -0.3300000   2.521103e-04  1.063590e-07
    489    490   2   0.50000     0.0600000    0.0300000   3.930919e-05  8.704828e-09
    489    491   2   0.50000     0.0600000    0.0300000   3.930919e-05  8.704828e-09
    464    467   2   0.50000    -0.0600000    0.6250000   1.575021e-03  3.561100e-06
    490    467   2   0.50000     0.0300000    0.6250000   2.482000e-04  1.854991e-07
    491    467   2   0.50000     0.0300000    0.6250000   2.482000e-04  1.854991e-07
    465    468   2   0.50000     0.1900000   -0.4300000   1.095425e-03  1.218041e-06
    465    469   2   0.50000     0.1900000   -0.1150000   1.091018e-03  2.092768e-06
    466    470   2   0.50000    -0.3300000   -0.1150000   1.102666e-03  1.331965e-06
    466    477   2   0.50000    -0.3300000   -0.1150000   1.102666e-03  1.331965e-06
    468    470   2   0.50000    -0.4300000   -0.1150000   1.177174e-03  1.365843e-06
    468    477   2   0.50000    -0.4300000   -0.1150000   1.177174e-03  1.365843e-06
    467    471   2   0.50000     0.6250000   -0.1150000   1.692561e-03  3.993218e-06
    467    492   2   0.50000     0.6250000    0.1150000   3.510079e-04  2.623353e-07
    477    471   2   0.50000    -0.1150000   -0.1150000   1.172438e-03  2.346713e-06
    477    492   2   0.50000    -0.1150000    0.1150000   2.431434e-04  1.541678e-07
    467    476   2   0.50000     0.6250000   -0.1150000   1.692561e-03  3.993218e-06
    467    495   2   0.50000     0.6250000    0.1150000   3.510079e-04  2.623353e-07
    470    476   2   0.50000    -0.1150000   -0.1150000   1.172438e-03  2.346713e-06
    470    495   2   0.50000    -0.1150000    0.1150000   2.431434e-04  1.541678e-07
    469    472   2   0.50000    -0.1150000   -0.1150000   1.172438e-03  2.346713e-06
    469    493   2   0.50000    -0.1150000    0.1150000   2.431434e-04  1.541678e-07
    492    472   2   0.50000     0.1150000   -0.1150000   2.431434e-04  1.541678e-07
    492    493   2   0.50000     0.1150000    0.1150000   5.042375e-05  1.012808e-08
    470    473   2   0.50000    -0.1150000    0.6250000   1.692561e-03  3.993218e-06
    493    473   2   0.50000     0.1150000    0.6250000   3.510079e-04  2.623353e-07
    493    476   2   0.50000     0.1150000   -0.1150000   2.431434e-04  1.541678e-07
    471    474   2   0.50000    -0.1150000   -0.4300000   1.177174e-03  1.365843e-06
    471    475   2   0.50000    -0.1150000   -0.3300000   1.102666e-03  1.331965e-06
    476    474   2   0.50000    -0.1150000   -0.4300000   1.177174e-03  1.365843e-06
    476    475   2   0.50000    -0.1150000   -0.3300000   1.102666e-03  1.331965e-06
    471    494   2   0.50000    -0.1150000    0.1150000   2.431434e-04  1.541678e-07
    473    477   2   0.50000     0.6250000   -0.1150000   1.692561e-03  3.993218e-06
    473    494   2   0.50000     0.6250000    0.1150000   3.510079e-04  2.623353e-07
    472    499   2   0.50000    -0.1150000    0.1900000   1.091018e-03  2.092768e-06
    474    499   2   0.50000    -0.4300000    0.1900000   1.095425e-03  1.218041e-06
    473    498   2   0.50000     0.6250000   -0.0600000   1.575021e-03  3.561100e-06
    473    521   2   0.50000     0.6250000    0.0300000   2.482000e-04  1.854991e-07
    473    522   2   0.50000     0.6250000    0.0300000   2.482000e-04  1.854991e-07
    472    495   2   0.50000    -0.1150000    0.1150000   2.431434e-04  1.541678e-07
    494    469   2   0.50000     0.1150000   -0.1150000   2.431434e-04  1.541678e-07
    494    495   2   0.50000     0.1150000    0.1150000   5.042375e-05  1.012808e-08
    502    498   2   0.50000    -0.0600000   -0.0600000   1.015252e-03  1.866303e-06
    502    518   2   0.50000    -0.0600000    0.0600000   2.494471e-04  1.671101e-07
    502    519   2   0.50000    -0.0600000    0.0600000   2.494471e-04  1.671101e-07
    516    498   2   0.50000     0.0600000   -0.0600000   2.494471e-04  1.671101e-07
    516    518   2   0.50000     0.0600000    0.0600000   6.128906e-05  1.496315e-08
    516    519   2   0.50000     0.0600000    0.0600000   6.128906e-05  1.496315e-08
    517    498   2   0.50000     0.0600000   -0.0600000   2.494471e-04  1.671101e-07
    517    518   2   0.50000     0.0600000    0.0600000   6.128906e-05  1.496315e-08
    517    519   2   0.50000     0.0600000    0.0600000   6.128906e-05  1.496315e-08
    497    501   2   0.50000    -0.1200000   -0.1200000   1.015252e-03  1.866303e-06
    497    503   2   0.50000    -0.1200000    0.1900000   1.015252e-03  1.866303e-06
    497    527   2   0.50000    -0.1200000    0.0600000   2.494471e-04  1.671101e-07
    516    501   2   0.50000     0.0600000   -0.1200000   2.494471e-04  1.671101e-07
    516    503   2   0.50000     0.0600000    0.1900000   2.494471e-04  1.671101e-07
    516    527   2   0.50000     0.0600000    0.0600000   6.128906e-05  1.496315e-08
    517    501   2   0.50000     0.0600000   -0.1200000   2.494471e-04  1.671101e-07
    517    503   2   0.50000     0.0600000    0.1900000   2.494471e-04  1.671101e-07
    517    527   2   0.50000     0.0600000    0.0600000   6.128906e-05  1.496315e-08
    496    499   2   0.50000    -0.1200000    0.1900000   1.015252e-03  1.866303e-06
    496    500   2   0.50000    -0.1200000   -0.1200000   1.015252e-03  1.866303e-06
    496    520   2   0.50000    -0.1200000    0.0600000   2.494471e-04  1.671101e-07
    518    499   2   0.50000     0.0600000    0.1900000   2.494471e-04  1.671101e-07
    518    500   2   0.50000     0.0600000   -0.1200000   2.494471e-04  1.671101e-07
    518    520   2   0.50000     0.0600000    0.0600000   6.128906e-05  1.496315e-08
    519    499   2   0.50000     0.0600000    0.1900000   2.494471e-04  1.671101e-07
    519    500   2   0.50000     0.0600000   -0.1200000   2.494471e-04  1.671101e-07
    519    520   2   0.50000     0.0600000    0.0600000   6.128906e-05  1.496315e-08
    497    475   2   0.50000    -0.1200000   -0.3300000   1.026091e-03  1.187829e-06
    497    521   2   0.50000    -0.1200000    0.0300000   1.599888e-04  9.721644e-08
    497    522   2   0.50000    -0.1200000    0.0300000   1.599888e-04  9.721644e-08
    500    475   2   0.50000    -0.1200000   -0.3300000   1.026091e-03  1.187829e-06
    500    521   2   0.50000    -0.1200000    0.0300000   1.599888e-04  9.721644e-08
    500    522   2   0.50000    -0.1200000    0.0300000   1.599888e-04  9.721644e-08
    520    475   2   0.50000     0.0600000   -0.3300000   2.521103e-04  1.063590e-07
    520    521   2   0.50000     0.0600000    0.0300000   3.930919e-05  8.704828e-09
    520    522   2   0.50000     0.0600000    0.0300000   3.930919e-05  8.704828e-09
    497    523   2   0.50000    -0.1200000    0.0600000   2.494471e-04  1.671101e-07
    497    524   2   0.50000    -0.1200000    0.0600000   2.494471e-04  1.671101e-07
    499    501   2   0.50000     0.1900000   -0.1200000   1.015252e-03  1.866303e-06
    499    523   2   0.50000     0.1900000    0.0600000   2.494471e-04  1.671101e-07
    499    524   2   0.50000     0.1900000    0.0600000   2.494471e-04  1.671101e-07
    520    501   2   0.50000     0.0600000   -0.1200000   2.494471e-04  1.671101e-07
    520    523   2   0.50000     0.0600000    0.0600000   6.128906e-05  1.496315e-08
    520    524   2   0.50000     0.0600000    0.0600000   6.128906e-05  1.496315e-08
    498    525   2   0.50000    -0.0600000    0.0600000   2.494471e-04  1.671101e-07
    498    526   2   0.50000    -0.0600000    0.0600000   2.494471e-04  1.671101e-07
    523    502   2   0.50000     0.0600000   -0.0600000   2.494471e-04  1.671101e-07
    523    525   2   0.50000     0.0600000    0.0600000   6.128906e-05  1.496315e-08
    523    526   2   0.50000     0.0600000    0.0600000   6.128906e-05  1.496315e-08
    524    502   2   0.50000     0.0600000   -0.0600000   2.494471e-04  1.671101e-07
    524    525   2   0.50000     0.0600000    0.0600000   6.128906e-05  1.496315e-08
    524    526   2   0.50000     0.0600000    0.0600000   6.128906e-05  1.496315e-08
    500    503   2   0.50000    -0.1200000    0.1900000   1.015252e-03  1.866303e-06
    500    527   2   0.50000    -0.1200000    0.0600000   2.494471e-04  1.671101e-07
    525    496   2   0.50000     0.0600000   -0.1200000   2.494471e-04  1.671101e-07
    525    503   2   0.50000     0.0600000    0.1900000   2.494471e-04  1.671101e-07
    525    527   2   0.50000     0.0600000    0.0600000   6.128906e-05  1.496315e-08
    526    496   2   0.50000     0.0600000   -0.1200000   2.494471e-04  1.671101e-07
    526    503   2   0.50000     0.0600000    0.1900000   2.494471e-04  1.671101e-07
    526    527   2   0.50000     0.0600000    0.0600000   6.128906e-05  1.496315e-08
    496    504   2   0.50000    -0.1200000   -0.3300000   1.026091e-03  1.187829e-06
    496    528   2   0.50000    -0.1200000    0.0300000   1.599888e-04  9.721644e-08
    496    529   2   0.50000    -0.1200000    0.0300000   1.599888e-04  9.721644e-08
    501    504   2   0.50000    -0.1200000   -0.3300000   1.026091e-03  1.187829e-06
    501    528   2   0.50000    -0.1200000    0.0300000   1.599888e-04  9.721644e-08
    501    529   2   0.50000    -0.1200000    0.0300000   1.599888e-04  9.721644e-08
    527    504   2   0.50000     0.0600000   -0.3300000   2.521103e-04  1.063590e-07
    527    528   2   0.50000     0.0600000    0.0300000   3.930919e-05  8.704828e-09
    527    529   2   0.50000     0.0600000    0.0300000   3.930919e-05  8.704828e-09
    502    505   2   0.50000    -0.0600000    0.6250000   1.575021e-03  3.561100e-06
    528    505   2   0.50000     0.0300000    0.6250000   2.482000e-04  1.854991e-07
    529    505   2   0.50000     0.0300000    0.6250000   2.482000e-04  1.854991e-07
    503    506   2   0.50000     0.1900000   -0.4300000   1.095425e-03  1.218041e-06
    503    507   2   0.50000     0.1900000   -0.1150000   1.091018e-03  2.092768e-06
    504    508   2   0.50000    -0.3300000   -0.1150000   1.102666e-03  1.331965e-06
    504    515   2   0.50000    -0.3300000   -0.1150000   1.102666e-03  1.331965e-06
    506    508   2   0.50000    -0.4300000   -0.1150000   1.177174e-03  1.365843e-06
    506    515   2   0.50000    -0.4300000   -0.1150000   1.177174e-03  1.365843e-06
    505    509   2   0.50000     0.6250000   -0.1150000   1.692561e-03  3.993218e-06
    505    530   2   0.50000     0.6250000    0.1150000   3.510079e-04  2.623353e-07
    515    509   2   0.50000    -0.1150000   -0.1150000   1.172438e-03  2.346713e-06
    515    530   2   0.50000    -0.1150000    0.1150000   2.431434e-04  1.541678e-07
    505    514   2   0.50000     0.6250000   -0.1150000   1.692561e-03  3.993218e-06
    505    533   2   0.50000     0.6250000    0.1150000   3.510079e-04  2.623353e-07
    508    514   2   0.50000    -0.1150000   -0.1150000   1.172438e-03  2.346713e-06
    508    533   2   0.50000    -0.1150000    0.1150000   2.431434e-04  1.541678e-07
    507    510   2   0.50000    -0.1150000   -0.1150000   1.172438e-03  2.346713e-06
    507    531   2   0.50000    -0.1150000    0.1150000   2.431434e-04  1.541678e-07
    530    510   2   0.50000     0.1150000   -0.1150000   2.431434e-04  1.541678e-07
    530    531   2   0.50000     0.1150000    0.1150000   5.042375e-05  1.012808e-08
    508    511   2   0.50000    -0.1150000    0.6250000   1.692561e-03  3.993218e-06
    531    511   2   0.50000     0.1150000    0.6250000   3.510079e-04  2.623353e-07
    531    514   2   0.50000     0.1150000   -0.1150000   2.431434e-04  1.541678e-07
    509    512   2   0.50000    -0.1150000   -0.4300000   1.177174e-03  1.365843e-06
    509    513   2   0.50000    -0.1150000   -0.3300000   1.102666e-03  1.331965e-06
    514    512   2   0.50000    -0.1150000   -0.4300000   1.177174e-03  1.365843e-06
    514    513   2   0.50000    -0.1150000   -0.3300000   1.102666e-03  1.331965e-06
    509    532   2   0.50000    -0.1150000    0.1150000   2.431434e-04  1.541678e-07
    511    515   2   0.50000     0.6250000   -0.1150000   1.692561e-03  3.993218e-06
    511    532   2   0.50000     0.6250000    0.1150000   3.510079e-04  2.623353e-07
    510    537   2   0.50000    -0.1150000    0.1900000   1.091018e-03  2.092768e-06
    512    537   2   0.50000    -0.4300000    0.1900000   1.095425e-03  1.218041e-06
    511    536   2   0.50000     0.6250000   -0.0600000   1.575021e-03  3.561100e-06
    511    559   2   0.50000     0.6250000    0.0300000   2.482000e-04  1.854991e-07
    511    560   2   0.50000     0.6250000    0.0300000   2.482000e-04  1.854991e-07
    510    533   2   0.50000    -0.1150000    0.1150000   2.431434e-04  1.541678e-07
    532    507   2   0.50000     0.1150000   -0.1150000   2.431434e-04  1.541678e-07
    532    533   2   0.50000     0.1150000    0.1150000   5.042375e-05  1.012808e-08
    540    536   2   0.50000    -0.0600000   -0.0600000   1.015252e-03  1.866303e-06
    540    556   2   0.50000    -0.0600000    0.0600000   2.494471e-04  1.671101e-07
    540    557   2   0.50000    -0.0600000    0.0600000   2.494471e-04  1.671101e-07
    554    536   2   0.50000     0.0600000   -0.0600000   2.494471e-04  1.671101e-07
    554    556   2   0.50000     0.0600000    0.0600000   6.128906e-05  1.496315e-08
    554    557   2   0.50000     0.0600000    0.0600000   6.128906e-05  1.496315e-08
    555    536   2   0.50000     0.0600000   -0.0600000   2.494471e-04  1.671101e-07
    555    556   2   0.50000     0.0600000    0.0600000   6.128906e-05  1.496315e-08
    555    557   2   0.50000     0.0600000    0.0600000   6.128906e-05  1.496315e-08
    535    539   2   0.50000    -0.1200000   -0.1200000   1.015252e-03  1.866303e-06
    535    541   2   0.50000    -0.1200000    0.1900000   1.015252e-03  1.866303e-06
    535    565   2   0.50000    -0.1200000    0.0600000   2.494471e-04  1.671101e-07
    554    539   2   0.50000     0.0600000   -0.1200000   2.494471e-04  1.671101e-07
    554    541   2   0.50000     0.0600000    0.1900000   2.494471e-04  1.671101e-07
    554    565   2   0.50000     0.0600000    0.0600000   6.128906e-05  1.496315e-08
    555    539   2   0.50000     0.0600000   -0.1200000   2.494471e-04  1.671101e-07
    555    541   2   0.50000     0.0600000    0.1900000   2.494471e-04  1.671101e-07
    555    565   2   0.50000     0.0600000    0.0600000   6.128906e-05  1.496315e-08
    534    537   2   0.50000    -0.1200000    0.1900000   1.015252e-03  1.866303e-06
    534    538   2   0.50000    -0.1200000   -0.1200000   1.015252e-03  1.866303e-06
    534    558   2   0.50000    -0.1200000    0.0600000   2.494471e-04  1.671101e-07
    556    537   2   0.50000     0.0600000    0.1900000   2.494471e-04  1.671101e-07
    556    538   2   0.50000     0.0600000   -0.1200000   2.494471e-04  1.671101e-07
    556    558   2   0.50000     0.0600000    0.0600000   6.128906e-05  1.496315e-08
    557    537   2   0.50000     0.0600000    0.1900000   2.494471e-04  1.671101e-07
    557    538   2   0.50000     0.0600000   -0.1200000   2.494471e-04  1.671101e-07
    557    558   2   0.50000     0.0600000    0.0600000   6.128906e-05  1.496315e-08
    535    513   2   0.50000    -0.1200000   -0.3300000   1.026091e-03  1.187829e-06
    535    559   2   0.50000    -0.1200000    0.0300000   1.599888e-04  9.721644e-08
    535    560   2   0.50000    -0.1200000    0.0300000   1.599888e-04  9.721644e-08
    538    513   2   0.50000    -0.1200000   -0.3300000   1.026091e-03  1.187829e-06
    538    559   2   0.50000    -0.1200000    0.0300000   1.599888e-04  9.721644e-08
    538    560   2   0.50000    -0.1200000    0.0300000   1.599888e-04  9.721644e-08
    558    513   2   0.50000     0.0600000   -0.3300000   2.521103e-04  1.063590e-07
    558    559   2   0.50000     0.0600000    0.0300000   3.930919e-05  8.704828e-09
    558    560   2   0.50000     0.0600000    0.0300000   3.930919e-05  8.704828e-09
    535    561   2   0.50000    -0.1200000    0.0600000   2.494471e-04  1.671101e-07
    535    562   2   0.50000    -0.1200000    0.0600000   2.494471e-04  1.671101e-07
    537    539   2   0.50000     0.1900000   -0.1200000   1.015252e-03  1.866303e-06
    537    561   2   0.50000     0.1900000    0.0600000   2.494471e-04  1.671101e-07
    537    562   2   0.50000     0.1900000    0.0600000   2.494471e-04  1.671101e-07
    558    539   2   0.50000     0.0600000   -0.1200000   2.494471e-04  1.671101e-07
    558    561   2   0.50000     0.0600000    0.0600000   6.128906e-05  1.496315e-08
    558    562   2   0.50000     0.0600000    0.0600000   6.128906e-05  1.496315e-08
    536    563   2   0.50000    -0.0600000    0.0600000   2.494471e-04  1.671101e-07
    536    564   2   0.50000    -0.0600000    0.0600000   2.494471e-04  1.671101e-07
    561    540   2   0.50000     0.0600000   -0.0600000   2.494471e-04  1.671101e-07
    561    563   2   0.50000     0.0600000    0.0600000   6.128906e-05  1.496315e-08
    561    564   2   0.50000     0.0600000    0.0600000   6.128906e-05  1.496315e-08
    562    540   2   0.50000     0.0600000   -0.0600000   2.494471e-04  1.671101e-07
    562    563   2   0.50000     0.0600000    0.0600000   6.128906e-05  1.496315e-08
    562    564   2   0.50000     0.0600000    0.0600000   6.128906e-05  1.496315e-08
    538    541   2   0.50000    -0.1200000    0.1900000   1.015252e-03  1.866303e-06
    538    565   2   0.50000    -0.1200000    0.0600000   2.494471e-04  1.671101e-07
    563    534   2   0.50000     0.0600000   -0.1200000   2.494471e-04  1.671101e-07
    563    541   2   0.50000     0.0600000    0.1900000   2.494471e-04  1.671101e-07
    563    565   2   0.50000     0.0600000    0.0600000   6.128906e-05  1.496315e-08
    564    534   2   0.50000     0.0600000   -0.1200000   2.494471e-04  1.671101e-07
    564    541   2   0.50000     0.0600000    0.1900000   2.494471e-04  1.671101e-07
    564    565   2   0.50000     0.0600000    0.0600000   6.128906e-05  1.496315e-08
    534    542   2   0.50000    -0.1200000   -0.3300000   1.026091e-03  1.187829e-06
    534    566   2   0.50000    -0.1200000    0.0300000   1.599888e-04  9.721644e-08
    534    567   2   0.50000    -0.1200000    0.0300000   1.599888e-04  9.721644e-08
    539    542   2   0.50000    -0.1200000   -0.3300000   1.026091e-03  1.187829e-06
    539    566   2   0.50000    -0.1200000    0.0300000   1.599888e-04  9.721644e-08
    539    567   2   0.50000    -0.1200000    0.0300000   1.599888e-04  9.721644e-08
    565    542   2   0.50000     0.0600000   -0.3300000   2.521103e-04  1.063590e-07
    565    566   2   0.50000     0.0600000    0.0300000   3.930919e-05  8.704828e-09
    565    567   2   0.50000     0.0600000    0.0300000   3.930919e-05  8.704828e-09
    540    543   2   0.50000    -0.0600000    0.6250000   1.575021e-03  3.561100e-06
    566    543   2   0.50000     0.0300000    0.6250000   2.482000e-04  1.854991e-07
    567    543   2   0.50000     0.0300000    0.6250000   2.482000e-04  1.854991e-07
    541    544   2   0.50000     0.1900000   -0.4300000   1.095425e-03  1.218041e-06
    541    545   2   0.50000     0.1900000   -0.1150000   1.091018e-03  2.092768e-06
    542    546   2   0.50000    -0.3300000   -0.1150000   1.102666e-03  1.331965e-06
    542    553   2   0.50000    -0.3300000   -0.1150000   1.102666e-03  1.331965e-06
    544    546   2   0.50000    -0.4300000   -0.1150000   1.177174e-03  1.365843e-06
    544    553   2   0.50000    -0.4300000   -0.1150000   1.177174e-03  1.365843e-06
    543    547   2   0.50000     0.6250000   -0.1150000   1.692561e-03  3.993218e-06
    543    568   2   0.50000     0.6250000    0.1150000   3.510079e-04  2.623353e-07
    553    547   2   0.50000    -0.1150000   -0.1150000   1.172438e-03  2.346713e-06
    553    568   2   0.50000    -0.1150000    0.1150000   2.431434e-04  1.541678e-07
    543    552   2   0.50000     0.6250000   -0.1150000   1.692561e-03  3.993218e-06
    543    571   2   0.50000     0.6250000    0.1150000   3.510079e-04  2.623353e-07
    546    552   2   0.50000    -0.1150000   -0.1150000   1.172438e-03  2.346713e-06
    546    571   2   0.50000    -0.1150000    0.1150000   2.431434e-04  1.541678e-07
    545    548   2   0.50000    -0.1150000   -0.1150000   1.172438e-03  2.346713e-06
    545    569   2   0.50000    -0.1150000    0.1150000   2.431434e-04  1.541678e-07
    568    548   2   0.50000     0.1150000   -0.1150000   2.431434e-04  1.541678e-07
    568    569   2   0.50000     0.1150000    0.1150000   5.042375e-05  1.012808e-08
    546    549   2   0.50000    -0.1150000    0.6250000   1.692561e-03  3.993218e-06
    569    549   2   0.50000     0.1150000    0.6250000   3.510079e-04  2.623353e-07
    569    552   2   0.50000     0.1150000   -0.1150000   2.431434e-04  1.541678e-07
    547    550   2   0.50000    -0.1150000   -0.4300000   1.177174e-03  1.365843e-06
    547    551   2   0.50000    -0.1150000   -0.3300000   1.102666e-03  1.331965e-06
    552    550   2   0.50000    -0.1150000   -0.4300000   1.177174e-03  1.365843e-06
    552    551   2   0.50000    -0.1150000   -0.3300000   1.102666e-03  1.331965e-06
    547    570   2   0.50000    -0.1150000    0.1150000   2.431434e-04  1.541678e-07
    549    553   2   0.50000     0.6250000   -0.1150000   1.692561e-03  3.993218e-06
    549    570   2   0.50000     0.6250000    0.1150000   3.510079e-04  2.623353e-07
    548    575   2   0.50000    -0.1150000    0.1900000   1.091018e-03  2.092768e-06
    550    575   2   0.50000    -0.4300000    0.1900000   1.095425e-03  1.218041e-06
    549    574   2   0.50000     0.6250000   -0.0600000   1.575021e-03  3.561100e-06
    549    597   2   0.50000     0.6250000    0.0300000   2.482000e-04  1.854991e-07
    549    598   2   0.50000     0.6250000    0.0300000   2.482000e-04  1.854991e-07
    548    571   2   0.50000    -0.1150000    0.1150000   2.431434e-04  1.541678e-07
    570    545   2   0.50000     0.1150000   -0.1150000   2.431434e-04  1.541678e-07
    570    571   2   0.50000     0.1150000    0.1150000   5.042375e-05  1.012808e-08
    578    574   2   0.50000    -0.0600000   -0.0600000   1.015252e-03  1.866303e-06
    578    594   2   0.50000    -0.0600000    0.0600000   2.494471e-04  1.671101e-07
    578    595   2   0.50000    -0.0600000    0.0600000   2.494471e-04  1.671101e-07
    592    574   2   0.50000     0.0600000   -0.0600000   2.494471e-04  1.671101e-07
    592    594   2   0.50000     0.0600000    0.0600000   6.128906e-05  1.496315e-08
    592    595   2   0.50000     0.0600000    0.0600000   6.128906e-05  1.496315e-08
    593    574   2   0.50000     0.0600000   -0.0600000   2.494471e-04  1.671101e-07
    593    594   2   0.50000     0.0600000    0.0600000   6.128906e-05  1.496315e-08
    593    595   2   0.50000     0.0600000    0.0600000   6.128906e-05  1.496315e-08
    573    577   2   0.50000    -0.1200000   -0.1200000   1.015252e-03  1.866303e-06
    573    579   2   0.50000    -0.1200000    0.1900000   1.015252e-03  1.866303e-06
    573    603   2   0.50000    -0.1200000    0.0600000   2.494471e-04  1.671101e-07
    592    577   2   0.50000     0.0600000   -0.1200000   2.494471e-04  1.671101e-07
    592    579   2   0.50000     0.0600000    0.1900000   2.494471e-04  1.671101e-07
    592    603   2   0.50000     0.0600000    0.0600000   6.128906e-05  1.496315e-08
    593    577   2   0.50000     0.0600000   -0.1200000   2.494471e-04  1.671101e-07
    593    579   2   0.50000     0.0600000    0.1900000   2.494471e-04  1.671101e-07
    593    603   2   0.50000     0.0600000    0.0600000   6.128906e-05  1.496315e-08
    572    575   2   0.50000    -0.1200000    0.1900000   1.015252e-03  1.866303e-06
    572    576   2   0.50000    -0.1200000   -0.1200000   1.015252e-03  1.866303e-06
    572    596   2   0.50000    -0.1200000    0.0600000   2.494471e-04  1.671101e-07
    594    575   2   0.50000     0.0600000    0.1900000   2.494471e-04  1.671101e-07
    594    576   2   0.50000     0.0600000   -0.1200000   2.494471e-04  1.671101e-07
    594    596   2   0.50000     0.0600000    0.0600000   6.128906e-05  1.496315e-08
    595    575   2   0.50000     0.0600000    0.1900000   2.494471e-04  1.671101e-07
    595    576   2   0.50000     0.0600000   -0.1200000   2.494471e-04  1.671101e-07
    595    596   2   0.50000     0.0600000    0.0600000   6.128906e-05  1.496315e-08
    573    551   2   0.50000    -0.1200000   -0.3300000   1.026091e-03  1.187829e-06
    573    597   2   0.50000    -0.1200000    0.0300000   1.599888e-04  9.721644e-08
    573    598   2   0.50000    -0.1200000    0.0300000   1.599888e-04  9.721644e-08
    576    551   2   0.50000    -0.1200000   -0.3300000   1.026091e-03  1.187829e-06
    576    597   2   0.50000    -0.1200000    0.0300000   1.599888e-04  9.721644e-08
    576    598   2   0.50000    -0.1200000    0.0300000   1.599888e-04  9.721644e-08
    596    551   2   0.50000     0.0600000   -0.3300000   2.521103e-04  1.063590e-07
    596    597   2   0.50000     0.0600000    0.0300000   3.930919e-05  8.704828e-09
    596    598   2   0.50000     0.0600000    0.0300000   3.930919e-05  8.704828e-09
    573    599   2   0.50000    -0.1200000    0.0600000   2.494471e-04  1.671101e-07
    573    600   2   0.50000    -0.1200000    0.0600000   2.494471e-04  1.671101e-07
    575    577   2   0.50000     0.1900000   -0.1200000   1.015252e-03  1.866303e-06
    575    599   2   0.50000     0.1900000    0.0600000   2.494471e-04  1.671101e-07
    575    600   2   0.50000     0.1900000    0.0600000   2.494471e-04  1.671101e-07
    596    577   2   0.50000     0.0600000   -0.1200000   2.494471e-04  1.671101e-07
    596    599   2   0.50000     0.0600000    0.0600000   6.128906e-05  1.496315e-08
    596    600   2   0.50000     0.0600000    0.0600000   6.128906e-05  1.496315e-08
    574    601   2   0.50000    -0.0600000    0.0600000   2.494471e-04  1.671101e-07
    574    602   2   0.50000    -0.0600000    0.0600000   2.494471e-04  1.671101e-07
    599    578   2   0.50000     0.0600000   -0.0600000   2.494471e-04  1.671101e-07
    599    601   2   0.50000     0.0600000    0.0600000   6.128906e-05  1.496315e-08
    599    602   2   0.50000     0.0600000    0.0600000   6.128906e-05  1.496315e-08
    600    578   2   0.50000     0.0600000   -0.0600000   2.494471e-04  1.671101e-07
    600    601   2   0.50000     0.0600000    0.0600000   6.128906e-05  1.496315e-08
    600    602   2   0.50000     0.0600000    0.0600000   6.128906e-05  1.496315e-08
    576    579   2   0.50000    -0.1200000    0.1900000   1.015252e-03  1.866303e-06
    576    603   2   0.50000    -0.1200000    0.0600000   2.494471e-04  1.671101e-07
    601    572   2   0.50000     0.0600000   -0.1200000   2.494471e-04  1.671101e-07
    601    579   2   0.50000     0.0600000    0.1900000   2.494471e-04  1.671101e-07
    601    603   2   0.50000     0.0600000    0.0600000   6.128906e-05  1.496315e-08
    602    572   2   0.50000     0.0600000   -0.1200000   2.494471e-04  1.671101e-07
    602    579   2   0.50000     0.0600000    0.1900000   2.494471e-04  1.671101e-07
    602    603   2   0.50000     0.0600000    0.0600000   6.128906e-05  1.496315e-08
    572    580   2   0.50000    -0.1200000   -0.3300000   1.026091e-03  1.187829e-06
    572    604   2   0.50000    -0.1200000    0.0300000   1.599888e-04  9.721644e-08
    572    605   2   0.50000    -0.1200000    0.0300000   1.599888e-04  9.721644e-08
    577    580   2   0.50000    -0.1200000   -0.3300000   1.026091e-03  1.187829e-06
    577    604   2   0.50000    -0.1200000    0.0300000   1.599888e-04  9.721644e-08
    577    605   2   0.50000    -0.1200000    0.0300000   1.599888e-04  9.721644e-08
    603    580   2   0.50000     0.0600000   -0.3300000   2.521103e-04  1.063590e-07
    603    604   2   0.50000     0.0600000    0.0300000   3.930919e-05  8.704828e-09
    603    605   2   0.50000     0.0600000    0.0300000   3.930919e-05  8.704828e-09
    578    581   2   0.50000    -0.0600000    0.6250000   1.575021e-03  3.561100e-06
    604    581   2   0.50000     0.0300000    0.6250000   2.482000e-04  1.854991e-07
    605    581   2   0.50000     0.0300000    0.6250000   2.482000e-04  1.854991e-07
    579    582   2   0.50000     0.1900000   -0.4300000   1.095425e-03  1.218041e-06
    579    583   2   0.50000     0.1900000   -0.1150000   1.091018e-03  2.092768e-06
    580    584   2   0.50000    -0.3300000   -0.1150000   1.102666e-03  1.331965e-06
    580    591   2   0.50000    -0.3300000   -0.1150000   1.102666e-03  1.331965e-06
    582    584   2   0.50000    -0.4300000   -0.1150000   1.177174e-03  1.365843e-06
    582    591   2   0.50000    -0.4300000   -0.1150000   1.177174e-03  1.365843e-06
    581    585   2   0.50000     0.6250000   -0.1150000   1.692561e-03  3.993218e-06
    581    606   2   0.50000     0.6250000    0.1150000   3.510079e-04  2.623353e-07
    591    585   2   0.50000    -0.1150000   -0.1150000   1.172438e-03  2.346713e-06
    591    606   2   0.50000    -0.1150000    0.1150000   2.431434e-04  1.541678e-07
    581    590   2   0.50000     0.6250000   -0.1150000   1.692561e-03  3.993218e-06
    581    609   2   0.50000     0.6250000    0.1150000   3.510079e-04  2.623353e-07
    584    590   2   0.50000    -0.1150000   -0.1150000   1.172438e-03  2.346713e-06
    584    609   2   0.50000    -0.1150000    0.1150000   2.431434e-04  1.541678e-07
    583    586   2   0.50000    -0.1150000   -0.1150000   1.172438e-03  2.346713e-06
    583    607   2   0.50000    -0.1150000    0.1150000   2.431434e-04  1.541678e-07
    606    586   2   0.50000     0.1150000   -0.1150000   2.431434e-04  1.541678e-07
    606    607   2   0.50000     0.1150000    0.1150000   5.042375e-05  1.012808e-08
    584    587   2   0.50000    -0.1150000    0.6250000   1.692561e-03  3.993218e-06
    607    587   2   0.50000     0.1150000    0.6250000   3.510079e-04  2.623353e-07
    607    590   2   0.50000     0.1150000   -0.1150000   2.431434e-04  1.541678e-07
    585    588   2   0.50000    -0.1150000   -0.4300000   1.177174e-03  1.365843e-06
    585    589   2   0.50000    -0.1150000   -0.3300000   1.102666e-03  1.331965e-06
    590    588   2   0.50000    -0.1150000   -0.4300000   1.177174e-03  1.365843e-06
    590    589   2   0.50000    -0.1150000   -0.3300000   1.102666e-03  1.331965e-06
    585    608   2   0.50000    -0.1150000    0.1150000   2.431434e-04  1.541678e-07
    587    591   2   0.50000     0.6250000   -0.1150000   1.692561e-03  3.993218e-06
    587    608   2   0.50000     0.6250000    0.1150000   3.510079e-04  2.623353e-07
    586    613   2   0.50000    -0.1150000    0.1900000   1.091018e-03  2.092768e-06
    588    613   2   0.50000    -0.4300000    0.1900000   1.095425e-03  1.218041e-06
    587    612   2   0.50000     0.6250000   -0.0600000   1.575021e-03  3.561100e-06
    587    635   2   0.50000     0.6250000    0.0300000   2.482000e-04  1.854991e-07
    587    636   2   0.50000     0.6250000    0.0300000   2.482000e-04  1.854991e-07
    586    609   2   0.50000    -0.1150000    0.1150000   2.431434e-04  1.541678e-07
    608    583   2   0.50000     0.1150000   -0.1150000   2.431434e-04  1.541678e-07
    608    609   2   0.50000     0.1150000    0.1150000   5.042375e-05  1.012808e-08
    616    612   2   0.50000    -0.0600000   -0.0600000   1.015252e-03  1.866303e-06
    616    632   2   0.50000    -0.0600000    0.0600000   2.494471e-04  1.671101e-07
    616    633   2   0.50000    -0.0600000    0.0600000   2.494471e-04  1.671101e-07
    630    612   2   0.50000     0.0600000   -0.0600000   2.494471e-04  1.671101e-07
    630    632   2   0.50000     0.0600000    0.0600000   6.128906e-05  1.496315e-08
    630    633   2   0.50000     0.0600000    0.0600000   6.128906e-05  1.496315e-08
    631    612   2   0.50000     0.0600000   -0.0600000   2.494471e-04  1.671101e-07
    631    632   2   0.50000     0.0600000    0.0600000   6.128906e-05  1.496315e-08
    631    633   2   0.50000     0.0600000    0.0600000   6.128906e-05  1.496315e-08
    611    615   2   0.50000    -0.1200000   -0.1200000   1.015252e-03  1.866303e-06
    611    617   2   0.50000    -0.1200000    0.1900000   1.015252e-03  1.866303e-06
    611    641   2   0.50000    -0.1200000    0.0600000   2.494471e-04  1.671101e-07
    630    615   2   0.50000     0.0600000   -0.1200000   2.494471e-04  1.671101e-07
    630    617   2   0.50000     0.0600000    0.1900000   2.494471e-04  1.671101e-07
    630    641   2   0.50000     0.0600000    0.0600000   6.128906e-05  1.496315e-08
    631    615   2   0.50000     0.0600000   -0.1200000   2.494471e-04  1.671101e-07
    631    617   2   0.50000     0.0600000    0.1900000   2.494471e-04  1.671101e-07
    631    641   2   0.50000     0.0600000    0.0600000   6.128906e-05  1.496315e-08
    610    613   2   0.50000    -0.1200000    0.1900000   1.015252e-03  1.866303e-06
    610    614   2   0.50000    -0.1200000   -0.1200000   1.015252e-03  1.866303e-06
    610    634   2   0.50000    -0.1200000    0.0600000   2.494471e-04  1.671101e-07
    632    613   2   0.50000     0.0600000    0.1900000   2.494471e-04  1.671101e-07
    632    614   2   0.50000     0.0600000   -0.1200000   2.494471e-04  1.671101e-07
    632    634   2   0.50000     0.0600000    0.0600000   6.128906e-05  1.496315e-08
    633    613   2   0.50000     0.0600000    0.1900000   2.494471e-04  1.671101e-07
    633    614   2   0.50000     0.0600000   -0.1200000   2.494471e-04  1.671101e-07
    633    634   2   0.50000     0.0600000    0.0600000   6.128906e-05  1.496315e-08
    611    589   2   0.50000    -0.1200000   -0.3300000   1.026091e-03  1.187829e-06
    611    635   2   0.50000    -0.1200000    0.0300000   1.599888e-04  9.721644e-08
    611    636   2   0.50000    -0.1200000    0.0300000   1.599888e-04  9.721644e-08
    614    589   2   0.50000    -0.1200000   -0.3300000   1.026091e-03  1.187829e-06
    614    635   2   0.50000    -0.1200000    0.0300000   1.599888e-04  9.721644e-08
    614    636   2   0.50000    -0.1200000    0.0300000   1.599888e-04  9.721644e-08
    634    589   2   0.50000     0.0600000   -0.3300000   2.521103e-04  1.063590e-07
    634    635   2   0.50000     0.0600000    0.0300000   3.930919e-05  8.704828e-09
    634    636   2   0.50000     0.0600000    0.0300000   3.930919e-05  8.704828e-09
    611    637   2   0.50000    -0.1200000    0.0600000   2.494471e-04  1.671101e-07
    611    638   2   0.50000    -0.1200000    0.0600000   2.494471e-04  1.671101e-07
    613    615   2   0.50000     0.1900000   -0.1200000   1.015252e-03  1.866303e-06
    613    637   2   0.50000     0.1900000    0.0600000   2.494471e-04  1.671101e-07
    613    638   2   0.50000     0.1900000    0.0600000   2.494471e-04  1.671101e-07
    634    615   2   0.50000     0.0600000   -0.1200000   2.494471e-04  1.671101e-07
    634    637   2   0.50000     0.0600000    0.0600000   6.128906e-05  1.496315e-08
    634    638   2   0.50000     0.0600000    0.0600000   6.128906e-05  1.496315e-08
    612    639   2   0.50000    -0.0600000    0.0600000   2.494471e-04  1.671101e-07
    612    640   2   0.50000    -0.0600000    0.0600000   2.494471e-04  1.671101e-07
    637    616   2   0.50000     0.0600000   -0.0600000   2.494471e-04  1.671101e-07
    637    639   2   0.50000     0.0600000    0.0600000   6.128906e-05  1.496315e-08
    637    640   2   0.50000     0.0600000    0.0600000   6.128906e-05  1.496315e-08
    638    616   2   0.50000     0.0600000   -0.0600000   2.494471e-04  1.671101e-07
    638    639   2   0.50000     0.0600000    0.0600000   6.128906e-05  1.496315e-08
    638    640   2   0.50000     0.0600000    0.0600000   6.128906e-05  1.496315e-08
    614    617   2   0.50000    -0.1200000    0.1900000   1.015252e-03  1.866303e-06
    614    641   2   0.50000    -0.1200000    0.0600000   2.494471e-04  1.671101e-07
    639    610   2   0.50000     0.0600000   -0.1200000   2.494471e-04  1.671101e-07
    639    617   2   0.50000     0.0600000    0.1900000   2.494471e-04  1.671101e-07
    639    641   2   0.50000     0.0600000    0.0600000   6.128906e-05  1.496315e-08
    640    610   2   0.50000     0.0600000   -0.1200000   2.494471e-04  1.671101e-07
    640    617   2   0.50000     0.0600000    0.1900000   2.494471e-04  1.671101e-07
    640    641   2   0.50000     0.0600000    0.0600000   6.128906e-05  1.496315e-08
    610    618   2   0.50000    -0.1200000   -0.3300000   1.026091e-03  1.187829e-06
    610    642   2   0.50000    -0.1200000    0.0300000   1.599888e-04  9.721644e-08
    610    643   2   0.50000    -0.1200000    0.0300000   1.599888e-04  9.721644e-08
    615    618   2   0.50000    -0.1200000   -0.3300000   1.026091e-03  1.187829e-06
    615    642   2   0.50000    -0.1200000    0.0300000   1.599888e-04  9.721644e-08
    615    643   2   0.50000    -0.1200000    0.0300000   1.599888e-04  9.721644e-08
    641    618   2   0.50000     0.0600000   -0.3300000   2.521103e-04  1.063590e-07
    641    642   2   0.50000     0.0600000    0.0300000   3.930919e-05  8.704828e-09
    641    643   2   0.50000     0.0600000    0.0300000   3.930919e-05  8.704828e-09
    616    619   2   0.50000    -0.0600000    0.6250000   1.575021e-03  3.561100e-06
    642    619   2   0.50000     0.0300000    0.6250000   2.482000e-04  1.854991e-07
    643    619   2   0.50000     0.0300000    0.6250000   2.482000e-04  1.854991e-07
    617    620   2   0.50000     0.1900000   -0.4300000   1.095425e-03  1.218041e-06
    617    621   2   0.50000     0.1900000   -0.1150000   1.091018e-03  2.092768e-06
    618    622   2   0.50000    -0.3300000   -0.1150000   1.102666e-03  1.331965e-06
    618    629   2   0.50000    -0.3300000   -0.1150000   1.102666e-03  1.331965e-06
    620    622   2   0.50000    -0.4300000   -0.1150000   1.177174e-03  1.365843e-06
    620    629   2   0.50000    -0.4300000   -0.1150000   1.177174e-03  1.365843e-06
    619    623   2   0.50000     0.6250000   -0.1150000   1.692561e-03  3.993218e-06
    619    644   2   0.50000     0.6250000    0.1150000   3.510079e-04  2.623353e-07
    629    623   2   0.50000    -0.1150000   -0.1150000   1.172438e-03  2.346713e-06
    629    644   2   0.50000    -0.1150000    0.1150000   2.431434e-04  1.541678e-07
    619    628   2   0.50000     0.6250000   -0.1150000   1.692561e-03  3.993218e-06
    619    647   2   0.50000     0.6250000    0.1150000   3.510079e-04  2.623353e-07
    622    628   2   0.50000    -0.1150000   -0.1150000   1.172438e-03  2.346713e-06
    622    647   2   0.50000    -0.1150000    0.1150000   2.431434e-04  1.541678e-07
    621    624   2   0.50000    -0.1150000   -0.1150000   1.172438e-03  2.346713e-06
    621    645   2   0.50000    -0.1150000    0.1150000   2.431434e-04  1.541678e-07
    644    624   2   0.50000     0.1150000   -0.1150000   2.431434e-04  1.541678e-07
    644    645   2   0.50000     0.1150000    0.1150000   5.042375e-05  1.012808e-08
    622    625   2   0.50000    -0.1150000    0.6250000   1.692561e-03  3.993218e-06
    645    625   2   0.50000     0.1150000    0.6250000   3.510079e-04  2.623353e-07
    645    628   2   0.50000     0.1150000   -0.1150000   2.431434e-04  1.541678e-07
    623    626   2   0.50000    -0.1150000   -0.4300000   1.177174e-03  1.365843e-06
    623    627   2   0.50000    -0.1150000   -0.3300000   1.102666e-03  1.331965e-06
    628    626   2   0.50000    -0.1150000   -0.4300000   1.177174e-03  1.365843e-06
    628    627   2   0.50000    -0.1150000   -0.3300000   1.102666e-03  1.331965e-06
    623    646   2   0.50000    -0.1150000    0.1150000   2.431434e-04  1.541678e-07
    625    629   2   0.50000     0.6250000   -0.1150000   1.692561e-03  3.993218e-06
    625    646   2   0.50000     0.6250000    0.1150000   3.510079e-04  2.623353e-07
    624    651   2   0.50000    -0.1150000    0.1900000   1.091018e-03  2.092768e-06
    626    651   2   0.50000    -0.4300000    0.1900000   1.095425e-03  1.218041e-06
    625    650   2   0.50000     0.6250000   -0.0600000   1.575021e-03  3.561100e-06
    625    673   2   0.50000     0.6250000    0.0300000   2.482000e-04  1.854991e-07
    625    674   2   0.50000     0.6250000    0.0300000   2.482000e-04  1.854991e-07
    624    647   2   0.50000    -0.1150000    0.1150000   2.431434e-04  1.541678e-07
    646    621   2   0.50000     0.1150000   -0.1150000   2.431434e-04  1.541678e-07
    646    647   2   0.50000     0.1150000    0.1150000   5.042375e-05  1.012808e-08
    654    650   2   0.50000    -0.0600000   -0.0600000   1.015252e-03  1.866303e-06
    654    670   2   0.50000    -0.0600000    0.0600000   2.494471e-04  1.671101e-07
    654    671   2   0.50000    -0.0600000    0.0600000   2.494471e-04  1.671101e-07
    668    650   2   0.50000     0.0600000   -0.0600000   2.494471e-04  1.671101e-07
    668    670   2   0.50000     0.0600000    0.0600000   6.128906e-05  1.496315e-08
    668    671   2   0.50000     0.0600000    0.0600000   6.128906e-05  1.496315e-08
    669    650   2   0.50000     0.0600000   -0.0600000   2.494471e-04  1.671101e-07
    669    670   2   0.50000     0.0600000    0.0600000   6.128906e-05  1.496315e-08
    669    671   2   0.50000     0.0600000    0.0600000   6.128906e-05  1.496315e-08
    649    653   2   0.50000    -0.1200000   -0.1200000   1.015252e-03  1.866303e-06
    649    655   2   0.50000    -0.1200000    0.1900000   1.015252e-03  1.866303e-06
    649    679   2   0.50000    -0.1200000    0.0600000   2.494471e-04  1.671101e-07
    668    653   2   0.50000     0.0600000   -0.1200000   2.494471e-04  1.671101e-07
    668    655   2   0.50000     0.0600000    0.1900000   2.494471e-04  1.671101e-07
    668    679   2   0.50000     0.0600000    0.0600000   6.128906e-05  1.496315e-08
    669    653   2   0.50000     0.0600000   -0.1200000   2.494471e-04  1.671101e-07
    669    655   2   0.50000     0.0600000    0.1900000   2.494471e-04  1.671101e-07
    669    679   2   0.50000     0.0600000    0.0600000   6.128906e-05  1.496315e-08
    648    651   2   0.50000    -0.1200000    0.1900000   1.015252e-03  1.866303e-06
    648    652   2   0.50000    -0.1200000   -0.1200000   1.015252e-03  1.866303e-06
    648    672   2   0.50000    -0.1200000    0.0600000   2.494471e-04  1.671101e-07
    670    651   2   0.50000     0.0600000    0.1900000   2.494471e-04  1.671101e-07
    670    652   2   0.50000     0.0600000   -0.1200000   2.494471e-04  1.671101e-07
    670    672   2   0.50000     0.0600000    0.0600000   6.128906e-05  1.496315e-08
    671    651   2   0.50000     0.0600000    0.1900000   2.494471e-04  1.671101e-07
    671    652   2   0.50000     0.0600000   -0.1200000   2.494471e-04  1.671101e-07
    671    672   2   0.50000     0.0600000    0.0600000   6.128906e-05  1.496315e-08
    649    627   2   0.50000    -0.1200000   -0.3300000   1.026091e-03  1.187829e-06
    649    673   2   0.50000    -0.1200000    0.0300000   1.599888e-04  9.721644e-08
    649    674   2   0.50000    -0.1200000    0.0300000   1.599888e-04  9.721644e-08
    652    627   2   0.50000    -0.1200000   -0.3300000   1.026091e-03  1.187829e-06
    652    673   2   0.50000    -0.1200000    0.0300000   1.599888e-04  9.721644e-08
    652    674   2   0.50000    -0.1200000    0.0300000   1.599888e-04  9.721644e-08
    672    627   2   0.50000     0.0600000   -0.3300000   2.521103e-04  1.063590e-07
    672    673   2   0.50000     0.0600000    0.0300000   3.930919e-05  8.704828e-09
    672    674   2   0.50000     0.0600000    0.0300000   3.930919e-05  8.704828e-09
    649    675   2   0.50000    -0.1200000    0.0600000   2.494471e-04  1.671101e-07
    649    676   2   0.50000    -0.1200000    0.0600000   2.494471e-04  1.671101e-07
    651    653   2   0.50000     0.1900000   -0.1200000   1.015252e-03  1.866303e-06
    651    675   2   0.50000     0.1900000    0.0600000   2.494471e-04  1.671101e-07
    651    676   2   0.50000     0.1900000    0.0600000   2.494471e-04  1.671101e-07
    672    653   2   0.50000     0.0600000   -0.1200000   2.494471e-04  1.671101e-07
    672    675   2   0.50000     0.0600000    0.0600000   6.128906e-05  1.496315e-08
    672    676   2   0.50000     0.0600000    0.0600000   6.128906e-05  1.496315e-08
    650    677   2   0.50000    -0.0600000    0.0600000   2.494471e-04  1.671101e-07
    650    678   2   0.50000    -0.0600000    0.0600000   2.494471e-04  1.671101e-07
    675    654   2   0.50000     0.0600000   -0.0600000   2.494471e-04  1.671101e-07
    675    677   2   0.50000     0.0600000    0.0600000   6.128906e-05  1.496315e-08
    675    678   2   0.50000     0.0600000    0.0600000   6.128906e-05  1.496315e-08
    676    654   2   0.50000     0.0600000   -0.0600000   2.494471e-04  1.671101e-07
    676    677   2   0.50000     0.0600000    0.0600000   6.128906e-05  1.496315e-08
    676    678   2   0.50000     0.0600000    0.0600000   6.128906e-05  1.496315e-08
    652    655   2   0.50000    -0.1200000    0.1900000   1.015252e-03  1.866303e-06
    652    679   2   0.50000    -0.1200000    0.0600000   2.494471e-04  1.671101e-07
    677    648   2   0.50000     0.0600000   -0.1200000   2.494471e-04  1.671101e-07
    677    655   2   0.50000     0.0600000    0.1900000   2.494471e-04  1.671101e-07
    677    679   2   0.50000     0.0600000    0.0600000   6.128906e-05  1.496315e-08
    678    648   2   0.50000     0.0600000   -0.1200000   2.494471e-04  1.671101e-07
    678    655   2   0.50000     0.0600000    0.1900000   2.494471e-04  1.671101e-07
    678    679   2   0.50000     0.0600000    0.0600000   6.128906e-05  1.496315e-08
    648    656   2   0.50000    -0.1200000   -0.3300000   1.026091e-03  1.187829e-06
    648    680   2   0.50000    -0.1200000    0.0300000   1.599888e-04  9.721644e-08
    648    681   2   0.50000    -0.1200000    0.0300000   1.599888e-04  9.721644e-08
    653    656   2   0.50000    -0.1200000   -0.3300000   1.026091e-03  1.187829e-06
    653    680   2   0.50000    -0.1200000    0.0300000   1.599888e-04  9.721644e-08
    653    681   2   0.50000    -0.1200000    0.0300000   1.599888e-04  9.721644e-08
    679    656   2   0.50000     0.0600000   -0.3300000   2.521103e-04  1.063590e-07
    679    680   2   0.50000     0.0600000    0.0300000   3.930919e-05  8.704828e-09
    679    681   2   0.50000     0.0600000    0.0300000   3.930919e-05  8.704828e-09
    654    657   2   0.50000    -0.0600000    0.6250000   1.575021e-03  3.561100e-06
    680    657   2   0.50000     0.0300000    0.6250000   2.482000e-04  1.854991e-07
    681    657   2   0.50000     0.0300000    0.6250000   2.482000e-04  1.854991e-07
    655    658   2   0.50000     0.1900000   -0.4300000   1.095425e-03  1.218041e-06
    655    659   2   0.50000     0.1900000   -0.1150000   1.091018e-03  2.092768e-06
    656    660   2   0.50000    -0.3300000   -0.1150000   1.102666e-03  1.331965e-06
    656    667   2   0.50000    -0.3300000   -0.1150000   1.102666e-03  1.331965e-06
    658    660   2   0.50000    -0.4300000   -0.1150000   1.177174e-03  1.365843e-06
    658    667   2   0.50000    -0.4300000   -0.1150000   1.177174e-03  1.365843e-06
    657    661   2   0.50000     0.6250000   -0.1150000   1.692561e-03  3.993218e-06
    657    682   2   0.50000     0.6250000    0.1150000   3.510079e-04  2.623353e-07
    667    661   2   0.50000    -0.1150000   -0.1150000   1.172438e-03  2.346713e-06
    667    682   2   0.50000    -0.1150000    0.1150000   2.431434e-04  1.541678e-07
    657    666   2   0.50000     0.6250000   -0.1150000   1.692561e-03  3.993218e-06
    657    685   2   0.50000     0.6250000    0.1150000   3.510079e-04  2.623353e-07
    660    666   2   0.50000    -0.1150000   -0.1150000   1.172438e-03  2.346713e-06
    660    685   2   0.50000    -0.1150000    0.1150000   2.431434e-04  1.541678e-07
    659    662   2   0.50000    -0.1150000   -0.1150000   1.172438e-03  2.346713e-06
    659    683   2   0.50000    -0.1150000    0.1150000   2.431434e-04  1.541678e-07
    682    662   2   0.50000     0.1150000   -0.1150000   2.431434e-04  1.541678e-07
    682    683   2   0.50000     0.1150000    0.1150000   5.042375e-05  1.012808e-08
    660    663   2   0.50000    -0.1150000    0.6250000   1.692561e-03  3.993218e-06
    683    663   2   0.50000     0.1150000    0.6250000   3.510079e-04  2.623353e-07
    683    666   2   0.50000     0.1150000   -0.1150000   2.431434e-04  1.541678e-07
    661    664   2   0.50000    -0.1150000   -0.4300000   1.177174e-03  1.365843e-06
    661    665   2   0.50000    -0.1150000   -0.3300000   1.102666e-03  1.331965e-06
    666    664   2   0.50000    -0.1150000   -0.4300000   1.177174e-03  1.365843e-06
    666    665   2   0.50000    -0.1150000   -0.3300000   1.102666e-03  1.331965e-06
    661    684   2   0.50000    -0.1150000    0.1150000   2.431434e-04  1.541678e-07
    663    667   2   0.50000     0.6250000   -0.1150000   1.692561e-03  3.993218e-06
    663    684   2   0.50000     0.6250000    0.1150000   3.510079e-04  2.623353e-07
    662    689   2   0.50000    -0.1150000    0.1900000   1.091018e-03  2.092768e-06
    664    689   2   0.50000    -0.4300000    0.1900000   1.095425e-03  1.218041e-06
    663    688   2   0.50000     0.6250000   -0.0600000   1.575021e-03  3.561100e-06
    663    711   2   0.50000     0.6250000    0.0300000   2.482000e-04  1.854991e-07
    663    712   2   0.50000     0.6250000    0.0300000   2.482000e-04  1.854991e-07
    662    685   2   0.50000    -0.1150000    0.1150000   2.431434e-04  1.541678e-07
    684    659   2   0.50000     0.1150000   -0.1150000   2.431434e-04  1.541678e-07
    684    685   2   0.50000     0.1150000    0.1150000   5.042375e-05  1.012808e-08
    692    688   2   0.50000    -0.0600000   -0.0600000   1.015252e-03  1.866303e-06
    692    708   2   0.50000    -0.0600000    0.0600000   2.494471e-04  1.671101e-07
    692    709   2   0.50000    -0.0600000    0.0600000   2.494471e-04  1.671101e-07
    706    688   2   0.50000     0.0600000   -0.0600000   2.494471e-04  1.671101e-07
    706    708   2   0.50000     0.0600000    0.0600000   6.128906e-05  1.496315e-08
    706    709   2   0.50000     0.0600000    0.0600000   6.128906e-05  1.496315e-08
    707    688   2   0.50000     0.0600000   -0.0600000   2.494471e-04  1.671101e-07
    707    708   2   0.50000     0.0600000    0.0600000   6.128906e-05  1.496315e-08
    707    709   2   0.50000     0.0600000    0.0600000   6.128906e-05  1.496315e-08
    687    691   2   0.50000    -0.1200000   -0.1200000   1.015252e-03  1.866303e-06
    687    693   2   0.50000    -0.1200000    0.1900000   1.015252e-03  1.866303e-06
    687    717   2   0.50000    -0.1200000    0.0600000   2.494471e-04  1.671101e-07
    706    691   2   0.50000     0.0600000   -0.1200000   2.494471e-04  1.671101e-07
    706    693   2   0.50000     0.0600000    0.1900000   2.494471e-04  1.671101e-07
    706    717   2   0.50000     0.0600000    0.0600000   6.128906e-05  1.496315e-08
    707    691   2   0.50000     0.0600000   -0.1200000   2.494471e-04  1.671101e-07
    707    693   2   0.50000     0.0600000    0.1900000   2.494471e-04  1.671101e-07
    707    717   2   0.50000     0.0600000    0.0600000   6.128906e-05  1.496315e-08
    686    689   2   0.50000    -0.1200000    0.1900000   1.015252e-03  1.866303e-06
    686    690   2   0.50000    -0.1200000   -0.1200000   1.015252e-03  1.866303e-06
    686    710   2   0.50000    -0.1200000    0.0600000   2.494471e-04  1.671101e-07
    708    689   2   0.50000     0.0600000    0.1900000   2.494471e-04  1.671101e-07
    708    690   2   0.50000     0.0600000   -0.1200000   2.494471e-04  1.671101e-07
    708    710   2   0.50000     0.0600000    0.0600000   6.128906e-05  1.496315e-08
    709    689   2   0.50000     0.0600000    0.1900000   2.494471e-04  1.671101e-07
    709    690   2   0.50000     0.0600000   -0.1200000   2.494471e-04  1.671101e-07
    709    710   2   0.50000     0.0600000    0.0600000   6.128906e-05  1.496315e-08
    687    665   2   0.50000    -0.1200000   -0.3300000   1.026091e-03  1.187829e-06
    687    711   2   0.50000    -0.1200000    0.0300000   1.599888e-04  9.721644e-08
    687    712   2   0.50000    -0.1200000    0.0300000   1.599888e-04  9.721644e-08
    690    665   2   0.50000    -0.1200000   -0.3300000   1.026091e-03  1.187829e-06
    690    711   2   0.50000    -0.1200000    0.0300000   1.599888e-04  9.721644e-08
    690    712   2   0.50000    -0.1200000    0.0300000   1.599888e-04  9.721644e-08
    710    665   2   0.50000     0.0600000   -0.3300000   2.521103e-04  1.063590e-07
    710    711   2   0.50000     0.0600000    0.0300000   3.930919e-05  8.704828e-09
    710    712   2   0.50000     0.0600000    0.0300000   3.930919e-05  8.704828e-09
    687    713   2   0.50000    -0.1200000    0.0600000   2.494471e-04  1.671101e-07
    687    714   2   0.50000    -0.1200000    0.0600000   2.494471e-04  1.671101e-07
    689    691   2   0.50000     0.1900000   -0.1200000   1.015252e-03  1.866303e-06
    689    713   2   0.50000     0.1900000    0.0600000   2.494471e-04  1.671101e-07
    689    714   2   0.50000     0.1900000    0.0600000   2.494471e-04  1.671101e-07
    710    691   2   0.50000     0.0600000   -0.1200000   2.494471e-04  1.671101e-07
    710    713   2   0.50000     0.0600000    0.0600000   6.128906e-05  1.496315e-08
    710    714   2   0.50000     0.0600000    0.0600000   6.128906e-05  1.496315e-08
    688    715   2   0.50000    -0.0600000    0.0600000   2.494471e-04  1.671101e-07
    688    716   2   0.50000    -0.0600000    0.0600000   2.494471e-04  1.671101e-07
    713    692   2   0.50000     0.0600000   -0.0600000   2.494471e-04  1.671101e-07
    713    715   2   0.50000     0.0600000    0.0600000   6.128906e-05  1.496315e-08
    713    716   2   0.50000     0.0600000    0.0600000   6.128906e-05  1.496315e-08
    714    692   2   0.50000     0.0600000   -0.0600000   2.494471e-04  1.671101e-07
    714    715   2   0.50000     0.0600000    0.0600000   6.128906e-05  1.496315e-08
    714    716   2   0.50000     0.0600000    0.0600000   6.128906e-05  1.496315e-08
    690    693   2   0.50000    -0.1200000    0.1900000   1.015252e-03  1.866303e-06
    690    717   2   0.50000    -0.1200000    0.0600000   2.494471e-04  1.671101e-07
    715    686   2   0.50000     0.0600000   -0.1200000   2.494471e-04  1.671101e-07
    715    693   2   0.50000     0.0600000    0.1900000   2.494471e-04  1.671101e-07
    715    717   2   0.50000     0.0600000    0.0600000   6.128906e-05  1.496315e-08
    716    686   2   0.50000     0.0600000   -0.1200000   2.494471e-04  1.671101e-07
    716    693   2   0.50000     0.0600000    0.1900000   2.494471e-04  1.671101e-07
    716    717   2   0.50000     0.0600000    0.0600000   6.128906e-05  1.496315e-08
    686    694   2   0.50000    -0.1200000   -0.3300000   1.026091e-03  1.187829e-06
    686    718   2   0.50000    -0.1200000    0.0300000   1.599888e-04  9.721644e-08
    686    719   2   0.50000    -0.1200000    0.0300000   1.599888e-04  9.721644e-08
    691    694   2   0.50000    -0.1200000   -0.3300000   1.026091e-03  1.187829e-06
    691    718   2   0.50000    -0.1200000    0.0300000   1.599888e-04  9.721644e-08
    691    719   2   0.50000    -0.1200000    0.0300000   1.599888e-04  9.721644e-08
    717    694   2   0.50000     0.0600000   -0.3300000   2.521103e-04  1.063590e-07
    717    718   2   0.50000     0.0600000    0.0300000   3.930919e-05  8.704828e-09
    717    719   2   0.50000     0.0600000    0.0300000   3.930919e-05  8.704828e-09
    692    695   2   0.50000    -0.0600000    0.6250000   1.575021e-03  3.561100e-06
    718    695   2   0.50000     0.0300000    0.6250000   2.482000e-04  1.854991e-07
    719    695   2   0.50000     0.0300000    0.6250000   2.482000e-04  1.854991e-07
    693    696   2   0.50000     0.1900000   -0.4300000   1.095425e-03  1.218041e-06
    693    697   2   0.50000     0.1900000   -0.1150000   1.091018e-03  2.092768e-06
    694    698   2   0.50000    -0.3300000   -0.1150000   1.102666e-03  1.331965e-06
    694    705   2   0.50000    -0.3300000   -0.1150000   1.102666e-03  1.331965e-06
    696    698   2   0.50000    -0.4300000   -0.1150000   1.177174e-03  1.365843e-06
    696    705   2   0.50000    -0.4300000   -0.1150000   1.177174e-03  1.365843e-06
    695    699   2   0.50000     0.6250000   -0.1150000   1.692561e-03  3.993218e-06
    695    720   2   0.50000     0.6250000    0.1150000   3.510079e-04  2.623353e-07
    705    699   2   0.50000    -0.1150000   -0.1150000   1.172438e-03  2.346713e-06
    705    720   2   0.50000    -0.1150000    0.1150000   2.431434e-04  1.541678e-07
    695    704   2   0.50000     0.6250000   -0.1150000   1.692561e-03  3.993218e-06
    695    723   2   0.50000     0.6250000    0.1150000   3.510079e-04  2.623353e-07
    698    704   2   0.50000    -0.1150000   -0.1150000   1.172438e-03  2.346713e-06
    698    723   2   0.50000    -0.1150000    0.1150000   2.431434e-04  1.541678e-07
    697    700   2   0.50000    -0.1150000   -0.1150000   1.172438e-03  2.346713e-06
    697    721   2   0.50000    -0.1150000    0.1150000   2.431434e-04  1.541678e-07
    720    700   2   0.50000     0.1150000   -0.1150000   2.431434e-04  1.541678e-07
    720    721   2   0.50000     0.1150000    0.1150000   5.042375e-05  1.012808e-08
    698    701   2   0.50000    -0.1150000    0.6250000   1.692561e-03  3.993218e-06
    721    701   2   0.50000     0.1150000    0.6250000   3.510079e-04  2.623353e-07
    721    704   2   0.50000     0.1150000   -0.1150000   2.431434e-04  1.541678e-07
    699    702   2   0.50000    -0.1150000   -0.4300000   1.177174e-03  1.365843e-06
    699    703   2   0.50000    -0.1150000   -0.3300000   1.102666e-03  1.331965e-06
    704    702   2   0.50000    -0.1150000   -0.4300000   1.177174e-03  1.365843e-06
    704    703   2   0.50000    -0.1150000   -0.3300000   1.102666e-03  1.331965e-06
    699    722   2   0.50000    -0.1150000    0.1150000   2.431434e-04  1.541678e-07
    701    705   2   0.50000     0.6250000   -0.1150000   1.692561e-03  3.993218e-06
    701    722   2   0.50000     0.6250000    0.1150000   3.510079e-04  2.623353e-07
    700    727   2   0.50000    -0.1150000    0.1900000   1.091018e-03  2.092768e-06
    702    727   2   0.50000    -0.4300000    0.1900000   1.095425e-03  1.218041e-06
    701    726   2   0.50000     0.6250000   -0.0600000   1.575021e-03  3.561100e-06
    701    749   2   0.50000     0.6250000    0.0300000   2.482000e-04  1.854991e-07
    701    750   2   0.50000     0.6250000    0.0300000   2.482000e-04  1.854991e-07
    700    723   2   0.50000    -0.1150000    0.1150000   2.431434e-04  1.541678e-07
    722    697   2   0.50000     0.1150000   -0.1150000   2.431434e-04  1.541678e-07
    722    723   2   0.50000     0.1150000    0.1150000   5.042375e-05  1.012808e-08
    730    726   2   0.50000    -0.0600000   -0.0600000   1.015252e-03  1.866303e-06
    730    746   2   0.50000    -0.0600000    0.0600000   2.494471e-04  1.671101e-07
    730    747   2   0.50000    -0.0600000    0.0600000   2.494471e-04  1.671101e-07
    744    726   2   0.50000     0.0600000   -0.0600000   2.494471e-04  1.671101e-07
    744    746   2   0.50000     0.0600000    0.0600000   6.128906e-05  1.496315e-08
    744    747   2   0.50000     0.0600000    0.0600000   6.128906e-05  1.496315e-08
    745    726   2   0.50000     0.0600000   -0.0600000   2.494471e-04  1.671101e-07
    745    746   2   0.50000     0.0600000    0.0600000   6.128906e-05  1.496315e-08
    745    747   2   0.50000     0.0600000    0.0600000   6.128906e-05  1.496315e-08
    725    729   2   0.50000    -0.1200000   -0.1200000   1.015252e-03  1.866303e-06
    725    731   2   0.50000    -0.1200000    0.1900000   1.015252e-03  1.866303e-06
    725    755   2   0.50000    -0.1200000    0.0600000   2.494471e-04  1.671101e-07
    744    729   2   0.50000     0.0600000   -0.1200000   2.494471e-04  1.671101e-07
    744    731   2   0.50000     0.0600000    0.1900000   2.494471e-04  1.671101e-07
    744    755   2   0.50000     0.0600000    0.0600000   6.128906e-05  1.496315e-08
    745    729   2   0.50000     0.0600000   -0.1200000   2.494471e-04  1.671101e-07
    745    731   2   0.50000     0.0600000    0.1900000   2.494471e-04  1.671101e-07
    745    755   2   0.50000     0.0600000    0.0600000   6.128906e-05  1.496315e-08
    724    727   2   0.50000    -0.1200000    0.1900000   1.015252e-03  1.866303e-06
    724    728   2   0.50000    -0.1200000   -0.1200000   1.015252e-03  1.866303e-06
    724    748   2   0.50000    -0.1200000    0.0600000   2.494471e-04  1.671101e-07
    746    727   2   0.50000     0.0600000    0.1900000   2.494471e-04  1.671101e-07
    746    728   2   0.50000     0.0600000   -0.1200000   2.494471e-04  1.671101e-07
    746    748   2   0.50000     0.0600000    0.0600000   6.128906e-05  1.496315e-08
    747    727   2   0.50000     0.0600000    0.1900000   2.494471e-04  1.671101e-07
    747    728   2   0.50000     0.0600000   -0.1200000   2.494471e-04  1.671101e-07
    747    748   2   0.50000     0.0600000    0.0600000   6.128906e-05  1.496315e-08
    725    703   2   0.50000    -0.1200000   -0.3300000   1.026091e-03  1.187829e-06
    725    749   2   0.50000    -0.1200000    0.0300000   1.599888e-04  9.721644e-08
    725    750   2   0.50000    -0.1200000    0.0300000   1.599888e-04  9.721644e-08
    728    703   2   0.50000    -0.1200000   -0.3300000   1.026091e-03  1.187829e-06
    728    749   2   0.50000    -0.1200000    0.0300000   1.599888e-04  9.721644e-08
    728    750   2   0.50000    -0.1200000    0.0300000   1.599888e-04  9.721644e-08
    748    703   2   0.50000     0.0600000   -0.3300000   2.521103e-04  1.063590e-07
    748    749   2   0.50000     0.0600000    0.0300000   3.930919e-05  8.704828e-09
    748    750   2   0.50000     0.0600000    0.0300000   3.930919e-05  8.704828e-09
    725    751   2   0.50000    -0.1200000    0.0600000   2.494471e-04  1.671101e-07
    725    752   2   0.50000    -0.1200000    0.0600000   2.494471e-04  1.671101e-07
    727    729   2   0.50000     0.1900000   -0.1200000   1.015252e-03  1.866303e-06
    727    751   2   0.50000     0.1900000    0.0600000   2.494471e-04  1.671101e-07
    727    752   2   0.50000     0.1900000    0.0600000   2.494471e-04  1.671101e-07
    748    729   2   0.50000     0.0600000   -0.1200000   2.494471e-04  1.671101e-07
    748    751   2   0.50000     0.0600000    0.0600000   6.128906e-05  1.496315e-08
    748    752   2   0.50000     0.0600000    0.0600000   6.128906e-05  1.496315e-08
    726    753   2   0.50000    -0.0600000    0.0600000   2.494471e-04  1.671101e-07
    726    754   2   0.50000    -0.0600000    0.0600000   2.494471e-04  1.671101e-07
    751    730   2   0.50000     0.0600000   -0.0600000   2.494471e-04  1.671101e-07
    751    753   2   0.50000     0.0600000    0.0600000   6.128906e-05  1.496315e-08
    751    754   2   0.50000     0.0600000    0.0600000   6.128906e-05  1.496315e-08
    752    730   2   0.50000     0.0600000   -0.0600000   2.494471e-04  1.671101e-07
    752    753   2   0.50000     0.0600000    0.0600000   6.128906e-05  1.496315e-08
    752    754   2   0.50000     0.0600000    0.0600000   6.128906e-05  1.496315e-08
    728    731   2   0.50000    -0.1200000    0.1900000   1.015252e-03  1.866303e-06
    728    755   2   0.50000    -0.1200000    0.0600000   2.494471e-04  1.671101e-07
    753    724   2   0.50000     0.0600000   -0.1200000   2.494471e-04  1.671101e-07
    753    731   2   0.50000     0.0600000    0.1900000   2.494471e-04  1.671101e-07
    753    755   2   0.50000     0.0600000    0.0600000   6.128906e-05  1.496315e-08
    754    724   2   0.50000     0.0600000   -0.1200000   2.494471e-04  1.671101e-07
    754    731   2   0.50000     0.0600000    0.1900000   2.494471e-04  1.671101e-07
    754    755   2   0.50000     0.0600000    0.0600000   6.128906e-05  1.496315e-08
    724    732   2   0.50000    -0.1200000   -0.3300000   1.026091e-03  1.187829e-06
    724    756   2   0.50000    -0.1200000    0.0300000   1.599888e-04  9.721644e-08
    724    757   2   0.50000    -0.1200000    0.0300000   1.599888e-04  9.721644e-08
    729    732   2   0.50000    -0.1200000   -0.3300000   1.026091e-03  1.187829e-06
    729    756   2   0.50000    -0.1200000    0.0300000   1.599888e-04  9.721644e-08
    729    757   2   0.50000    -0.1200000    0.0300000   1.599888e-04  9.721644e-08
    755    732   2   0.50000     0.0600000   -0.3300000   2.521103e-04  1.063590e-07
    755    756   2   0.50000     0.0600000    0.0300000   3.930919e-05  8.704828e-09
    755    757   2   0.50000     0.0600000    0.0300000   3.930919e-05  8.704828e-09
    730    733   2   0.50000    -0.0600000    0.6250000   1.575021e-03  3.561100e-06
    756    733   2   0.50000     0.0300000    0.6250000   2.482000e-04  1.854991e-07
    757    733   2   0.50000     0.0300000    0.6250000   2.482000e-04  1.854991e-07
    731    734   2   0.50000     0.1900000   -0.4300000   1.095425e-03  1.218041e-06
    731    735   2   0.50000     0.1900000   -0.1150000   1.091018e-03  2.092768e-06
    732    736   2   0.50000    -0.3300000   -0.1150000   1.102666e-03  1.331965e-06
    732    743   2   0.50000    -0.3300000   -0.1150000   1.102666e-03  1.331965e-06
    734    736   2   0.50000    -0.4300000   -0.1150000   1.177174e-03  1.365843e-06
    734    743   2   0.50000    -0.4300000   -0.1150000   1.177174e-03  1.365843e-06
    733    737   2   0.50000     0.6250000   -0.1150000   1.692561e-03  3.993218e-06
    733    758   2   0.50000     0.6250000    0.1150000   3.510079e-04  2.623353e-07
    743    737   2   0.50000    -0.1150000   -0.1150000   1.172438e-03  2.346713e-06
    743    758   2   0.50000    -0.1150000    0.1150000   2.431434e-04  1.541678e-07
    733    742   2   0.50000     0.6250000   -0.1150000   1.692561e-03  3.993218e-06
    733    761   2   0.50000     0.6250000    0.1150000   3.510079e-04  2.623353e-07
    736    742   2   0.50000    -0.1150000   -0.1150000   1.172438e-03  2.346713e-06
    736    761   2   0.50000    -0.1150000    0.1150000   2.431434e-04  1.541678e-07
    735    738   2   0.50000    -0.1150000   -0.1150000   1.172438e-03  2.346713e-06
    735    759   2   0.50000    -0.1150000    0.1150000   2.431434e-04  1.541678e-07
    758    738   2   0.50000     0.1150000   -0.1150000   2.431434e-04  1.541678e-07
    758    759   2   0.50000     0.1150000    0.1150000   5.042375e-05  1.012808e-08
    736    739   2   0.50000    -0.1150000    0.6350000   1.692561e-03  3.993218e-06
    759    739   2   0.50000     0.1150000    0.6350000   3.510079e-04  2.623353e-07
    759    742   2   0.50000     0.1150000   -0.1150000   2.431434e-04  1.541678e-07
    737    740   2   0.50000    -0.1150000   -0.4400000   1.177174e-03  1.365843e-06
    737    741   2   0.50000    -0.1150000   -0.5300000   1.102666e-03  1.331965e-06
    742    740   2   0.50000    -0.1150000   -0.4400000   1.177174e-03  1.365843e-06
    742    741   2   0.50000    -0.1150000   -0.5300000   1.102666e-03  1.331965e-06
    737    760   2   0.50000    -0.1150000    0.1150000   2.431434e-04  1.541678e-07
    739    743   2   0.50000     0.6350000   -0.1150000   1.692561e-03  3.993218e-06
    739    760   2   0.50000     0.6350000    0.1150000   3.510079e-04  2.623353e-07
    738    762   2   0.50000    -0.1150000    0.4500000   2.144502e-06  1.199282e-11
    740    762   2   0.50000    -0.4400000    0.4500000   2.153164e-06  6.980110e-12
    738    761   2   0.50000    -0.1150000    0.1150000   2.431434e-04  1.541678e-07
    760    735   2   0.50000     0.1150000   -0.1150000   2.431434e-04  1.541678e-07
    760    761   2   0.50000     0.1150000    0.1150000   5.042375e-05  1.012808e-08

[ angles ]
; ai  aj  ak
      2      1      7   1    112.7000    488.2728
      2      1     21   1    110.7000    313.8000
      2      1     22   1    110.7000    313.8000
      7      1     21   1    110.7000    313.8000
      7      1     22   1    110.7000    313.8000
     21      1     22   1    107.8000    276.1440
      1      2      3   1    112.7000    488.2728
      1      2     23   1    110.7000    313.8000
      1      2     24   1    110.7000    313.8000
      3      2     23   1    110.7000    313.8000
      3      2     24   1    110.7000    313.8000
     23      2     24   1    107.8000    276.1440
      2      3      4   1    112.7000    488.2728
      2      3      5   1    112.7000    488.2728
      2      3     25   1    110.7000    313.8000
      4      3      5   1    112.7000    488.2728
      4      3     25   1    110.7000    313.8000
      5      3     25   1    110.7000    313.8000
      3      4     26   1    110.7000    313.8000
      3      4     27   1    110.7000    313.8000
      3      4     39   1    110.7000    313.8000
     26      4     27   1    107.8000    276.1440
     26      4     39   1    107.8000    276.1440
     27      4     39   1    107.8000    276.1440
      3      5      6   1    112.7000    488.2728
      3      5     28   1    110.7000    313.8000
      3      5     29   1    110.7000    313.8000
      6      5     28   1    110.7000    313.8000
      6      5     29   1    110.7000    313.8000
     28      5     29   1    107.8000    276.1440
      5      6      7   1    112.7000    488.2728
      5      6     30   1    110.7000    313.8000
      5      6     31   1    110.7000    313.8000
      7      6     30   1    110.7000    313.8000
      7      6     31   1    110.7000    313.8000
     30      6     31   1    107.8000    276.1440
      1      7      6   1    112.7000    488.2728
      1      7      8   1    112.7000    488.2728
      1      7     32   1    110.7000    313.8000
      6      7      8   1    112.7000    488.2728
      6      7     32   1    110.7000    313.8000
      8      7     32   1    110.7000    313.8000
      7      8      9   1    109.5000    418.4000
      7      8     33   1    110.7000    313.8000
      7      8     34   1    110.7000    313.8000
      9      8     33   1    109.5000    292.8800
      9      8     34   1    109.5000    292.8800
     33      8     34   1    107.8000    276.1440
      8      9     10   1    116.9000    694.5440
      9     10     11   1    123.4000    694.5440
      9     10     12   1    111.4000    677.8080
     11     10     12   1    123.7840    627.6000
     10     12     13   1    119.5260    502.0800
     10     12     20   1    119.5260    502.0800
     13     12     20   1    120.0000    527.1840
     12     13     14   1    120.0000    527.1840
     12     13     35   1    120.0000    292.8800
     14     13     35   1    120.0000    292.8800
     13     14     15   1    120.0000    527.1840
     13     14     36   1    120.0000    292.8800
     15     14     36   1    120.0000    292.8800
     14     15     16   1    119.5260    502.0800
     14     15     19   1    120.0000    527.1840
     16     15     19   1    119.5260    502.0800
     15     16     17   1    123.7840    627.6000
     15     16     18   1    111.4000    677.8080
     17     16     18   1    123.4000    694.5440
     16     18     43   1    116.9000    694.5440
     15     19     20   1    120.0000    527.1840
     15     19     37   1    120.0000    292.8800
     20     19     37   1    120.0000    292.8800
     12     20     19   1    120.0000    527.1840
     12     20     38   1    120.0000    292.8800
     19     20     38   1    120.0000    292.8800
     41     40     46   1    112.7000    488.2728
     41     40     60   1    110.7000    313.8000
     41     40     61   1    110.7000    313.8000
     46     40     60   1    110.7000    313.8000
     46     40     61   1    110.7000    313.8000
     60     40     61   1    107.8000    276.1440
     40     41     42   1    112.7000    488.2728
     40     41     62   1    110.7000    313.8000
     40     41     63   1    110.7000    313.8000
     42     41     62   1    110.7000    313.8000
     42     41     63   1    110.7000    313.8000
     62     41     63   1    107.8000    276.1440
     41     42     43   1    112.7000    488.2728
     41     42     44   1    112.7000    488.2728
     41     42     64   1    110.7000    313.8000
     43     42     44   1    112.7000    488.2728
     43     42     64   1    110.7000    313.8000
     44     42     64   1    110.7000    313.8000
     18     43     42   1    109.5000    418.4000
     18     43     65   1    109.5000    292.8800
     18     43     66   1    109.5000    292.8800
     42     43     65   1    110.7000    313.8000
     42     43     66   1    110.7000    313.8000
     65     43     66   1    107.8000    276.1440
     42     44     45   1    112.7000    488.2728
     42     44     67   1    110.7000    313.8000
     42     44     68   1    110.7000    313.8000
     45     44     67   1    110.7000    313.8000
     45     44     68   1    110.7000    313.8000
     67     44     68   1    107.8000    276.1440
     44     45     46   1    112.7000    488.2728
     44     45     69   1    110.7000    313.8000
     44     45     70   1    110.7000    313.8000
     46     45     69   1    110.7000    313.8000
     46     45     70   1    110.7000    313.8000
     69     45     70   1    107.8000    276.1440
     40     46     45   1    112.7000    488.2728
     40     46     47   1    112.7000    488.2728
     40     46     71   1    110.7000    313.8000
     45     46     47   1    112.7000    488.2728
     45     46     71   1    110.7000    313.8000
     47     46     71   1    110.7000    313.8000
     46     47     48   1    109.5000    418.4000
     46     47     72   1    110.7000    313.8000
     46     47     73   1    110.7000    313.8000
     48     47     72   1    109.5000    292.8800
     48     47     73   1    109.5000    292.8800
     72     47     73   1    107.8000    276.1440
     47     48     49   1    116.9000    694.5440
     48     49     50   1    123.4000    694.5440
     48     49     51   1    111.4000    677.8080
     50     49     51   1    123.7840    627.6000
     49     51     52   1    119.5260    502.0800
     49     51     59   1    119.5260    502.0800
     52     51     59   1    120.0000    527.1840
     51     52     53   1    120.0000    527.1840
     51     52     74   1    120.0000    292.8800
     53     52     74   1    120.0000    292.8800
     52     53     54   1    120.0000    527.1840
     52     53     75   1    120.0000    292.8800
     54     53     75   1    120.0000    292.8800
     53     54     55   1    119.5260    502.0800
     53     54     58   1    120.0000    527.1840
     55     54     58   1    119.5260    502.0800
     54     55     56   1    123.7840    627.6000
     54     55     57   1    111.4000    677.8080
     56     55     57   1    123.4000    694.5440
     55     57     81   1    116.9000    694.5440
     54     58     59   1    120.0000    527.1840
     54     58     76   1    120.0000    292.8800
     59     58     76   1    120.0000    292.8800
     51     59     58   1    120.0000    527.1840
     51     59     77   1    120.0000    292.8800
     58     59     77   1    120.0000    292.8800
     79     78     84   1    112.7000    488.2728
     79     78     98   1    110.7000    313.8000
     79     78     99   1    110.7000    313.8000
     84     78     98   1    110.7000    313.8000
     84     78     99   1    110.7000    313.8000
     98     78     99   1    107.8000    276.1440
     78     79     80   1    112.7000    488.2728
     78     79    100   1    110.7000    313.8000
     78     79    101   1    110.7000    313.8000
     80     79    100   1    110.7000    313.8000
     80     79    101   1    110.7000    313.8000
    100     79    101   1    107.8000    276.1440
     79     80     81   1    112.7000    488.2728
     79     80     82   1    112.7000    488.2728
     79     80    102   1    110.7000    313.8000
     81     80     82   1    112.7000    488.2728
     81     80    102   1    110.7000    313.8000
     82     80    102   1    110.7000    313.8000
     57     81     80   1    109.5000    418.4000
     57     81    103   1    109.5000    292.8800
     57     81    104   1    109.5000    292.8800
     80     81    103   1    110.7000    313.8000
     80     81    104   1    110.7000    313.8000
    103     81    104   1    107.8000    276.1440
     80     82     83   1    112.7000    488.2728
     80     82    105   1    110.7000    313.8000
     80     82    106   1    110.7000    313.8000
     83     82    105   1    110.7000    313.8000
     83     82    106   1    110.7000    313.8000
    105     82    106   1    107.8000    276.1440
     82     83     84   1    112.7000    488.2728
     82     83    107   1    110.7000    313.8000
     82     83    108   1    110.7000    313.8000
     84     83    107   1    110.7000    313.8000
     84     83    108   1    110.7000    313.8000
    107     83    108   1    107.8000    276.1440
     78     84     83   1    112.7000    488.2728
     78     84     85   1    112.7000    488.2728
     78     84    109   1    110.7000    313.8000
     83     84     85   1    112.7000    488.2728
     83     84    109   1    110.7000    313.8000
     85     84    109   1    110.7000    313.8000
     84     85     86   1    109.5000    418.4000
     84     85    110   1    110.7000    313.8000
     84     85    111   1    110.7000    313.8000
     86     85    110   1    109.5000    292.8800
     86     85    111   1    109.5000    292.8800
    110     85    111   1    107.8000    276.1440
     85     86     87   1    116.9000    694.5440
     86     87     88   1    123.4000    694.5440
     86     87     89   1    111.4000    677.8080
     88     87     89   1    123.7840    627.6000
     87     89     90   1    119.5260    502.0800
     87     89     97   1    119.5260    502.0800
     90     89     97   1    120.0000    527.1840
     89     90     91   1    120.0000    527.1840
     89     90    112   1    120.0000    292.8800
     91     90    112   1    120.0000    292.8800
     90     91     92   1    120.0000    527.1840
     90     91    113   1    120.0000    292.8800
     92     91    113   1    120.0000    292.8800
     91     92     93   1    119.5260    502.0800
     91     92     96   1    120.0000    527.1840
     93     92     96   1    119.5260    502.0800
     92     93     94   1    123.7840    627.6000
     92     93     95   1    111.4000    677.8080
     94     93     95   1    123.4000    694.5440
     93     95    119   1    116.9000    694.5440
     92     96     97   1    120.0000    527.1840
     92     96    114   1    120.0000    292.8800
     97     96    114   1    120.0000    292.8800
     89     97     96   1    120.0000    527.1840
     89     97    115   1    120.0000    292.8800
     96     97    115   1    120.0000    292.8800
    117    116    122   1    112.7000    488.2728
    117    116    136   1    110.7000    313.8000
    117    116    137   1    110.7000    313.8000
    122    116    136   1    110.7000    313.8000
    122    116    137   1    110.7000    313.8000
    136    116    137   1    107.8000    276.1440
    116    117    118   1    112.7000    488.2728
    116    117    138   1    110.7000    313.8000
    116    117    139   1    110.7000    313.8000
    118    117    138   1    110.7000    313.8000
    118    117    139   1    110.7000    313.8000
    138    117    139   1    107.8000    276.1440
    117    118    119   1    112.7000    488.2728
    117    118    120   1    112.7000    488.2728
    117    118    140   1    110.7000    313.8000
    119    118    120   1    112.7000    488.2728
    119    118    140   1    110.7000    313.8000
    120    118    140   1    110.7000    313.8000
     95    119    118   1    109.5000    418.4000
     95    119    141   1    109.5000    292.8800
     95    119    142   1    109.5000    292.8800
    118    119    141   1    110.7000    313.8000
    118    119    142   1    110.7000    313.8000
    141    119    142   1    107.8000    276.1440
    118    120    121   1    112.7000    488.2728
    118    120    143   1    110.7000    313.8000
    118    120    144   1    110.7000    313.8000
    121    120    143   1    110.7000    313.8000
    121    120    144   1    110.7000    313.8000
    143    120    144   1    107.8000    276.1440
    120    121    122   1    112.7000    488.2728
    120    121    145   1    110.7000    313.8000
    120    121    146   1    110.7000    313.8000
    122    121    145   1    110.7000    313.8000
    122    121    146   1    110.7000    313.8000
    145    121    146   1    107.8000    276.1440
    116    122    121   1    112.7000    488.2728
    116    122    123   1    112.7000    488.2728
    116    122    147   1    110.7000    313.8000
    121    122    123   1    112.7000    488.2728
    121    122    147   1    110.7000    313.8000
    123    122    147   1    110.7000    313.8000
    122    123    124   1    109.5000    418.4000
    122    123    148   1    110.7000    313.8000
    122    123    149   1    110.7000    313.8000
    124    123    148   1    109.5000    292.8800
    124    123    149   1    109.5000    292.8800
    148    123    149   1    107.8000    276.1440
    123    124    125   1    116.9000    694.5440
    124    125    126   1    123.4000    694.5440
    124    125    127   1    111.4000    677.8080
    126    125    127   1    123.7840    627.6000
    125    127    128   1    119.5260    502.0800
    125    127    135   1    119.5260    502.0800
    128    127    135   1    120.0000    527.1840
    127    128    129   1    120.0000    527.1840
    127    128    150   1    120.0000    292.8800
    129    128    150   1    120.0000    292.8800
    128    129    130   1    120.0000    527.1840
    128    129    151   1    120.0000    292.8800
    130    129    151   1    120.0000    292.8800
    129    130    131   1    119.5260    502.0800
    129    130    134   1    120.0000    527.1840
    131    130    134   1    119.5260    502.0800
    130    131    132   1    123.7840    627.6000
    130    131    133   1    111.4000    677.8080
    132    131    133   1    123.4000    694.5440
    131    133    157   1    116.9000    694.5440
    130    134    135   1    120.0000    527.1840
    130    134    152   1    120.0000    292.8800
    135    134    152   1    120.0000    292.8800
    127    135    134   1    120.0000    527.1840
    127    135    153   1    120.0000    292.8800
    134    135    153   1    120.0000    292.8800
    155    154    160   1    112.7000    488.2728
    155    154    174   1    110.7000    313.8000
    155    154    175   1    110.7000    313.8000
    160    154    174   1    110.7000    313.8000
    160    154    175   1    110.7000    313.8000
    174    154    175   1    107.8000    276.1440
    154    155    156   1    112.7000    488.2728
    154    155    176   1    110.7000    313.8000
    154    155    177   1    110.7000    313.8000
    156    155    176   1    110.7000    313.8000
    156    155    177   1    110.7000    313.8000
    176    155    177   1    107.8000    276.1440
    155    156    157   1    112.7000    488.2728
    155    156    158   1    112.7000    488.2728
    155    156    178   1    110.7000    313.8000
    157    156    158   1    112.7000    488.2728
    157    156    178   1    110.7000    313.8000
    158    156    178   1    110.7000    313.8000
    133    157    156   1    109.5000    418.4000
    133    157    179   1    109.5000    292.8800
    133    157    180   1    109.5000    292.8800
    156    157    179   1    110.7000    313.8000
    156    157    180   1    110.7000    313.8000
    179    157    180   1    107.8000    276.1440
    156    158    159   1    112.7000    488.2728
    156    158    181   1    110.7000    313.8000
    156    158    182   1    110.7000    313.8000
    159    158    181   1    110.7000    313.8000
    159    158    182   1    110.7000    313.8000
    181    158    182   1    107.8000    276.1440
    158    159    160   1    112.7000    488.2728
    158    159    183   1    110.7000    313.8000
    158    159    184   1    110.7000    313.8000
    160    159    183   1    110.7000    313.8000
    160    159    184   1    110.7000    313.8000
    183    159    184   1    107.8000    276.1440
    154    160    159   1    112.7000    488.2728
    154    160    161   1    112.7000    488.2728
    154    160    185   1    110.7000    313.8000
    159    160    161   1    112.7000    488.2728
    159    160    185   1    110.7000    313.8000
    161    160    185   1    110.7000    313.8000
    160    161    162   1    109.5000    418.4000
    160    161    186   1    110.7000    313.8000
    160    161    187   1    110.7000    313.8000
    162    161    186   1    109.5000    292.8800
    162    161    187   1    109.5000    292.8800
    186    161    187   1    107.8000    276.1440
    161    162    163   1    116.9000    694.5440
    162    163    164   1    123.4000    694.5440
    162    163    165   1    111.4000    677.8080
    164    163    165   1    123.7840    627.6000
    163    165    166   1    119.5260    502.0800
    163    165    173   1    119.5260    502.0800
    166    165    173   1    120.0000    527.1840
    165    166    167   1    120.0000    527.1840
    165    166    188   1    120.0000    292.8800
    167    166    188   1    120.0000    292.8800
    166    167    168   1    120.0000    527.1840
    166    167    189   1    120.0000    292.8800
    168    167    189   1    120.0000    292.8800
    167    168    169   1    119.5260    502.0800
    167    168    172   1    120.0000    527.1840
    169    168    172   1    119.5260    502.0800
    168    169    170   1    123.7840    627.6000
    168    169    171   1    111.4000    677.8080
    170    169    171   1    123.4000    694.5440
    169    171    195   1    116.9000    694.5440
    168    172    173   1    120.0000    527.1840
    168    172    190   1    120.0000    292.8800
    173    172    190   1    120.0000    292.8800
    165    173    172   1    120.0000    527.1840
    165    173    191   1    120.0000    292.8800
    172    173    191   1    120.0000    292.8800
    193    192    198   1    112.7000    488.2728
    193    192    212   1    110.7000    313.8000
    193    192    213   1    110.7000    313.8000
    198    192    212   1    110.7000    313.8000
    198    192    213   1    110.7000    313.8000
    212    192    213   1    107.8000    276.1440
    192    193    194   1    112.7000    488.2728
    192    193    214   1    110.7000    313.8000
    192    193    215   1    110.7000    313.8000
    194    193    214   1    110.7000    313.8000
    194    193    215   1    110.7000    313.8000
    214    193    215   1    107.8000    276.1440
    193    194    195   1    112.7000    488.2728
    193    194    196   1    112.7000    488.2728
    193    194    216   1    110.7000    313.8000
    195    194    196   1    112.7000    488.2728
    195    194    216   1    110.7000    313.8000
    196    194    216   1    110.7000    313.8000
    171    195    194   1    109.5000    418.4000
    171    195    217   1    109.5000    292.8800
    171    195    218   1    109.5000    292.8800
    194    195    217   1    110.7000    313.8000
    194    195    218   1    110.7000    313.8000
    217    195    218   1    107.8000    276.1440
    194    196    197   1    112.7000    488.2728
    194    196    219   1    110.7000    313.8000
    194    196    220   1    110.7000    313.8000
    197    196    219   1    110.7000    313.8000
    197    196    220   1    110.7000    313.8000
    219    196    220   1    107.8000    276.1440
    196    197    198   1    112.7000    488.2728
    196    197    221   1    110.7000    313.8000
    196    197    222   1    110.7000    313.8000
    198    197    221   1    110.7000    313.8000
    198    197    222   1    110.7000    313.8000
    221    197    222   1    107.8000    276.1440
    192    198    197   1    112.7000    488.2728
    192    198    199   1    112.7000    488.2728
    192    198    223   1    110.7000    313.8000
    197    198    199   1    112.7000    488.2728
    197    198    223   1    110.7000    313.8000
    199    198    223   1    110.7000    313.8000
    198    199    200   1    109.5000    418.4000
    198    199    224   1    110.7000    313.8000
    198    199    225   1    110.7000    313.8000
    200    199    224   1    109.5000    292.8800
    200    199    225   1    109.5000    292.8800
    224    199    225   1    107.8000    276.1440
    199    200    201   1    116.9000    694.5440
    200    201    202   1    123.4000    694.5440
    200    201    203   1    111.4000    677.8080
    202    201    203   1    123.7840    627.6000
    201    203    204   1    119.5260    502.0800
    201    203    211   1    119.5260    502.0800
    204    203    211   1    120.0000    527.1840
    203    204    205   1    120.0000    527.1840
    203    204    226   1    120.0000    292.8800
    205    204    226   1    120.0000    292.8800
    204    205    206   1    120.0000    527.1840
    204    205    227   1    120.0000    292.8800
    206    205    227   1    120.0000    292.8800
    205    206    207   1    119.5260    502.0800
    205    206    210   1    120.0000    527.1840
    207    206    210   1    119.5260    502.0800
    206    207    208   1    123.7840    627.6000
    206    207    209   1    111.4000    677.8080
    208    207    209   1    123.4000    694.5440
    207    209    233   1    116.9000    694.5440
    206    210    211   1    120.0000    527.1840
    206    210    228   1    120.0000    292.8800
    211    210    228   1    120.0000    292.8800
    203    211    210   1    120.0000    527.1840
    203    211    229   1    120.0000    292.8800
    210    211    229   1    120.0000    292.8800
    231    230    236   1    112.7000    488.2728
    231    230    250   1    110.7000    313.8000
    231    230    251   1    110.7000    313.8000
    236    230    250   1    110.7000    313.8000
    236    230    251   1    110.7000    313.8000
    250    230    251   1    107.8000    276.1440
    230    231    232   1    112.7000    488.2728
    230    231    252   1    110.7000    313.8000
    230    231    253   1    110.7000    313.8000
    232    231    252   1    110.7000    313.8000
    232    231    253   1    110.7000    313.8000
    252    231    253   1    107.8000    276.1440
    231    232    233   1    112.7000    488.2728
    231    232    234   1    112.7000    488.2728
    231    232    254   1    110.7000    313.8000
    233    232    234   1    112.7000    488.2728
    233    232    254   1    110.7000    313.8000
    234    232    254   1    110.7000    313.8000
    209    233    232   1    109.5000    418.4000
    209    233    255   1    109.5000    292.8800
    209    233    256   1    109.5000    292.8800
    232    233    255   1    110.7000    313.8000
    232    233    256   1    110.7000    313.8000
    255    233    256   1    107.8000    276.1440
    232    234    235   1    112.7000    488.2728
    232    234    257   1    110.7000    313.8000
    232    234    258   1    110.7000    313.8000
    235    234    257   1    110.7000    313.8000
    235    234    258   1    110.7000    313.8000
    257    234    258   1    107.8000    276.1440
    234    235    236   1    112.7000    488.2728
    234    235    259   1    110.7000    313.8000
    234    235    260   1    110.7000    313.8000
    236    235    259   1    110.7000    313.8000
    236    235    260   1    110.7000    313.8000
    259    235    260   1    107.8000    276.1440
    230    236    235   1    112.7000    488.2728
    230    236    237   1    112.7000    488.2728
    230    236    261   1    110.7000    313.8000
    235    236    237   1    112.7000    488.2728
    235    236    261   1    110.7000    313.8000
    237    236    261   1    110.7000    313.8000
    236    237    238   1    109.5000    418.4000
    236    237    262   1    110.7000    313.8000
    236    237    263   1    110.7000    313.8000
    238    237    262   1    109.5000    292.8800
    238    237    263   1    109.5000    292.8800
    262    237    263   1    107.8000    276.1440
    237    238    239   1    116.9000    694.5440
    238    239    240   1    123.4000    694.5440
    238    239    241   1    111.4000    677.8080
    240    239    241   1    123.7840    627.6000
    239    241    242   1    119.5260    502.0800
    239    241    249   1    119.5260    502.0800
    242    241    249   1    120.0000    527.1840
    241    242    243   1    120.0000    527.1840
    241    242    264   1    120.0000    292.8800
    243    242    264   1    120.0000    292.8800
    242    243    244   1    120.0000    527.1840
    242    243    265   1    120.0000    292.8800
    244    243    265   1    120.0000    292.8800
    243    244    245   1    119.5260    502.0800
    243    244    248   1    120.0000    527.1840
    245    244    248   1    119.5260    502.0800
    244    245    246   1    123.7840    627.6000
    244    245    247   1    111.4000    677.8080
    246    245    247   1    123.4000    694.5440
    245    247    271   1    116.9000    694.5440
    244    248    249   1    120.0000    527.1840
    244    248    266   1    120.0000    292.8800
    249    248    266   1    120.0000    292.8800
    241    249    248   1    120.0000    527.1840
    241    249    267   1    120.0000    292.8800
    248    249    267   1    120.0000    292.8800
    269    268    274   1    112.7000    488.2728
    269    268    288   1    110.7000    313.8000
    269    268    289   1    110.7000    313.8000
    274    268    288   1    110.7000    313.8000
    274    268    289   1    110.7000    313.8000
    288    268    289   1    107.8000    276.1440
    268    269    270   1    112.7000    488.2728
    268    269    290   1    110.7000    313.8000
    268    269    291   1    110.7000    313.8000
    270    269    290   1    110.7000    313.8000
    270    269    291   1    110.7000    313.8000
    290    269    291   1    107.8000    276.1440
    269    270    271   1    112.7000    488.2728
    269    270    272   1    112.7000    488.2728
    269    270    292   1    110.7000    313.8000
    271    270    272   1    112.7000    488.2728
    271    270    292   1    110.7000    313.8000
    272    270    292   1    110.7000    313.8000
    247    271    270   1    109.5000    418.4000
    247    271    293   1    109.5000    292.8800
    247    271    294   1    109.5000    292.8800
    270    271    293   1    110.7000    313.8000
    270    271    294   1    110.7000    313.8000
    293    271    294   1    107.8000    276.1440
    270    272    273   1    112.7000    488.2728
    270    272    295   1    110.7000    313.8000
    270    272    296   1    110.7000    313.8000
    273    272    295   1    110.7000    313.8000
    273    272    296   1    110.7000    313.8000
    295    272    296   1    107.8000    276.1440
    272    273    274   1    112.7000    488.2728
    272    273    297   1    110.7000    313.8000
    272    273    298   1    110.7000    313.8000
    274    273    297   1    110.7000    313.8000
    274    273    298   1    110.7000    313.8000
    297    273    298   1    107.8000    276.1440
    268    274    273   1    112.7000    488.2728
    268    274    275   1    112.7000    488.2728
    268    274    299   1    110.7000    313.8000
    273    274    275   1    112.7000    488.2728
    273    274    299   1    110.7000    313.8000
    275    274    299   1    110.7000    313.8000
    274    275    276   1    109.5000    418.4000
    274    275    300   1    110.7000    313.8000
    274    275    301   1    110.7000    313.8000
    276    275    300   1    109.5000    292.8800
    276    275    301   1    109.5000    292.8800
    300    275    301   1    107.8000    276.1440
    275    276    277   1    116.9000    694.5440
    276    277    278   1    123.4000    694.5440
    276    277    279   1    111.4000    677.8080
    278    277    279   1    123.7840    627.6000
    277    279    280   1    119.5260    502.0800
    277    279    287   1    119.5260    502.0800
    280    279    287   1    120.0000    527.1840
    279    280    281   1    120.0000    527.1840
    279    280    302   1    120.0000    292.8800
    281    280    302   1    120.0000    292.8800
    280    281    282   1    120.0000    527.1840
    280    281    303   1    120.0000    292.8800
    282    281    303   1    120.0000    292.8800
    281    282    283   1    119.5260    502.0800
    281    282    286   1    120.0000    527.1840
    283    282    286   1    119.5260    502.0800
    282    283    284   1    123.7840    627.6000
    282    283    285   1    111.4000    677.8080
    284    283    285   1    123.4000    694.5440
    283    285    309   1    116.9000    694.5440
    282    286    287   1    120.0000    527.1840
    282    286    304   1    120.0000    292.8800
    287    286    304   1    120.0000    292.8800
    279    287    286   1    120.0000    527.1840
    279    287    305   1    120.0000    292.8800
    286    287    305   1    120.0000    292.8800
    307    306    312   1    112.7000    488.2728
    307    306    326   1    110.7000    313.8000
    307    306    327   1    110.7000    313.8000
    312    306    326   1    110.7000    313.8000
    312    306    327   1    110.7000    313.8000
    326    306    327   1    107.8000    276.1440
    306    307    308   1    112.7000    488.2728
    306    307    328   1    110.7000    313.8000
    306    307    329   1    110.7000    313.8000
    308    307    328   1    110.7000    313.8000
    308    307    329   1    110.7000    313.8000
    328    307    329   1    107.8000    276.1440
    307    308    309   1    112.7000    488.2728
    307    308    310   1    112.7000    488.2728
    307    308    330   1    110.7000    313.8000
    309    308    310   1    112.7000    488.2728
    309    308    330   1    110.7000    313.8000
    310    308    330   1    110.7000    313.8000
    285    309    308   1    109.5000    418.4000
    285    309    331   1    109.5000    292.8800
    285    309    332   1    109.5000    292.8800
    308    309    331   1    110.7000    313.8000
    308    309    332   1    110.7000    313.8000
    331    309    332   1    107.8000    276.1440
    308    310    311   1    112.7000    488.2728
    308    310    333   1    110.7000    313.8000
    308    310    334   1    110.7000    313.8000
    311    310    333   1    110.7000    313.8000
    311    310    334   1    110.7000    313.8000
    333    310    334   1    107.8000    276.1440
    310    311    312   1    112.7000    488.2728
    310    311    335   1    110.7000    313.8000
    310    311    336   1    110.7000    313.8000
    312    311    335   1    110.7000    313.8000
    312    311    336   1    110.7000    313.8000
    335    311    336   1    107.8000    276.1440
    306    312    311   1    112.7000    488.2728
    306    312    313   1    112.7000    488.2728
    306    312    337   1    110.7000    313.8000
    311    312    313   1    112.7000    488.2728
    311    312    337   1    110.7000    313.8000
    313    312    337   1    110.7000    313.8000
    312    313    314   1    109.5000    418.4000
    312    313    338   1    110.7000    313.8000
    312    313    339   1    110.7000    313.8000
    314    313    338   1    109.5000    292.8800
    314    313    339   1    109.5000    292.8800
    338    313    339   1    107.8000    276.1440
    313    314    315   1    116.9000    694.5440
    314    315    316   1    123.4000    694.5440
    314    315    317   1    111.4000    677.8080
    316    315    317   1    123.7840    627.6000
    315    317    318   1    119.5260    502.0800
    315    317    325   1    119.5260    502.0800
    318    317    325   1    120.0000    527.1840
    317    318    319   1    120.0000    527.1840
    317    318    340   1    120.0000    292.8800
    319    318    340   1    120.0000    292.8800
    318    319    320   1    120.0000    527.1840
    318    319    341   1    120.0000    292.8800
    320    319    341   1    120.0000    292.8800
    319    320    321   1    119.5260    502.0800
    319    320    324   1    120.0000    527.1840
    321    320    324   1    119.5260    502.0800
    320    321    322   1    123.7840    627.6000
    320    321    323   1    111.4000    677.8080
    322    321    323   1    123.4000    694.5440
    321    323    347   1    116.9000    694.5440
    320    324    325   1    120.0000    527.1840
    320    324    342   1    120.0000    292.8800
    325    324    342   1    120.0000    292.8800
    317    325    324   1    120.0000    527.1840
    317    325    343   1    120.0000    292.8800
    324    325    343   1    120.0000    292.8800
    345    344    350   1    112.7000    488.2728
    345    344    364   1    110.7000    313.8000
    345    344    365   1    110.7000    313.8000
    350    344    364   1    110.7000    313.8000
    350    344    365   1    110.7000    313.8000
    364    344    365   1    107.8000    276.1440
    344    345    346   1    112.7000    488.2728
    344    345    366   1    110.7000    313.8000
    344    345    367   1    110.7000    313.8000
    346    345    366   1    110.7000    313.8000
    346    345    367   1    110.7000    313.8000
    366    345    367   1    107.8000    276.1440
    345    346    347   1    112.7000    488.2728
    345    346    348   1    112.7000    488.2728
    345    346    368   1    110.7000    313.8000
    347    346    348   1    112.7000    488.2728
    347    346    368   1    110.7000    313.8000
    348    346    368   1    110.7000    313.8000
    323    347    346   1    109.5000    418.4000
    323    347    369   1    109.5000    292.8800
    323    347    370   1    109.5000    292.8800
    346    347    369   1    110.7000    313.8000
    346    347    370   1    110.7000    313.8000
    369    347    370   1    107.8000    276.1440
    346    348    349   1    112.7000    488.2728
    346    348    371   1    110.7000    313.8000
    346    348    372   1    110.7000    313.8000
    349    348    371   1    110.7000    313.8000
    349    348    372   1    110.7000    313.8000
    371    348    372   1    107.8000    276.1440
    348    349    350   1    112.7000    488.2728
    348    349    373   1    110.7000    313.8000
    348    349    374   1    110.7000    313.8000
    350    349    373   1    110.7000    313.8000
    350    349    374   1    110.7000    313.8000
    373    349    374   1    107.8000    276.1440
    344    350    349   1    112.7000    488.2728
    344    350    351   1    112.7000    488.2728
    344    350    375   1    110.7000    313.8000
    349    350    351   1    112.7000    488.2728
    349    350    375   1    110.7000    313.8000
    351    350    375   1    110.7000    313.8000
    350    351    352   1    109.5000    418.4000
    350    351    376   1    110.7000    313.8000
    350    351    377   1    110.7000    313.8000
    352    351    376   1    109.5000    292.8800
    352    351    377   1    109.5000    292.8800
    376    351    377   1    107.8000    276.1440
    351    352    353   1    116.9000    694.5440
    352    353    354   1    123.4000    694.5440
    352    353    355   1    111.4000    677.8080
    354    353    355   1    123.7840    627.6000
    353    355    356   1    119.5260    502.0800
    353    355    363   1    119.5260    502.0800
    356    355    363   1    120.0000    527.1840
    355    356    357   1    120.0000    527.1840
    355    356    378   1    120.0000    292.8800
    357    356    378   1    120.0000    292.8800
    356    357    358   1    120.0000    527.1840
    356    357    379   1    120.0000    292.8800
    358    357    379   1    120.0000    292.8800
    357    358    359   1    119.5260    502.0800
    357    358    362   1    120.0000    527.1840
    359    358    362   1    119.5260    502.0800
    358    359    360   1    123.7840    627.6000
    358    359    361   1    111.4000    677.8080
    360    359    361   1    123.4000    694.5440
    359    361    385   1    116.9000    694.5440
    358    362    363   1    120.0000    527.1840
    358    362    380   1    120.0000    292.8800
    363    362    380   1    120.0000    292.8800
    355    363    362   1    120.0000    527.1840
    355    363    381   1    120.0000    292.8800
    362    363    381   1    120.0000    292.8800
    383    382    388   1    112.7000    488.2728
    383    382    402   1    110.7000    313.8000
    383    382    403   1    110.7000    313.8000
    388    382    402   1    110.7000    313.8000
    388    382    403   1    110.7000    313.8000
    402    382    403   1    107.8000    276.1440
    382    383    384   1    112.7000    488.2728
    382    383    404   1    110.7000    313.8000
    382    383    405   1    110.7000    313.8000
    384    383    404   1    110.7000    313.8000
    384    383    405   1    110.7000    313.8000
    404    383    405   1    107.8000    276.1440
    383    384    385   1    112.7000    488.2728
    383    384    386   1    112.7000    488.2728
    383    384    406   1    110.7000    313.8000
    385    384    386   1    112.7000    488.2728
    385    384    406   1    110.7000    313.8000
    386    384    406   1    110.7000    313.8000
    361    385    384   1    109.5000    418.4000
    361    385    407   1    109.5000    292.8800
    361    385    408   1    109.5000    292.8800
    384    385    407   1    110.7000    313.8000
    384    385    408   1    110.7000    313.8000
    407    385    408   1    107.8000    276.1440
    384    386    387   1    112.7000    488.2728
    384    386    409   1    110.7000    313.8000
    384    386    410   1    110.7000    313.8000
    387    386    409   1    110.7000    313.8000
    387    386    410   1    110.7000    313.8000
    409    386    410   1    107.8000    276.1440
    386    387    388   1    112.7000    488.2728
    386    387    411   1    110.7000    313.8000
    386    387    412   1    110.7000    313.8000
    388    387    411   1    110.7000    313.8000
    388    387    412   1    110.7000    313.8000
    411    387    412   1    107.8000    276.1440
    382    388    387   1    112.7000    488.2728
    382    388    389   1    112.7000    488.2728
    382    388    413   1    110.7000    313.8000
    387    388    389   1    112.7000    488.2728
    387    388    413   1    110.7000    313.8000
    389    388    413   1    110.7000    313.8000
    388    389    390   1    109.5000    418.4000
    388    389    414   1    110.7000    313.8000
    388    389    415   1    110.7000    313.8000
    390    389    414   1    109.5000    292.8800
    390    389    415   1    109.5000    292.8800
    414    389    415   1    107.8000    276.1440
    389    390    391   1    116.9000    694.5440
    390    391    392   1    123.4000    694.5440
    390    391    393   1    111.4000    677.8080
    392    391    393   1    123.7840    627.6000
    391    393    394   1    119.5260    502.0800
    391    393    401   1    119.5260    502.0800
    394    393    401   1    120.0000    527.1840
    393    394    395   1    120.0000    527.1840
    393    394    416   1    120.0000    292.8800
    395    394    416   1    120.0000    292.8800
    394    395    396   1    120.0000    527.1840
    394    395    417   1    120.0000    292.8800
    396    395    417   1    120.0000    292.8800
    395    396    397   1    119.5260    502.0800
    395    396    400   1    120.0000    527.1840
    397    396    400   1    119.5260    502.0800
    396    397    398   1    123.7840    627.6000
    396    397    399   1    111.4000    677.8080
    398    397    399   1    123.4000    694.5440
    397    399    423   1    116.9000    694.5440
    396    400    401   1    120.0000    527.1840
    396    400    418   1    120.0000    292.8800
    401    400    418   1    120.0000    292.8800
    393    401    400   1    120.0000    527.1840
    393    401    419   1    120.0000    292.8800
    400    401    419   1    120.0000    292.8800
    421    420    426   1    112.7000    488.2728
    421    420    440   1    110.7000    313.8000
    421    420    441   1    110.7000    313.8000
    426    420    440   1    110.7000    313.8000
    426    420    441   1    110.7000    313.8000
    440    420    441   1    107.8000    276.1440
    420    421    422   1    112.7000    488.2728
    420    421    442   1    110.7000    313.8000
    420    421    443   1    110.7000    313.8000
    422    421    442   1    110.7000    313.8000
    422    421    443   1    110.7000    313.8000
    442    421    443   1    107.8000    276.1440
    421    422    423   1    112.7000    488.2728
    421    422    424   1    112.7000    488.2728
    421    422    444   1    110.7000    313.8000
    423    422    424   1    112.7000    488.2728
    423    422    444   1    110.7000    313.8000
    424    422    444   1    110.7000    313.8000
    399    423    422   1    109.5000    418.4000
    399    423    445   1    109.5000    292.8800
    399    423    446   1    109.5000    292.8800
    422    423    445   1    110.7000    313.8000
    422    423    446   1    110.7000    313.8000
    445    423    446   1    107.8000    276.1440
    422    424    425   1    112.7000    488.2728
    422    424    447   1    110.7000    313.8000
    422    424    448   1    110.7000    313.8000
    425    424    447   1    110.7000    313.8000
    425    424    448   1    110.7000    313.8000
    447    424    448   1    107.8000    276.1440
    424    425    426   1    112.7000    488.2728
    424    425    449   1    110.7000    313.8000
    424    425    450   1    110.7000    313.8000
    426    425    449   1    110.7000    313.8000
    426    425    450   1    110.7000    313.8000
    449    425    450   1    107.8000    276.1440
    420    426    425   1    112.7000    488.2728
    420    426    427   1    112.7000    488.2728
    420    426    451   1    110.7000    313.8000
    425    426    427   1    112.7000    488.2728
    425    426    451   1    110.7000    313.8000
    427    426    451   1    110.7000    313.8000
    426    427    428   1    109.5000    418.4000
    426    427    452   1    110.7000    313.8000
    426    427    453   1    110.7000    313.8000
    428    427    452   1    109.5000    292.8800
    428    427    453   1    109.5000    292.8800
    452    427    453   1    107.8000    276.1440
    427    428    429   1    116.9000    694.5440
    428    429    430   1    123.4000    694.5440
    428    429    431   1    111.4000    677.8080
    430    429    431   1    123.7840    627.6000
    429    431    432   1    119.5260    502.0800
    429    431    439   1    119.5260    502.0800
    432    431    439   1    120.0000    527.1840
    431    432    433   1    120.0000    527.1840
    431    432    454   1    120.0000    292.8800
    433    432    454   1    120.0000    292.8800
    432    433    434   1    120.0000    527.1840
    432    433    455   1    120.0000    292.8800
    434    433    455   1    120.0000    292.8800
    433    434    435   1    119.5260    502.0800
    433    434    438   1    120.0000    527.1840
    435    434    438   1    119.5260    502.0800
    434    435    436   1    123.7840    627.6000
    434    435    437   1    111.4000    677.8080
    436    435    437   1    123.4000    694.5440
    435    437    461   1    116.9000    694.5440
    434    438    439   1    120.0000    527.1840
    434    438    456   1    120.0000    292.8800
    439    438    456   1    120.0000    292.8800
    431    439    438   1    120.0000    527.1840
    431    439    457   1    120.0000    292.8800
    438    439    457   1    120.0000    292.8800
    459    458    464   1    112.7000    488.2728
    459    458    478   1    110.7000    313.8000
    459    458    479   1    110.7000    313.8000
    464    458    478   1    110.7000    313.8000
    464    458    479   1    110.7000    313.8000
    478    458    479   1    107.8000    276.1440
    458    459    460   1    112.7000    488.2728
    458    459    480   1    110.7000    313.8000
    458    459    481   1    110.7000    313.8000
    460    459    480   1    110.7000    313.8000
    460    459    481   1    110.7000    313.8000
    480    459    481   1    107.8000    276.1440
    459    460    461   1    112.7000    488.2728
    459    460    462   1    112.7000    488.2728
    459    460    482   1    110.7000    313.8000
    461    460    462   1    112.7000    488.2728
    461    460    482   1    110.7000    313.8000
    462    460    482   1    110.7000    313.8000
    437    461    460   1    109.5000    418.4000
    437    461    483   1    109.5000    292.8800
    437    461    484   1    109.5000    292.8800
    460    461    483   1    110.7000    313.8000
    460    461    484   1    110.7000    313.8000
    483    461    484   1    107.8000    276.1440
    460    462    463   1    112.7000    488.2728
    460    462    485   1    110.7000    313.8000
    460    462    486   1    110.7000    313.8000
    463    462    485   1    110.7000    313.8000
    463    462    486   1    110.7000    313.8000
    485    462    486   1    107.8000    276.1440
    462    463    464   1    112.7000    488.2728
    462    463    487   1    110.7000    313.8000
    462    463    488   1    110.7000    313.8000
    464    463    487   1    110.7000    313.8000
    464    463    488   1    110.7000    313.8000
    487    463    488   1    107.8000    276.1440
    458    464    463   1    112.7000    488.2728
    458    464    465   1    112.7000    488.2728
    458    464    489   1    110.7000    313.8000
    463    464    465   1    112.7000    488.2728
    463    464    489   1    110.7000    313.8000
    465    464    489   1    110.7000    313.8000
    464    465    466   1    109.5000    418.4000
    464    465    490   1    110.7000    313.8000
    464    465    491   1    110.7000    313.8000
    466    465    490   1    109.5000    292.8800
    466    465    491   1    109.5000    292.8800
    490    465    491   1    107.8000    276.1440
    465    466    467   1    116.9000    694.5440
    466    467    468   1    123.4000    694.5440
    466    467    469   1    111.4000    677.8080
    468    467    469   1    123.7840    627.6000
    467    469    470   1    119.5260    502.0800
    467    469    477   1    119.5260    502.0800
    470    469    477   1    120.0000    527.1840
    469    470    471   1    120.0000    527.1840
    469    470    492   1    120.0000    292.8800
    471    470    492   1    120.0000    292.8800
    470    471    472   1    120.0000    527.1840
    470    471    493   1    120.0000    292.8800
    472    471    493   1    120.0000    292.8800
    471    472    473   1    119.5260    502.0800
    471    472    476   1    120.0000    527.1840
    473    472    476   1    119.5260    502.0800
    472    473    474   1    123.7840    627.6000
    472    473    475   1    111.4000    677.8080
    474    473    475   1    123.4000    694.5440
    473    475    499   1    116.9000    694.5440
    472    476    477   1    120.0000    527.1840
    472    476    494   1    120.0000    292.8800
    477    476    494   1    120.0000    292.8800
    469    477    476   1    120.0000    527.1840
    469    477    495   1    120.0000    292.8800
    476    477    495   1    120.0000    292.8800
    497    496    502   1    112.7000    488.2728
    497    496    516   1    110.7000    313.8000
    497    496    517   1    110.7000    313.8000
    502    496    516   1    110.7000    313.8000
    502    496    517   1    110.7000    313.8000
    516    496    517   1    107.8000    276.1440
    496    497    498   1    112.7000    488.2728
    496    497    518   1    110.7000    313.8000
    496    497    519   1    110.7000    313.8000
    498    497    518   1    110.7000    313.8000
    498    497    519   1    110.7000    313.8000
    518    497    519   1    107.8000    276.1440
    497    498    499   1    112.7000    488.2728
    497    498    500   1    112.7000    488.2728
    497    498    520   1    110.7000    313.8000
    499    498    500   1    112.7000    488.2728
    499    498    520   1    110.7000    313.8000
    500    498    520   1    110.7000    313.8000
    475    499    498   1    109.5000    418.4000
    475    499    521   1    109.5000    292.8800
    475    499    522   1    109.5000    292.8800
    498    499    521   1    110.7000    313.8000
    498    499    522   1    110.7000    313.8000
    521    499    522   1    107.8000    276.1440
    498    500    501   1    112.7000    488.2728
    498    500    523   1    110.7000    313.8000
    498    500    524   1    110.7000    313.8000
    501    500    523   1    110.7000    313.8000
    501    500    524   1    110.7000    313.8000
    523    500    524   1    107.8000    276.1440
    500    501    502   1    112.7000    488.2728
    500    501    525   1    110.7000    313.8000
    500    501    526   1    110.7000    313.8000
    502    501    525   1    110.7000    313.8000
    502    501    526   1    110.7000    313.8000
    525    501    526   1    107.8000    276.1440
    496    502    501   1    112.7000    488.2728
    496    502    503   1    112.7000    488.2728
    496    502    527   1    110.7000    313.8000
    501    502    503   1    112.7000    488.2728
    501    502    527   1    110.7000    313.8000
    503    502    527   1    110.7000    313.8000
    502    503    504   1    109.5000    418.4000
    502    503    528   1    110.7000    313.8000
    502    503    529   1    110.7000    313.8000
    504    503    528   1    109.5000    292.8800
    504    503    529   1    109.5000    292.8800
    528    503    529   1    107.8000    276.1440
    503    504    505   1    116.9000    694.5440
    504    505    506   1    123.4000    694.5440
    504    505    507   1    111.4000    677.8080
    506    505    507   1    123.7840    627.6000
    505    507    508   1    119.5260    502.0800
    505    507    515   1    119.5260    502.0800
    508    507    515   1    120.0000    527.1840
    507    508    509   1    120.0000    527.1840
    507    508    530   1    120.0000    292.8800
    509    508    530   1    120.0000    292.8800
    508    509    510   1    120.0000    527.1840
    508    509    531   1    120.0000    292.8800
    510    509    531   1    120.0000    292.8800
    509    510    511   1    119.5260    502.0800
    509    510    514   1    120.0000    527.1840
    511    510    514   1    119.5260    502.0800
    510    511    512   1    123.7840    627.6000
    510    511    513   1    111.4000    677.8080
    512    511    513   1    123.4000    694.5440
    511    513    537   1    116.9000    694.5440
    510    514    515   1    120.0000    527.1840
    510    514    532   1    120.0000    292.8800
    515    514    532   1    120.0000    292.8800
    507    515    514   1    120.0000    527.1840
    507    515    533   1    120.0000    292.8800
    514    515    533   1    120.0000    292.8800
    535    534    540   1    112.7000    488.2728
    535    534    554   1    110.7000    313.8000
    535    534    555   1    110.7000    313.8000
    540    534    554   1    110.7000    313.8000
    540    534    555   1    110.7000    313.8000
    554    534    555   1    107.8000    276.1440
    534    535    536   1    112.7000    488.2728
    534    535    556   1    110.7000    313.8000
    534    535    557   1    110.7000    313.8000
    536    535    556   1    110.7000    313.8000
    536    535    557   1    110.7000    313.8000
    556    535    557   1    107.8000    276.1440
    535    536    537   1    112.7000    488.2728
    535    536    538   1    112.7000    488.2728
    535    536    558   1    110.7000    313.8000
    537    536    538   1    112.7000    488.2728
    537    536    558   1    110.7000    313.8000
    538    536    558   1    110.7000    313.8000
    513    537    536   1    109.5000    418.4000
    513    537    559   1    109.5000    292.8800
    513    537    560   1    109.5000    292.8800
    536    537    559   1    110.7000    313.8000
    536    537    560   1    110.7000    313.8000
    559    537    560   1    107.8000    276.1440
    536    538    539   1    112.7000    488.2728
    536    538    561   1    110.7000    313.8000
    536    538    562   1    110.7000    313.8000
    539    538    561   1    110.7000    313.8000
    539    538    562   1    110.7000    313.8000
    561    538    562   1    107.8000    276.1440
    538    539    540   1    112.7000    488.2728
    538    539    563   1    110.7000    313.8000
    538    539    564   1    110.7000    313.8000
    540    539    563   1    110.7000    313.8000
    540    539    564   1    110.7000    313.8000
    563    539    564   1    107.8000    276.1440
    534    540    539   1    112.7000    488.2728
    534    540    541   1    112.7000    488.2728
    534    540    565   1    110.7000    313.8000
    539    540    541   1    112.7000    488.2728
    539    540    565   1    110.7000    313.8000
    541    540    565   1    110.7000    313.8000
    540    541    542   1    109.5000    418.4000
    540    541    566   1    110.7000    313.8000
    540    541    567   1    110.7000    313.8000
    542    541    566   1    109.5000    292.8800
    542    541    567   1    109.5000    292.8800
    566    541    567   1    107.8000    276.1440
    541    542    543   1    116.9000    694.5440
    542    543    544   1    123.4000    694.5440
    542    543    545   1    111.4000    677.8080
    544    543    545   1    123.7840    627.6000
    543    545    546   1    119.5260    502.0800
    543    545    553   1    119.5260    502.0800
    546    545    553   1    120.0000    527.1840
    545    546    547   1    120.0000    527.1840
    545    546    568   1    120.0000    292.8800
    547    546    568   1    120.0000    292.8800
    546    547    548   1    120.0000    527.1840
    546    547    569   1    120.0000    292.8800
    548    547    569   1    120.0000    292.8800
    547    548    549   1    119.5260    502.0800
    547    548    552   1    120.0000    527.1840
    549    548    552   1    119.5260    502.0800
    548    549    550   1    123.7840    627.6000
    548    549    551   1    111.4000    677.8080
    550    549    551   1    123.4000    694.5440
    549    551    575   1    116.9000    694.5440
    548    552    553   1    120.0000    527.1840
    548    552    570   1    120.0000    292.8800
    553    552    570   1    120.0000    292.8800
    545    553    552   1    120.0000    527.1840
    545    553    571   1    120.0000    292.8800
    552    553    571   1    120.0000    292.8800
    573    572    578   1    112.7000    488.2728
    573    572    592   1    110.7000    313.8000
    573    572    593   1    110.7000    313.8000
    578    572    592   1    110.7000    313.8000
    578    572    593   1    110.7000    313.8000
    592    572    593   1    107.8000    276.1440
    572    573    574   1    112.7000    488.2728
    572    573    594   1    110.7000    313.8000
    572    573    595   1    110.7000    313.8000
    574    573    594   1    110.7000    313.8000
    574    573    595   1    110.7000    313.8000
    594    573    595   1    107.8000    276.1440
    573    574    575   1    112.7000    488.2728
    573    574    576   1    112.7000    488.2728
    573    574    596   1    110.7000    313.8000
    575    574    576   1    112.7000    488.2728
    575    574    596   1    110.7000    313.8000
    576    574    596   1    110.7000    313.8000
    551    575    574   1    109.5000    418.4000
    551    575    597   1    109.5000    292.8800
    551    575    598   1    109.5000    292.8800
    574    575    597   1    110.7000    313.8000
    574    575    598   1    110.7000    313.8000
    597    575    598   1    107.8000    276.1440
    574    576    577   1    112.7000    488.2728
    574    576    599   1    110.7000    313.8000
    574    576    600   1    110.7000    313.8000
    577    576    599   1    110.7000    313.8000
    577    576    600   1    110.7000    313.8000
    599    576    600   1    107.8000    276.1440
    576    577    578   1    112.7000    488.2728
    576    577    601   1    110.7000    313.8000
    576    577    602   1    110.7000    313.8000
    578    577    601   1    110.7000    313.8000
    578    577    602   1    110.7000    313.8000
    601    577    602   1    107.8000    276.1440
    572    578    577   1    112.7000    488.2728
    572    578    579   1    112.7000    488.2728
    572    578    603   1    110.7000    313.8000
    577    578    579   1    112.7000    488.2728
    577    578    603   1    110.7000    313.8000
    579    578    603   1    110.7000    313.8000
    578    579    580   1    109.5000    418.4000
    578    579    604   1    110.7000    313.8000
    578    579    605   1    110.7000    313.8000
    580    579    604   1    109.5000    292.8800
    580    579    605   1    109.5000    292.8800
    604    579    605   1    107.8000    276.1440
    579    580    581   1    116.9000    694.5440
    580    581    582   1    123.4000    694.5440
    580    581    583   1    111.4000    677.8080
    582    581    583   1    123.7840    627.6000
    581    583    584   1    119.5260    502.0800
    581    583    591   1    119.5260    502.0800
    584    583    591   1    120.0000    527.1840
    583    584    585   1    120.0000    527.1840
    583    584    606   1    120.0000    292.8800
    585    584    606   1    120.0000    292.8800
    584    585    586   1    120.0000    527.1840
    584    585    607   1    120.0000    292.8800
    586    585    607   1    120.0000    292.8800
    585    586    587   1    119.5260    502.0800
    585    586    590   1    120.0000    527.1840
    587    586    590   1    119.5260    502.0800
    586    587    588   1    123.7840    627.6000
    586    587    589   1    111.4000    677.8080
    588    587    589   1    123.4000    694.5440
    587    589    613   1    116.9000    694.5440
    586    590    591   1    120.0000    527.1840
    586    590    608   1    120.0000    292.8800
    591    590    608   1    120.0000    292.8800
    583    591    590   1    120.0000    527.1840
    583    591    609   1    120.0000    292.8800
    590    591    609   1    120.0000    292.8800
    611    610    616   1    112.7000    488.2728
    611    610    630   1    110.7000    313.8000
    611    610    631   1    110.7000    313.8000
    616    610    630   1    110.7000    313.8000
    616    610    631   1    110.7000    313.8000
    630    610    631   1    107.8000    276.1440
    610    611    612   1    112.7000    488.2728
    610    611    632   1    110.7000    313.8000
    610    611    633   1    110.7000    313.8000
    612    611    632   1    110.7000    313.8000
    612    611    633   1    110.7000    313.8000
    632    611    633   1    107.8000    276.1440
    611    612    613   1    112.7000    488.2728
    611    612    614   1    112.7000    488.2728
    611    612    634   1    110.7000    313.8000
    613    612    614   1    112.7000    488.2728
    613    612    634   1    110.7000    313.8000
    614    612    634   1    110.7000    313.8000
    589    613    612   1    109.5000    418.4000
    589    613    635   1    109.5000    292.8800
    589    613    636   1    109.5000    292.8800
    612    613    635   1    110.7000    313.8000
    612    613    636   1    110.7000    313.8000
    635    613    636   1    107.8000    276.1440
    612    614    615   1    112.7000    488.2728
    612    614    637   1    110.7000    313.8000
    612    614    638   1    110.7000    313.8000
    615    614    637   1    110.7000    313.8000
    615    614    638   1    110.7000    313.8000
    637    614    638   1    107.8000    276.1440
    614    615    616   1    112.7000    488.2728
    614    615    639   1    110.7000    313.8000
    614    615    640   1    110.7000    313.8000
    616    615    639   1    110.7000    313.8000
    616    615    640   1    110.7000    313.8000
    639    615    640   1    107.8000    276.1440
    610    616    615   1    112.7000    488.2728
    610    616    617   1    112.7000    488.2728
    610    616    641   1    110.7000    313.8000
    615    616    617   1    112.7000    488.2728
    615    616    641   1    110.7000    313.8000
    617    616    641   1    110.7000    313.8000
    616    617    618   1    109.5000    418.4000
    616    617    642   1    110.7000    313.8000
    616    617    643   1    110.7000    313.8000
    618    617    642   1    109.5000    292.8800
    618    617    643   1    109.5000    292.8800
    642    617    643   1    107.8000    276.1440
    617    618    619   1    116.9000    694.5440
    618    619    620   1    123.4000    694.5440
    618    619    621   1    111.4000    677.8080
    620    619    621   1    123.7840    627.6000
    619    621    622   1    119.5260    502.0800
    619    621    629   1    119.5260    502.0800
    622    621    629   1    120.0000    527.1840
    621    622    623   1    120.0000    527.1840
    621    622    644   1    120.0000    292.8800
    623    622    644   1    120.0000    292.8800
    622    623    624   1    120.0000    527.1840
    622    623    645   1    120.0000    292.8800
    624    623    645   1    120.0000    292.8800
    623    624    625   1    119.5260    502.0800
    623    624    628   1    120.0000    527.1840
    625    624    628   1    119.5260    502.0800
    624    625    626   1    123.7840    627.6000
    624    625    627   1    111.4000    677.8080
    626    625    627   1    123.4000    694.5440
    625    627    651   1    116.9000    694.5440
    624    628    629   1    120.0000    527.1840
    624    628    646   1    120.0000    292.8800
    629    628    646   1    120.0000    292.8800
    621    629    628   1    120.0000    527.1840
    621    629    647   1    120.0000    292.8800
    628    629    647   1    120.0000    292.8800
    649    648    654   1    112.7000    488.2728
    649    648    668   1    110.7000    313.8000
    649    648    669   1    110.7000    313.8000
    654    648    668   1    110.7000    313.8000
    654    648    669   1    110.7000    313.8000
    668    648    669   1    107.8000    276.1440
    648    649    650   1    112.7000    488.2728
    648    649    670   1    110.7000    313.8000
    648    649    671   1    110.7000    313.8000
    650    649    670   1    110.7000    313.8000
    650    649    671   1    110.7000    313.8000
    670    649    671   1    107.8000    276.1440
    649    650    651   1    112.7000    488.2728
    649    650    652   1    112.7000    488.2728
    649    650    672   1    110.7000    313.8000
    651    650    652   1    112.7000    488.2728
    651    650    672   1    110.7000    313.8000
    652    650    672   1    110.7000    313.8000
    627    651    650   1    109.5000    418.4000
    627    651    673   1    109.5000    292.8800
    627    651    674   1    109.5000    292.8800
    650    651    673   1    110.7000    313.8000
    650    651    674   1    110.7000    313.8000
    673    651    674   1    107.8000    276.1440
    650    652    653   1    112.7000    488.2728
    650    652    675   1    110.7000    313.8000
    650    652    676   1    110.7000    313.8000
    653    652    675   1    110.7000    313.8000
    653    652    676   1    110.7000    313.8000
    675    652    676   1    107.8000    276.1440
    652    653    654   1    112.7000    488.2728
    652    653    677   1    110.7000    313.8000
    652    653    678   1    110.7000    313.8000
    654    653    677   1    110.7000    313.8000
    654    653    678   1    110.7000    313.8000
    677    653    678   1    107.8000    276.1440
    648    654    653   1    112.7000    488.2728
    648    654    655   1    112.7000    488.2728
    648    654    679   1    110.7000    313.8000
    653    654    655   1    112.7000    488.2728
    653    654    679   1    110.7000    313.8000
    655    654    679   1    110.7000    313.8000
    654    655    656   1    109.5000    418.4000
    654    655    680   1    110.7000    313.8000
    654    655    681   1    110.7000    313.8000
    656    655    680   1    109.5000    292.8800
    656    655    681   1    109.5000    292.8800
    680    655    681   1    107.8000    276.1440
    655    656    657   1    116.9000    694.5440
    656    657    658   1    123.4000    694.5440
    656    657    659   1    111.4000    677.8080
    658    657    659   1    123.7840    627.6000
    657    659    660   1    119.5260    502.0800
    657    659    667   1    119.5260    502.0800
    660    659    667   1    120.0000    527.1840
    659    660    661   1    120.0000    527.1840
    659    660    682   1    120.0000    292.8800
    661    660    682   1    120.0000    292.8800
    660    661    662   1    120.0000    527.1840
    660    661    683   1    120.0000    292.8800
    662    661    683   1    120.0000    292.8800
    661    662    663   1    119.5260    502.0800
    661    662    666   1    120.0000    527.1840
    663    662    666   1    119.5260    502.0800
    662    663    664   1    123.7840    627.6000
    662    663    665   1    111.4000    677.8080
    664    663    665   1    123.4000    694.5440
    663    665    689   1    116.9000    694.5440
    662    666    667   1    120.0000    527.1840
    662    666    684   1    120.0000    292.8800
    667    666    684   1    120.0000    292.8800
    659    667    666   1    120.0000    527.1840
    659    667    685   1    120.0000    292.8800
    666    667    685   1    120.0000    292.8800
    687    686    692   1    112.7000    488.2728
    687    686    706   1    110.7000    313.8000
    687    686    707   1    110.7000    313.8000
    692    686    706   1    110.7000    313.8000
    692    686    707   1    110.7000    313.8000
    706    686    707   1    107.8000    276.1440
    686    687    688   1    112.7000    488.2728
    686    687    708   1    110.7000    313.8000
    686    687    709   1    110.7000    313.8000
    688    687    708   1    110.7000    313.8000
    688    687    709   1    110.7000    313.8000
    708    687    709   1    107.8000    276.1440
    687    688    689   1    112.7000    488.2728
    687    688    690   1    112.7000    488.2728
    687    688    710   1    110.7000    313.8000
    689    688    690   1    112.7000    488.2728
    689    688    710   1    110.7000    313.8000
    690    688    710   1    110.7000    313.8000
    665    689    688   1    109.5000    418.4000
    665    689    711   1    109.5000    292.8800
    665    689    712   1    109.5000    292.8800
    688    689    711   1    110.7000    313.8000
    688    689    712   1    110.7000    313.8000
    711    689    712   1    107.8000    276.1440
    688    690    691   1    112.7000    488.2728
    688    690    713   1    110.7000    313.8000
    688    690    714   1    110.7000    313.8000
    691    690    713   1    110.7000    313.8000
    691    690    714   1    110.7000    313.8000
    713    690    714   1    107.8000    276.1440
    690    691    692   1    112.7000    488.2728
    690    691    715   1    110.7000    313.8000
    690    691    716   1    110.7000    313.8000
    692    691    715   1    110.7000    313.8000
    692    691    716   1    110.7000    313.8000
    715    691    716   1    107.8000    276.1440
    686    692    691   1    112.7000    488.2728
    686    692    693   1    112.7000    488.2728
    686    692    717   1    110.7000    313.8000
    691    692    693   1    112.7000    488.2728
    691    692    717   1    110.7000    313.8000
    693    692    717   1    110.7000    313.8000
    692    693    694   1    109.5000    418.4000
    692    693    718   1    110.7000    313.8000
    692    693    719   1    110.7000    313.8000
    694    693    718   1    109.5000    292.8800
    694    693    719   1    109.5000    292.8800
    718    693    719   1    107.8000    276.1440
    693    694    695   1    116.9000    694.5440
    694    695    696   1    123.4000    694.5440
    694    695    697   1    111.4000    677.8080
    696    695    697   1    123.7840    627.6000
    695    697    698   1    119.5260    502.0800
    695    697    705   1    119.5260    502.0800
    698    697    705   1    120.0000    527.1840
    697    698    699   1    120.0000    527.1840
    697    698    720   1    120.0000    292.8800
    699    698    720   1    120.0000    292.8800
    698    699    700   1    120.0000    527.1840
    698    699    721   1    120.0000    292.8800
    700    699    721   1    120.0000    292.8800
    699    700    701   1    119.5260    502.0800
    699    700    704   1    120.0000    527.1840
    701    700    704   1    119.5260    502.0800
    700    701    702   1    123.7840    627.6000
    700    701    703   1    111.4000    677.8080
    702    701    703   1    123.4000    694.5440
    701    703    727   1    116.9000    694.5440
    700    704    705   1    120.0000    527.1840
    700    704    722   1    120.0000    292.8800
    705    704    722   1    120.0000    292.8800
    697    705    704   1    120.0000    527.1840
    697    705    723   1    120.0000    292.8800
    704    705    723   1    120.0000    292.8800
    725    724    730   1    112.7000    488.2728
    725    724    744   1    110.7000    313.8000
    725    724    745   1    110.7000    313.8000
    730    724    744   1    110.7000    313.8000
    730    724    745   1    110.7000    313.8000
    744    724    745   1    107.8000    276.1440
    724    725    726   1    112.7000    488.2728
    724    725    746   1    110.7000    313.8000
    724    725    747   1    110.7000    313.8000
    726    725    746   1    110.7000    313.8000
    726    725    747   1    110.7000    313.8000
    746    725    747   1    107.8000    276.1440
    725    726    727   1    112.7000    488.2728
    725    726    728   1    112.7000    488.2728
    725    726    748   1    110.7000    313.8000
    727    726    728   1    112.7000    488.2728
    727    726    748   1    110.7000    313.8000
    728    726    748   1    110.7000    313.8000
    703    727    726   1    109.5000    418.4000
    703    727    749   1    109.5000    292.8800
    703    727    750   1    109.5000    292.8800
    726    727    749   1    110.7000    313.8000
    726    727    750   1    110.7000    313.8000
    749    727    750   1    107.8000    276.1440
    726    728    729   1    112.7000    488.2728
    726    728    751   1    110.7000    313.8000
    726    728    752   1    110.7000    313.8000
    729    728    751   1    110.7000    313.8000
    729    728    752   1    110.7000    313.8000
    751    728    752   1    107.8000    276.1440
    728    729    730   1    112.7000    488.2728
    728    729    753   1    110.7000    313.8000
    728    729    754   1    110.7000    313.8000
    730    729    753   1    110.7000    313.8000
    730    729    754   1    110.7000    313.8000
    753    729    754   1    107.8000    276.1440
    724    730    729   1    112.7000    488.2728
    724    730    731   1    112.7000    488.2728
    724    730    755   1    110.7000    313.8000
    729    730    731   1    112.7000    488.2728
    729    730    755   1    110.7000    313.8000
    731    730    755   1    110.7000    313.8000
    730    731    732   1    109.5000    418.4000
    730    731    756   1    110.7000    313.8000
    730    731    757   1    110.7000    313.8000
    732    731    756   1    109.5000    292.8800
    732    731    757   1    109.5000    292.8800
    756    731    757   1    107.8000    276.1440
    731    732    733   1    116.9000    694.5440
    732    733    734   1    123.4000    694.5440
    732    733    735   1    111.4000    677.8080
    734    733    735   1    123.7840    627.6000
    733    735    736   1    119.5260    502.0800
    733    735    743   1    119.5260    502.0800
    736    735    743   1    120.0000    527.1840
    735    736    737   1    120.0000    527.1840
    735    736    758   1    120.0000    292.8800
    737    736    758   1    120.0000    292.8800
    736    737    738   1    120.0000    527.1840
    736    737    759   1    120.0000    292.8800
    738    737    759   1    120.0000    292.8800
    737    738    739   1    120.0000    711.2800
    737    738    742   1    120.0000    527.1840
    739    738    742   1    120.0000    711.2800
    738    739    740   1    120.4000    669.4400
    738    739    741   1    111.8800    711.2800
    740    739    741   1    123.3200    836.8000
    739    741    762   1    113.0000    292.8800
    738    742    743   1    120.0000    527.1840
    738    742    760   1    120.0000    292.8800
    743    742    760   1    120.0000    292.8800
    735    743    742   1    120.0000    527.1840
    735    743    761   1    120.0000    292.8800
    742    743    761   1    120.0000    292.8800

[ dihedrals ]
; Proper dihedrals
      7      1      2      3   5     4.74884    -0.63178     1.67360  0.0
      7      1      2     23   5     0.00000     0.00000     1.25520  0.0
      7      1      2     24   5     0.00000     0.00000     1.25520  0.0
     21      1      2      3   5     0.00000     0.00000     1.25520  0.0
     21      1      2     23   5     0.00000     0.00000     1.25520  0.0
     21      1      2     24   5     0.00000     0.00000     1.25520  0.0
     22      1      2      3   5     0.00000     0.00000     1.25520  0.0
     22      1      2     23   5     0.00000     0.00000     1.25520  0.0
     22      1      2     24   5     0.00000     0.00000     1.25520  0.0
      2      1      7      6   5     4.74884    -0.63178     1.67360  0.0
      2      1      7      8   5     4.74884    -0.63178     1.67360  0.0
      2      1      7     32   5     0.00000     0.00000     1.25520  0.0
     21      1      7      6   5     0.00000     0.00000     1.25520  0.0
     21      1      7      8   5     0.00000     0.00000     1.25520  0.0
     21      1      7     32   5     0.00000     0.00000     1.25520  0.0
     22      1      7      6   5     0.00000     0.00000     1.25520  0.0
     22      1      7      8   5     0.00000     0.00000     1.25520  0.0
     22      1      7     32   5     0.00000     0.00000     1.25520  0.0
      1      2      3      4   5     4.74884    -0.63178     1.67360  0.0
      1      2      3      5   5     4.74884    -0.63178     1.67360  0.0
      1      2      3     25   5     0.00000     0.00000     1.25520  0.0
     23      2      3      4   5     0.00000     0.00000     1.25520  0.0
     23      2      3      5   5     0.00000     0.00000     1.25520  0.0
     23      2      3     25   5     0.00000     0.00000     1.25520  0.0
     24      2      3      4   5     0.00000     0.00000     1.25520  0.0
     24      2      3      5   5     0.00000     0.00000     1.25520  0.0
     24      2      3     25   5     0.00000     0.00000     1.25520  0.0
      2      3      4     26   5     0.00000     0.00000     1.25520  0.0
      2      3      4     27   5     0.00000     0.00000     1.25520  0.0
      2      3      4     39   5     0.00000     0.00000     1.25520  0.0
      5      3      4     26   5     0.00000     0.00000     1.25520  0.0
      5      3      4     27   5     0.00000     0.00000     1.25520  0.0
      5      3      4     39   5     0.00000     0.00000     1.25520  0.0
     25      3      4     26   5     0.00000     0.00000     1.25520  0.0
     25      3      4     27   5     0.00000     0.00000     1.25520  0.0
     25      3      4     39   5     0.00000     0.00000     1.25520  0.0
      2      3      5      6   5     4.74884    -0.63178     1.67360  0.0
      2      3      5     28   5     0.00000     0.00000     1.25520  0.0
      2      3      5     29   5     0.00000     0.00000     1.25520  0.0
      4      3      5      6   5     4.74884    -0.63178     1.67360  0.0
      4      3      5     28   5     0.00000     0.00000     1.25520  0.0
      4      3      5     29   5     0.00000     0.00000     1.25520  0.0
     25      3      5      6   5     0.00000     0.00000     1.25520  0.0
     25      3      5     28   5     0.00000     0.00000     1.25520  0.0
     25      3      5     29   5     0.00000     0.00000     1.25520  0.0
      3      5      6      7   5     4.74884    -0.63178     1.67360  0.0
      3      5      6     30   5     0.00000     0.00000     1.25520  0.0
      3      5      6     31   5     0.00000     0.00000     1.25520  0.0
     28      5      6      7   5     0.00000     0.00000     1.25520  0.0
     28      5      6     30   5     0.00000     0.00000     1.25520  0.0
     28      5      6     31   5     0.00000     0.00000     1.25520  0.0
     29      5      6      7   5     0.00000     0.00000     1.25520  0.0
     29      5      6     30   5     0.00000     0.00000     1.25520  0.0
     29      5      6     31   5     0.00000     0.00000     1.25520  0.0
      5      6      7      1   5     4.74884    -0.63178     1.67360  0.0
      5      6      7      8   5     4.74884    -0.63178     1.67360  0.0
      5      6      7     32   5     0.00000     0.00000     1.25520  0.0
     30      6      7      1   5     0.00000     0.00000     1.25520  0.0
     30      6      7      8   5     0.00000     0.00000     1.25520  0.0
     30      6      7     32   5     0.00000     0.00000     1.25520  0.0
     31      6      7      1   5     0.00000     0.00000     1.25520  0.0
     31      6      7      8   5     0.00000     0.00000     1.25520  0.0
     31      6      7     32   5     0.00000     0.00000     1.25520  0.0
      1      7      8      9   5     5.25092    -2.58990     2.28446  0.0
      1      7      8     33   5     0.00000     0.00000     1.25520  0.0
      1      7      8     34   5     0.00000     0.00000     1.25520  0.0
      6      7      8      9   5     5.25092    -2.58990     2.28446  0.0
      6      7      8     33   5     0.00000     0.00000     1.25520  0.0
      6      7      8     34   5     0.00000     0.00000     1.25520  0.0
     32      7      8      9   5     0.00000     0.00000     1.95811  0.0
     32      7      8     33   5     0.00000     0.00000     1.25520  0.0
     32      7      8     34   5     0.00000     0.00000     1.25520  0.0
      7      8      9     10   5    -2.16731    -3.93296     0.98324  0.0
     33      8      9     10   5     0.00000     0.00000     0.67362  0.0
     34      8      9     10   5     0.00000     0.00000     0.67362  0.0
      8      9     10     11   5     0.00000    25.10400     0.00000  0.0
      8      9     10     12   5     5.01662    27.18345     0.00000  0.0
      9     10     12     13   5     0.00000     8.26340     0.00000  0.0
      9     10     12     20   5     0.00000     8.26340     0.00000  0.0
     11     10     12     13   5     0.00000     8.78640     0.00000  0.0
     11     10     12     20   5     0.00000     8.78640     0.00000  0.0
     10     12     13     14   5     0.00000    30.33400     0.00000  0.0
     10     12     13     35   5     0.00000    30.33400     0.00000  0.0
     20     12     13     14   5     0.00000    30.33400     0.00000  0.0
     20     12     13     35   5     0.00000    30.33400     0.00000  0.0
     10     12     20     19   5     0.00000    30.33400     0.00000  0.0
     10     12     20     38   5     0.00000    30.33400     0.00000  0.0
     13     12     20     19   5     0.00000    30.33400     0.00000  0.0
     13     12     20     38   5     0.00000    30.33400     0.00000  0.0
     12     13     14     15   5     0.00000    30.33400     0.00000  0.0
     12     13     14     36   5     0.00000    30.33400     0.00000  0.0
     35     13     14     15   5     0.00000    30.33400     0.00000  0.0
     35     13     14     36   5     0.00000    30.33400     0.00000  0.0
     13     14     15     16   5     0.00000    30.33400     0.00000  0.0
     13     14     15     19   5     0.00000    30.33400     0.00000  0.0
     36     14     15     16   5     0.00000    30.33400     0.00000  0.0
     36     14     15     19   5     0.00000    30.33400     0.00000  0.0
     14     15     16     17   5     0.00000     8.78640     0.00000  0.0
     14     15     16     18   5     0.00000     8.26340     0.00000  0.0
     19     15     16     17   5     0.00000     8.78640     0.00000  0.0
     19     15     16     18   5     0.00000     8.26340     0.00000  0.0
     14     15     19     20   5     0.00000    30.33400     0.00000  0.0
     14     15     19     37   5     0.00000    30.33400     0.00000  0.0
     16     15     19     20   5     0.00000    30.33400     0.00000  0.0
     16     15     19     37   5     0.00000    30.33400     0.00000  0.0
     15     16     18     43   5     5.01662    27.18345     0.00000  0.0
     17     16     18     43   5     0.00000    25.10400     0.00000  0.0
     16     18     43     42   5    -2.16731    -3.93296     0.98324  0.0
     16     18     43     65   5     0.00000     0.00000     0.67362  0.0
     16     18     43     66   5     0.00000     0.00000     0.67362  0.0
     15     19     20     12   5     0.00000    30.33400     0.00000  0.0
     15     19     20     38   5     0.00000    30.33400     0.00000  0.0
     37     19     20     12   5     0.00000    30.33400     0.00000  0.0
     37     19     20     38   5     0.00000    30.33400     0.00000  0.0
     46     40     41     42   5     4.74884    -0.63178     1.67360  0.0
     46     40     41     62   5     0.00000     0.00000     1.25520  0.0
     46     40     41     63   5     0.00000     0.00000     1.25520  0.0
     60     40     41     42   5     0.00000     0.00000     1.25520  0.0
     60     40     41     62   5     0.00000     0.00000     1.25520  0.0
     60     40     41     63   5     0.00000     0.00000     1.25520  0.0
     61     40     41     42   5     0.00000     0.00000     1.25520  0.0
     61     40     41     62   5     0.00000     0.00000     1.25520  0.0
     61     40     41     63   5     0.00000     0.00000     1.25520  0.0
     41     40     46     45   5     4.74884    -0.63178     1.67360  0.0
     41     40     46     47   5     4.74884    -0.63178     1.67360  0.0
     41     40     46     71   5     0.00000     0.00000     1.25520  0.0
     60     40     46     45   5     0.00000     0.00000     1.25520  0.0
     60     40     46     47   5     0.00000     0.00000     1.25520  0.0
     60     40     46     71   5     0.00000     0.00000     1.25520  0.0
     61     40     46     45   5     0.00000     0.00000     1.25520  0.0
     61     40     46     47   5     0.00000     0.00000     1.25520  0.0
     61     40     46     71   5     0.00000     0.00000     1.25520  0.0
     40     41     42     43   5     4.74884    -0.63178     1.67360  0.0
     40     41     42     44   5     4.74884    -0.63178     1.67360  0.0
     40     41     42     64   5     0.00000     0.00000     1.25520  0.0
     62     41     42     43   5     0.00000     0.00000     1.25520  0.0
     62     41     42     44   5     0.00000     0.00000     1.25520  0.0
     62     41     42     64   5     0.00000     0.00000     1.25520  0.0
     63     41     42     43   5     0.00000     0.00000     1.25520  0.0
     63     41     42     44   5     0.00000     0.00000     1.25520  0.0
     63     41     42     64   5     0.00000     0.00000     1.25520  0.0
     41     42     43     18   5     5.25092    -2.58990     2.28446  0.0
     41     42     43     65   5     0.00000     0.00000     1.25520  0.0
     41     42     43     66   5     0.00000     0.00000     1.25520  0.0
     44     42     43     18   5     5.25092    -2.58990     2.28446  0.0
     44     42     43     65   5     0.00000     0.00000     1.25520  0.0
     44     42     43     66   5     0.00000     0.00000     1.25520  0.0
     64     42     43     18   5     0.00000     0.00000     1.95811  0.0
     64     42     43     65   5     0.00000     0.00000     1.25520  0.0
     64     42     43     66   5     0.00000     0.00000     1.25520  0.0
     41     42     44     45   5     4.74884    -0.63178     1.67360  0.0
     41     42     44     67   5     0.00000     0.00000     1.25520  0.0
     41     42     44     68   5     0.00000     0.00000     1.25520  0.0
     43     42     44     45   5     4.74884    -0.63178     1.67360  0.0
     43     42     44     67   5     0.00000     0.00000     1.25520  0.0
     43     42     44     68   5     0.00000     0.00000     1.25520  0.0
     64     42     44     45   5     0.00000     0.00000     1.25520  0.0
     64     42     44     67   5     0.00000     0.00000     1.25520  0.0
     64     42     44     68   5     0.00000     0.00000     1.25520  0.0
     42     44     45     46   5     4.74884    -0.63178     1.67360  0.0
     42     44     45     69   5     0.00000     0.00000     1.25520  0.0
     42     44     45     70   5     0.00000     0.00000     1.25520  0.0
     67     44     45     46   5     0.00000     0.00000     1.25520  0.0
     67     44     45     69   5     0.00000     0.00000     1.25520  0.0
     67     44     45     70   5     0.00000     0.00000     1.25520  0.0
     68     44     45     46   5     0.00000     0.00000     1.25520  0.0
     68     44     45     69   5     0.00000     0.00000     1.25520  0.0
     68     44     45     70   5     0.00000     0.00000     1.25520  0.0
     44     45     46     40   5     4.74884    -0.63178     1.67360  0.0
     44     45     46     47   5     4.74884    -0.63178     1.67360  0.0
     44     45     46     71   5     0.00000     0.00000     1.25520  0.0
     69     45     46     40   5     0.00000     0.00000     1.25520  0.0
     69     45     46     47   5     0.00000     0.00000     1.25520  0.0
     69     45     46     71   5     0.00000     0.00000     1.25520  0.0
     70     45     46     40   5     0.00000     0.00000     1.25520  0.0
     70     45     46     47   5     0.00000     0.00000     1.25520  0.0
     70     45     46     71   5     0.00000     0.00000     1.25520  0.0
     40     46     47     48   5     5.25092    -2.58990     2.28446  0.0
     40     46     47     72   5     0.00000     0.00000     1.25520  0.0
     40     46     47     73   5     0.00000     0.00000     1.25520  0.0
     45     46     47     48   5     5.25092    -2.58990     2.28446  0.0
     45     46     47     72   5     0.00000     0.00000     1.25520  0.0
     45     46     47     73   5     0.00000     0.00000     1.25520  0.0
     71     46     47     48   5     0.00000     0.00000     1.95811  0.0
     71     46     47     72   5     0.00000     0.00000     1.25520  0.0
     71     46     47     73   5     0.00000     0.00000     1.25520  0.0
     46     47     48     49   5    -2.16731    -3.93296     0.98324  0.0
     72     47     48     49   5     0.00000     0.00000     0.67362  0.0
     73     47     48     49   5     0.00000     0.00000     0.67362  0.0
     47     48     49     50   5     0.00000    25.10400     0.00000  0.0
     47     48     49     51   5     5.01662    27.18345     0.00000  0.0
     48     49     51     52   5     0.00000     8.26340     0.00000  0.0
     48     49     51     59   5     0.00000     8.26340     0.00000  0.0
     50     49     51     52   5     0.00000     8.78640     0.00000  0.0
     50     49     51     59   5     0.00000     8.78640     0.00000  0.0
     49     51     52     53   5     0.00000    30.33400     0.00000  0.0
     49     51     52     74   5     0.00000    30.33400     0.00000  0.0
     59     51     52     53   5     0.00000    30.33400     0.00000  0.0
     59     51     52     74   5     0.00000    30.33400     0.00000  0.0
     49     51     59     58   5     0.00000    30.33400     0.00000  0.0
     49     51     59     77   5     0.00000    30.33400     0.00000  0.0
     52     51     59     58   5     0.00000    30.33400     0.00000  0.0
     52     51     59     77   5     0.00000    30.33400     0.00000  0.0
     51     52     53     54   5     0.00000    30.33400     0.00000  0.0
     51     52     53     75   5     0.00000    30.33400     0.00000  0.0
     74     52     53     54   5     0.00000    30.33400     0.00000  0.0
     74     52     53     75   5     0.00000    30.33400     0.00000  0.0
     52     53     54     55   5     0.00000    30.33400     0.00000  0.0
     52     53     54     58   5     0.00000    30.33400     0.00000  0.0
     75     53     54     55   5     0.00000    30.33400     0.00000  0.0
     75     53     54     58   5     0.00000    30.33400     0.00000  0.0
     53     54     55     56   5     0.00000     8.78640     0.00000  0.0
     53     54     55     57   5     0.00000     8.26340     0.00000  0.0
     58     54     55     56   5     0.00000     8.78640     0.00000  0.0
     58     54     55     57   5     0.00000     8.26340     0.00000  0.0
     53     54     58     59   5     0.00000    30.33400     0.00000  0.0
     53     54     58     76   5     0.00000    30.33400     0.00000  0.0
     55     54     58     59   5     0.00000    30.33400     0.00000  0.0
     55     54     58     76   5     0.00000    30.33400     0.00000  0.0
     54     55     57     81   5     5.01662    27.18345     0.00000  0.0
     56     55     57     81   5     0.00000    25.10400     0.00000  0.0
     55     57     81     80   5    -2.16731    -3.93296     0.98324  0.0
     55     57     81    103   5     0.00000     0.00000     0.67362  0.0
     55     57     81    104   5     0.00000     0.00000     0.67362  0.0
     54     58     59     51   5     0.00000    30.33400     0.00000  0.0
     54     58     59     77   5     0.00000    30.33400     0.00000  0.0
     76     58     59     51   5     0.00000    30.33400     0.00000  0.0
     76     58     59     77   5     0.00000    30.33400     0.00000  0.0
     84     78     79     80   5     4.74884    -0.63178     1.67360  0.0
     84     78     79    100   5     0.00000     0.00000     1.25520  0.0
     84     78     79    101   5     0.00000     0.00000     1.25520  0.0
     98     78     79     80   5     0.00000     0.00000     1.25520  0.0
     98     78     79    100   5     0.00000     0.00000     1.25520  0.0
     98     78     79    101   5     0.00000     0.00000     1.25520  0.0
     99     78     79     80   5     0.00000     0.00000     1.25520  0.0
     99     78     79    100   5     0.00000     0.00000     1.25520  0.0
     99     78     79    101   5     0.00000     0.00000     1.25520  0.0
     79     78     84     83   5     4.74884    -0.63178     1.67360  0.0
     79     78     84     85   5     4.74884    -0.63178     1.67360  0.0
     79     78     84    109   5     0.00000     0.00000     1.25520  0.0
     98     78     84     83   5     0.00000     0.00000     1.25520  0.0
     98     78     84     85   5     0.00000     0.00000     1.25520  0.0
     98     78     84    109   5     0.00000     0.00000     1.25520  0.0
     99     78     84     83   5     0.00000     0.00000     1.25520  0.0
     99     78     84     85   5     0.00000     0.00000     1.25520  0.0
     99     78     84    109   5     0.00000     0.00000     1.25520  0.0
     78     79     80     81   5     4.74884    -0.63178     1.67360  0.0
     78     79     80     82   5     4.74884    -0.63178     1.67360  0.0
     78     79     80    102   5     0.00000     0.00000     1.25520  0.0
    100     79     80     81   5     0.00000     0.00000     1.25520  0.0
    100     79     80     82   5     0.00000     0.00000     1.25520  0.0
    100     79     80    102   5     0.00000     0.00000     1.25520  0.0
    101     79     80     81   5     0.00000     0.00000     1.25520  0.0
    101     79     80     82   5     0.00000     0.00000     1.25520  0.0
    101     79     80    102   5     0.00000     0.00000     1.25520  0.0
     79     80     81     57   5     5.25092    -2.58990     2.28446  0.0
     79     80     81    103   5     0.00000     0.00000     1.25520  0.0
     79     80     81    104   5     0.00000     0.00000     1.25520  0.0
     82     80     81     57   5     5.25092    -2.58990     2.28446  0.0
     82     80     81    103   5     0.00000     0.00000     1.25520  0.0
     82     80     81    104   5     0.00000     0.00000     1.25520  0.0
    102     80     81     57   5     0.00000     0.00000     1.95811  0.0
    102     80     81    103   5     0.00000     0.00000     1.25520  0.0
    102     80     81    104   5     0.00000     0.00000     1.25520  0.0
     79     80     82     83   5     4.74884    -0.63178     1.67360  0.0
     79     80     82    105   5     0.00000     0.00000     1.25520  0.0
     79     80     82    106   5     0.00000     0.00000     1.25520  0.0
     81     80     82     83   5     4.74884    -0.63178     1.67360  0.0
     81     80     82    105   5     0.00000     0.00000     1.25520  0.0
     81     80     82    106   5     0.00000     0.00000     1.25520  0.0
    102     80     82     83   5     0.00000     0.00000     1.25520  0.0
    102     80     82    105   5     0.00000     0.00000     1.25520  0.0
    102     80     82    106   5     0.00000     0.00000     1.25520  0.0
     80     82     83     84   5     4.74884    -0.63178     1.67360  0.0
     80     82     83    107   5     0.00000     0.00000     1.25520  0.0
     80     82     83    108   5     0.00000     0.00000     1.25520  0.0
    105     82     83     84   5     0.00000     0.00000     1.25520  0.0
    105     82     83    107   5     0.00000     0.00000     1.25520  0.0
    105     82     83    108   5     0.00000     0.00000     1.25520  0.0
    106     82     83     84   5     0.00000     0.00000     1.25520  0.0
    106     82     83    107   5     0.00000     0.00000     1.25520  0.0
    106     82     83    108   5     0.00000     0.00000     1.25520  0.0
     82     83     84     78   5     4.74884    -0.63178     1.67360  0.0
     82     83     84     85   5     4.74884    -0.63178     1.67360  0.0
     82     83     84    109   5     0.00000     0.00000     1.25520  0.0
    107     83     84     78   5     0.00000     0.00000     1.25520  0.0
    107     83     84     85   5     0.00000     0.00000     1.25520  0.0
    107     83     84    109   5     0.00000     0.00000     1.25520  0.0
    108     83     84     78   5     0.00000     0.00000     1.25520  0.0
    108     83     84     85   5     0.00000     0.00000     1.25520  0.0
    108     83     84    109   5     0.00000     0.00000     1.25520  0.0
     78     84     85     86   5     5.25092    -2.58990     2.28446  0.0
     78     84     85    110   5     0.00000     0.00000     1.25520  0.0
     78     84     85    111   5     0.00000     0.00000     1.25520  0.0
     83     84     85     86   5     5.25092    -2.58990     2.28446  0.0
     83     84     85    110   5     0.00000     0.00000     1.25520  0.0
     83     84     85    111   5     0.00000     0.00000     1.25520  0.0
    109     84     85     86   5     0.00000     0.00000     1.95811  0.0
    109     84     85    110   5     0.00000     0.00000     1.25520  0.0
    109     84     85    111   5     0.00000     0.00000     1.25520  0.0
     84     85     86     87   5    -2.16731    -3.93296     0.98324  0.0
    110     85     86     87   5     0.00000     0.00000     0.67362  0.0
    111     85     86     87   5     0.00000     0.00000     0.67362  0.0
     85     86     87     88   5     0.00000    25.10400     0.00000  0.0
     85     86     87     89   5     5.01662    27.18345     0.00000  0.0
     86     87     89     90   5     0.00000     8.26340     0.00000  0.0
     86     87     89     97   5     0.00000     8.26340     0.00000  0.0
     88     87     89     90   5     0.00000     8.78640     0.00000  0.0
     88     87     89     97   5     0.00000     8.78640     0.00000  0.0
     87     89     90     91   5     0.00000    30.33400     0.00000  0.0
     87     89     90    112   5     0.00000    30.33400     0.00000  0.0
     97     89     90     91   5     0.00000    30.33400     0.00000  0.0
     97     89     90    112   5     0.00000    30.33400     0.00000  0.0
     87     89     97     96   5     0.00000    30.33400     0.00000  0.0
     87     89     97    115   5     0.00000    30.33400     0.00000  0.0
     90     89     97     96   5     0.00000    30.33400     0.00000  0.0
     90     89     97    115   5     0.00000    30.33400     0.00000  0.0
     89     90     91     92   5     0.00000    30.33400     0.00000  0.0
     89     90     91    113   5     0.00000    30.33400     0.00000  0.0
    112     90     91     92   5     0.00000    30.33400     0.00000  0.0
    112     90     91    113   5     0.00000    30.33400     0.00000  0.0
     90     91     92     93   5     0.00000    30.33400     0.00000  0.0
     90     91     92     96   5     0.00000    30.33400     0.00000  0.0
    113     91     92     93   5     0.00000    30.33400     0.00000  0.0
    113     91     92     96   5     0.00000    30.33400     0.00000  0.0
     91     92     93     94   5     0.00000     8.78640     0.00000  0.0
     91     92     93     95   5     0.00000     8.26340     0.00000  0.0
     96     92     93     94   5     0.00000     8.78640     0.00000  0.0
     96     92     93     95   5     0.00000     8.26340     0.00000  0.0
     91     92     96     97   5     0.00000    30.33400     0.00000  0.0
     91     92     96    114   5     0.00000    30.33400     0.00000  0.0
     93     92     96     97   5     0.00000    30.33400     0.00000  0.0
     93     92     96    114   5     0.00000    30.33400     0.00000  0.0
     92     93     95    119   5     5.01662    27.18345     0.00000  0.0
     94     93     95    119   5     0.00000    25.10400     0.00000  0.0
     93     95    119    118   5    -2.16731    -3.93296     0.98324  0.0
     93     95    119    141   5     0.00000     0.00000     0.67362  0.0
     93     95    119    142   5     0.00000     0.00000     0.67362  0.0
     92     96     97     89   5     0.00000    30.33400     0.00000  0.0
     92     96     97    115   5     0.00000    30.33400     0.00000  0.0
    114     96     97     89   5     0.00000    30.33400     0.00000  0.0
    114     96     97    115   5     0.00000    30.33400     0.00000  0.0
    122    116    117    118   5     4.74884    -0.63178     1.67360  0.0
    122    116    117    138   5     0.00000     0.00000     1.25520  0.0
    122    116    117    139   5     0.00000     0.00000     1.25520  0.0
    136    116    117    118   5     0.00000     0.00000     1.25520  0.0
    136    116    117    138   5     0.00000     0.00000     1.25520  0.0
    136    116    117    139   5     0.00000     0.00000     1.25520  0.0
    137    116    117    118   5     0.00000     0.00000     1.25520  0.0
    137    116    117    138   5     0.00000     0.00000     1.25520  0.0
    137    116    117    139   5     0.00000     0.00000     1.25520  0.0
    117    116    122    121   5     4.74884    -0.63178     1.67360  0.0
    117    116    122    123   5     4.74884    -0.63178     1.67360  0.0
    117    116    122    147   5     0.00000     0.00000     1.25520  0.0
    136    116    122    121   5     0.00000     0.00000     1.25520  0.0
    136    116    122    123   5     0.00000     0.00000     1.25520  0.0
    136    116    122    147   5     0.00000     0.00000     1.25520  0.0
    137    116    122    121   5     0.00000     0.00000     1.25520  0.0
    137    116    122    123   5     0.00000     0.00000     1.25520  0.0
    137    116    122    147   5     0.00000     0.00000     1.25520  0.0
    116    117    118    119   5     4.74884    -0.63178     1.67360  0.0
    116    117    118    120   5     4.74884    -0.63178     1.67360  0.0
    116    117    118    140   5     0.00000     0.00000     1.25520  0.0
    138    117    118    119   5     0.00000     0.00000     1.25520  0.0
    138    117    118    120   5     0.00000     0.00000     1.25520  0.0
    138    117    118    140   5     0.00000     0.00000     1.25520  0.0
    139    117    118    119   5     0.00000     0.00000     1.25520  0.0
    139    117    118    120   5     0.00000     0.00000     1.25520  0.0
    139    117    118    140   5     0.00000     0.00000     1.25520  0.0
    117    118    119     95   5     5.25092    -2.58990     2.28446  0.0
    117    118    119    141   5     0.00000     0.00000     1.25520  0.0
    117    118    119    142   5     0.00000     0.00000     1.25520  0.0
    120    118    119     95   5     5.25092    -2.58990     2.28446  0.0
    120    118    119    141   5     0.00000     0.00000     1.25520  0.0
    120    118    119    142   5     0.00000     0.00000     1.25520  0.0
    140    118    119     95   5     0.00000     0.00000     1.95811  0.0
    140    118    119    141   5     0.00000     0.00000     1.25520  0.0
    140    118    119    142   5     0.00000     0.00000     1.25520  0.0
    117    118    120    121   5     4.74884    -0.63178     1.67360  0.0
    117    118    120    143   5     0.00000     0.00000     1.25520  0.0
    117    118    120    144   5     0.00000     0.00000     1.25520  0.0
    119    118    120    121   5     4.74884    -0.63178     1.67360  0.0
    119    118    120    143   5     0.00000     0.00000     1.25520  0.0
    119    118    120    144   5     0.00000     0.00000     1.25520  0.0
    140    118    120    121   5     0.00000     0.00000     1.25520  0.0
    140    118    120    143   5     0.00000     0.00000     1.25520  0.0
    140    118    120    144   5     0.00000     0.00000     1.25520  0.0
    118    120    121    122   5     4.74884    -0.63178     1.67360  0.0
    118    120    121    145   5     0.00000     0.00000     1.25520  0.0
    118    120    121    146   5     0.00000     0.00000     1.25520  0.0
    143    120    121    122   5     0.00000     0.00000     1.25520  0.0
    143    120    121    145   5     0.00000     0.00000     1.25520  0.0
    143    120    121    146   5     0.00000     0.00000     1.25520  0.0
    144    120    121    122   5     0.00000     0.00000     1.25520  0.0
    144    120    121    145   5     0.00000     0.00000     1.25520  0.0
    144    120    121    146   5     0.00000     0.00000     1.25520  0.0
    120    121    122    116   5     4.74884    -0.63178     1.67360  0.0
    120    121    122    123   5     4.74884    -0.63178     1.67360  0.0
    120    121    122    147   5     0.00000     0.00000     1.25520  0.0
    145    121    122    116   5     0.00000     0.00000     1.25520  0.0
    145    121    122    123   5     0.00000     0.00000     1.25520  0.0
    145    121    122    147   5     0.00000     0.00000     1.25520  0.0
    146    121    122    116   5     0.00000     0.00000     1.25520  0.0
    146    121    122    123   5     0.00000     0.00000     1.25520  0.0
    146    121    122    147   5     0.00000     0.00000     1.25520  0.0
    116    122    123    124   5     5.25092    -2.58990     2.28446  0.0
    116    122    123    148   5     0.00000     0.00000     1.25520  0.0
    116    122    123    149   5     0.00000     0.00000     1.25520  0.0
    121    122    123    124   5     5.25092    -2.58990     2.28446  0.0
    121    122    123    148   5     0.00000     0.00000     1.25520  0.0
    121    122    123    149   5     0.00000     0.00000     1.25520  0.0
    147    122    123    124   5     0.00000     0.00000     1.95811  0.0
    147    122    123    148   5     0.00000     0.00000     1.25520  0.0
    147    122    123    149   5     0.00000     0.00000     1.25520  0.0
    122    123    124    125   5    -2.16731    -3.93296     0.98324  0.0
    148    123    124    125   5     0.00000     0.00000     0.67362  0.0
    149    123    124    125   5     0.00000     0.00000     0.67362  0.0
    123    124    125    126   5     0.00000    25.10400     0.00000  0.0
    123    124    125    127   5     5.01662    27.18345     0.00000  0.0
    124    125    127    128   5     0.00000     8.26340     0.00000  0.0
    124    125    127    135   5     0.00000     8.26340     0.00000  0.0
    126    125    127    128   5     0.00000     8.78640     0.00000  0.0
    126    125    127    135   5     0.00000     8.78640     0.00000  0.0
    125    127    128    129   5     0.00000    30.33400     0.00000  0.0
    125    127    128    150   5     0.00000    30.33400     0.00000  0.0
    135    127    128    129   5     0.00000    30.33400     0.00000  0.0
    135    127    128    150   5     0.00000    30.33400     0.00000  0.0
    125    127    135    134   5     0.00000    30.33400     0.00000  0.0
    125    127    135    153   5     0.00000    30.33400     0.00000  0.0
    128    127    135    134   5     0.00000    30.33400     0.00000  0.0
    128    127    135    153   5     0.00000    30.33400     0.00000  0.0
    127    128    129    130   5     0.00000    30.33400     0.00000  0.0
    127    128    129    151   5     0.00000    30.33400     0.00000  0.0
    150    128    129    130   5     0.00000    30.33400     0.00000  0.0
    150    128    129    151   5     0.00000    30.33400     0.00000  0.0
    128    129    130    131   5     0.00000    30.33400     0.00000  0.0
    128    129    130    134   5     0.00000    30.33400     0.00000  0.0
    151    129    130    131   5     0.00000    30.33400     0.00000  0.0
    151    129    130    134   5     0.00000    30.33400     0.00000  0.0
    129    130    131    132   5     0.00000     8.78640     0.00000  0.0
    129    130    131    133   5     0.00000     8.26340     0.00000  0.0
    134    130    131    132   5     0.00000     8.78640     0.00000  0.0
    134    130    131    133   5     0.00000     8.26340     0.00000  0.0
    129    130    134    135   5     0.00000    30.33400     0.00000  0.0
    129    130    134    152   5     0.00000    30.33400     0.00000  0.0
    131    130    134    135   5     0.00000    30.33400     0.00000  0.0
    131    130    134    152   5     0.00000    30.33400     0.00000  0.0
    130    131    133    157   5     5.01662    27.18345     0.00000  0.0
    132    131    133    157   5     0.00000    25.10400     0.00000  0.0
    131    133    157    156   5    -2.16731    -3.93296     0.98324  0.0
    131    133    157    179   5     0.00000     0.00000     0.67362  0.0
    131    133    157    180   5     0.00000     0.00000     0.67362  0.0
    130    134    135    127   5     0.00000    30.33400     0.00000  0.0
    130    134    135    153   5     0.00000    30.33400     0.00000  0.0
    152    134    135    127   5     0.00000    30.33400     0.00000  0.0
    152    134    135    153   5     0.00000    30.33400     0.00000  0.0
    160    154    155    156   5     4.74884    -0.63178     1.67360  0.0
    160    154    155    176   5     0.00000     0.00000     1.25520  0.0
    160    154    155    177   5     0.00000     0.00000     1.25520  0.0
    174    154    155    156   5     0.00000     0.00000     1.25520  0.0
    174    154    155    176   5     0.00000     0.00000     1.25520  0.0
    174    154    155    177   5     0.00000     0.00000     1.25520  0.0
    175    154    155    156   5     0.00000     0.00000     1.25520  0.0
    175    154    155    176   5     0.00000     0.00000     1.25520  0.0
    175    154    155    177   5     0.00000     0.00000     1.25520  0.0
    155    154    160    159   5     4.74884    -0.63178     1.67360  0.0
    155    154    160    161   5     4.74884    -0.63178     1.67360  0.0
    155    154    160    185   5     0.00000     0.00000     1.25520  0.0
    174    154    160    159   5     0.00000     0.00000     1.25520  0.0
    174    154    160    161   5     0.00000     0.00000     1.25520  0.0
    174    154    160    185   5     0.00000     0.00000     1.25520  0.0
    175    154    160    159   5     0.00000     0.00000     1.25520  0.0
    175    154    160    161   5     0.00000     0.00000     1.25520  0.0
    175    154    160    185   5     0.00000     0.00000     1.25520  0.0
    154    155    156    157   5     4.74884    -0.63178     1.67360  0.0
    154    155    156    158   5     4.74884    -0.63178     1.67360  0.0
    154    155    156    178   5     0.00000     0.00000     1.25520  0.0
    176    155    156    157   5     0.00000     0.00000     1.25520  0.0
    176    155    156    158   5     0.00000     0.00000     1.25520  0.0
    176    155    156    178   5     0.00000     0.00000     1.25520  0.0
    177    155    156    157   5     0.00000     0.00000     1.25520  0.0
    177    155    156    158   5     0.00000     0.00000     1.25520  0.0
    177    155    156    178   5     0.00000     0.00000     1.25520  0.0
    155    156    157    133   5     5.25092    -2.58990     2.28446  0.0
    155    156    157    179   5     0.00000     0.00000     1.25520  0.0
    155    156    157    180   5     0.00000     0.00000     1.25520  0.0
    158    156    157    133   5     5.25092    -2.58990     2.28446  0.0
    158    156    157    179   5     0.00000     0.00000     1.25520  0.0
    158    156    157    180   5     0.00000     0.00000     1.25520  0.0
    178    156    157    133   5     0.00000     0.00000     1.95811  0.0
    178    156    157    179   5     0.00000     0.00000     1.25520  0.0
    178    156    157    180   5     0.00000     0.00000     1.25520  0.0
    155    156    158    159   5     4.74884    -0.63178     1.67360  0.0
    155    156    158    181   5     0.00000     0.00000     1.25520  0.0
    155    156    158    182   5     0.00000     0.00000     1.25520  0.0
    157    156    158    159   5     4.74884    -0.63178     1.67360  0.0
    157    156    158    181   5     0.00000     0.00000     1.25520  0.0
    157    156    158    182   5     0.00000     0.00000     1.25520  0.0
    178    156    158    159   5     0.00000     0.00000     1.25520  0.0
    178    156    158    181   5     0.00000     0.00000     1.25520  0.0
    178    156    158    182   5     0.00000     0.00000     1.25520  0.0
    156    158    159    160   5     4.74884    -0.63178     1.67360  0.0
    156    158    159    183   5     0.00000     0.00000     1.25520  0.0
    156    158    159    184   5     0.00000     0.00000     1.25520  0.0
    181    158    159    160   5     0.00000     0.00000     1.25520  0.0
    181    158    159    183   5     0.00000     0.00000     1.25520  0.0
    181    158    159    184   5     0.00000     0.00000     1.25520  0.0
    182    158    159    160   5     0.00000     0.00000     1.25520  0.0
    182    158    159    183   5     0.00000     0.00000     1.25520  0.0
    182    158    159    184   5     0.00000     0.00000     1.25520  0.0
    158    159    160    154   5     4.74884    -0.63178     1.67360  0.0
    158    159    160    161   5     4.74884    -0.63178     1.67360  0.0
    158    159    160    185   5     0.00000     0.00000     1.25520  0.0
    183    159    160    154   5     0.00000     0.00000     1.25520  0.0
    183    159    160    161   5     0.00000     0.00000     1.25520  0.0
    183    159    160    185   5     0.00000     0.00000     1.25520  0.0
    184    159    160    154   5     0.00000     0.00000     1.25520  0.0
    184    159    160    161   5     0.00000     0.00000     1.25520  0.0
    184    159    160    185   5     0.00000     0.00000     1.25520  0.0
    154    160    161    162   5     5.25092    -2.58990     2.28446  0.0
    154    160    161    186   5     0.00000     0.00000     1.25520  0.0
    154    160    161    187   5     0.00000     0.00000     1.25520  0.0
    159    160    161    162   5     5.25092    -2.58990     2.28446  0.0
    159    160    161    186   5     0.00000     0.00000     1.25520  0.0
    159    160    161    187   5     0.00000     0.00000     1.25520  0.0
    185    160    161    162   5     0.00000     0.00000     1.95811  0.0
    185    160    161    186   5     0.00000     0.00000     1.25520  0.0
    185    160    161    187   5     0.00000     0.00000     1.25520  0.0
    160    161    162    163   5    -2.16731    -3.93296     0.98324  0.0
    186    161    162    163   5     0.00000     0.00000     0.67362  0.0
    187    161    162    163   5     0.00000     0.00000     0.67362  0.0
    161    162    163    164   5     0.00000    25.10400     0.00000  0.0
    161    162    163    165   5     5.01662    27.18345     0.00000  0.0
    162    163    165    166   5     0.00000     8.26340     0.00000  0.0
    162    163    165    173   5     0.00000     8.26340     0.00000  0.0
    164    163    165    166   5     0.00000     8.78640     0.00000  0.0
    164    163    165    173   5     0.00000     8.78640     0.00000  0.0
    163    165    166    167   5     0.00000    30.33400     0.00000  0.0
    163    165    166    188   5     0.00000    30.33400     0.00000  0.0
    173    165    166    167   5     0.00000    30.33400     0.00000  0.0
    173    165    166    188   5     0.00000    30.33400     0.00000  0.0
    163    165    173    172   5     0.00000    30.33400     0.00000  0.0
    163    165    173    191   5     0.00000    30.33400     0.00000  0.0
    166    165    173    172   5     0.00000    30.33400     0.00000  0.0
    166    165    173    191   5     0.00000    30.33400     0.00000  0.0
    165    166    167    168   5     0.00000    30.33400     0.00000  0.0
    165    166    167    189   5     0.00000    30.33400     0.00000  0.0
    188    166    167    168   5     0.00000    30.33400     0.00000  0.0
    188    166    167    189   5     0.00000    30.33400     0.00000  0.0
    166    167    168    169   5     0.00000    30.33400     0.00000  0.0
    166    167    168    172   5     0.00000    30.33400     0.00000  0.0
    189    167    168    169   5     0.00000    30.33400     0.00000  0.0
    189    167    168    172   5     0.00000    30.33400     0.00000  0.0
    167    168    169    170   5     0.00000     8.78640     0.00000  0.0
    167    168    169    171   5     0.00000     8.26340     0.00000  0.0
    172    168    169    170   5     0.00000     8.78640     0.00000  0.0
    172    168    169    171   5     0.00000     8.26340     0.00000  0.0
    167    168    172    173   5     0.00000    30.33400     0.00000  0.0
    167    168    172    190   5     0.00000    30.33400     0.00000  0.0
    169    168    172    173   5     0.00000    30.33400     0.00000  0.0
    169    168    172    190   5     0.00000    30.33400     0.00000  0.0
    168    169    171    195   5     5.01662    27.18345     0.00000  0.0
    170    169    171    195   5     0.00000    25.10400     0.00000  0.0
    169    171    195    194   5    -2.16731    -3.93296     0.98324  0.0
    169    171    195    217   5     0.00000     0.00000     0.67362  0.0
    169    171    195    218   5     0.00000     0.00000     0.67362  0.0
    168    172    173    165   5     0.00000    30.33400     0.00000  0.0
    168    172    173    191   5     0.00000    30.33400     0.00000  0.0
    190    172    173    165   5     0.00000    30.33400     0.00000  0.0
    190    172    173    191   5     0.00000    30.33400     0.00000  0.0
    198    192    193    194   5     4.74884    -0.63178     1.67360  0.0
    198    192    193    214   5     0.00000     0.00000     1.25520  0.0
    198    192    193    215   5     0.00000     0.00000     1.25520  0.0
    212    192    193    194   5     0.00000     0.00000     1.25520  0.0
    212    192    193    214   5     0.00000     0.00000     1.25520  0.0
    212    192    193    215   5     0.00000     0.00000     1.25520  0.0
    213    192    193    194   5     0.00000     0.00000     1.25520  0.0
    213    192    193    214   5     0.00000     0.00000     1.25520  0.0
    213    192    193    215   5     0.00000     0.00000     1.25520  0.0
    193    192    198    197   5     4.74884    -0.63178     1.67360  0.0
    193    192    198    199   5     4.74884    -0.63178     1.67360  0.0
    193    192    198    223   5     0.00000     0.00000     1.25520  0.0
    212    192    198    197   5     0.00000     0.00000     1.25520  0.0
    212    192    198    199   5     0.00000     0.00000     1.25520  0.0
    212    192    198    223   5     0.00000     0.00000     1.25520  0.0
    213    192    198    197   5     0.00000     0.00000     1.25520  0.0
    213    192    198    199   5     0.00000     0.00000     1.25520  0.0
    213    192    198    223   5     0.00000     0.00000     1.25520  0.0
    192    193    194    195   5     4.74884    -0.63178     1.67360  0.0
    192    193    194    196   5     4.74884    -0.63178     1.67360  0.0
    192    193    194    216   5     0.00000     0.00000     1.25520  0.0
    214    193    194    195   5     0.00000     0.00000     1.25520  0.0
    214    193    194    196   5     0.00000     0.00000     1.25520  0.0
    214    193    194    216   5     0.00000     0.00000     1.25520  0.0
    215    193    194    195   5     0.00000     0.00000     1.25520  0.0
    215    193    194    196   5     0.00000     0.00000     1.25520  0.0
    215    193    194    216   5     0.00000     0.00000     1.25520  0.0
    193    194    195    171   5     5.25092    -2.58990     2.28446  0.0
    193    194    195    217   5     0.00000     0.00000     1.25520  0.0
    193    194    195    218   5     0.00000     0.00000     1.25520  0.0
    196    194    195    171   5     5.25092    -2.58990     2.28446  0.0
    196    194    195    217   5     0.00000     0.00000     1.25520  0.0
    196    194    195    218   5     0.00000     0.00000     1.25520  0.0
    216    194    195    171   5     0.00000     0.00000     1.95811  0.0
    216    194    195    217   5     0.00000     0.00000     1.25520  0.0
    216    194    195    218   5     0.00000     0.00000     1.25520  0.0
    193    194    196    197   5     4.74884    -0.63178     1.67360  0.0
    193    194    196    219   5     0.00000     0.00000     1.25520  0.0
    193    194    196    220   5     0.00000     0.00000     1.25520  0.0
    195    194    196    197   5     4.74884    -0.63178     1.67360  0.0
    195    194    196    219   5     0.00000     0.00000     1.25520  0.0
    195    194    196    220   5     0.00000     0.00000     1.25520  0.0
    216    194    196    197   5     0.00000     0.00000     1.25520  0.0
    216    194    196    219   5     0.00000     0.00000     1.25520  0.0
    216    194    196    220   5     0.00000     0.00000     1.25520  0.0
    194    196    197    198   5     4.74884    -0.63178     1.67360  0.0
    194    196    197    221   5     0.00000     0.00000     1.25520  0.0
    194    196    197    222   5     0.00000     0.00000     1.25520  0.0
    219    196    197    198   5     0.00000     0.00000     1.25520  0.0
    219    196    197    221   5     0.00000     0.00000     1.25520  0.0
    219    196    197    222   5     0.00000     0.00000     1.25520  0.0
    220    196    197    198   5     0.00000     0.00000     1.25520  0.0
    220    196    197    221   5     0.00000     0.00000     1.25520  0.0
    220    196    197    222   5     0.00000     0.00000     1.25520  0.0
    196    197    198    192   5     4.74884    -0.63178     1.67360  0.0
    196    197    198    199   5     4.74884    -0.63178     1.67360  0.0
    196    197    198    223   5     0.00000     0.00000     1.25520  0.0
    221    197    198    192   5     0.00000     0.00000     1.25520  0.0
    221    197    198    199   5     0.00000     0.00000     1.25520  0.0
    221    197    198    223   5     0.00000     0.00000     1.25520  0.0
    222    197    198    192   5     0.00000     0.00000     1.25520  0.0
    222    197    198    199   5     0.00000     0.00000     1.25520  0.0
    222    197    198    223   5     0.00000     0.00000     1.25520  0.0
    192    198    199    200   5     5.25092    -2.58990     2.28446  0.0
    192    198    199    224   5     0.00000     0.00000     1.25520  0.0
    192    198    199    225   5     0.00000     0.00000     1.25520  0.0
    197    198    199    200   5     5.25092    -2.58990     2.28446  0.0
    197    198    199    224   5     0.00000     0.00000     1.25520  0.0
    197    198    199    225   5     0.00000     0.00000     1.25520  0.0
    223    198    199    200   5     0.00000     0.00000     1.95811  0.0
    223    198    199    224   5     0.00000     0.00000     1.25520  0.0
    223    198    199    225   5     0.00000     0.00000     1.25520  0.0
    198    199    200    201   5    -2.16731    -3.93296     0.98324  0.0
    224    199    200    201   5     0.00000     0.00000     0.67362  0.0
    225    199    200    201   5     0.00000     0.00000     0.67362  0.0
    199    200    201    202   5     0.00000    25.10400     0.00000  0.0
    199    200    201    203   5     5.01662    27.18345     0.00000  0.0
    200    201    203    204   5     0.00000     8.26340     0.00000  0.0
    200    201    203    211   5     0.00000     8.26340     0.00000  0.0
    202    201    203    204   5     0.00000     8.78640     0.00000  0.0
    202    201    203    211   5     0.00000     8.78640     0.00000  0.0
    201    203    204    205   5     0.00000    30.33400     0.00000  0.0
    201    203    204    226   5     0.00000    30.33400     0.00000  0.0
    211    203    204    205   5     0.00000    30.33400     0.00000  0.0
    211    203    204    226   5     0.00000    30.33400     0.00000  0.0
    201    203    211    210   5     0.00000    30.33400     0.00000  0.0
    201    203    211    229   5     0.00000    30.33400     0.00000  0.0
    204    203    211    210   5     0.00000    30.33400     0.00000  0.0
    204    203    211    229   5     0.00000    30.33400     0.00000  0.0
    203    204    205    206   5     0.00000    30.33400     0.00000  0.0
    203    204    205    227   5     0.00000    30.33400     0.00000  0.0
    226    204    205    206   5     0.00000    30.33400     0.00000  0.0
    226    204    205    227   5     0.00000    30.33400     0.00000  0.0
    204    205    206    207   5     0.00000    30.33400     0.00000  0.0
    204    205    206    210   5     0.00000    30.33400     0.00000  0.0
    227    205    206    207   5     0.00000    30.33400     0.00000  0.0
    227    205    206    210   5     0.00000    30.33400     0.00000  0.0
    205    206    207    208   5     0.00000     8.78640     0.00000  0.0
    205    206    207    209   5     0.00000     8.26340     0.00000  0.0
    210    206    207    208   5     0.00000     8.78640     0.00000  0.0
    210    206    207    209   5     0.00000     8.26340     0.00000  0.0
    205    206    210    211   5     0.00000    30.33400     0.00000  0.0
    205    206    210    228   5     0.00000    30.33400     0.00000  0.0
    207    206    210    211   5     0.00000    30.33400     0.00000  0.0
    207    206    210    228   5     0.00000    30.33400     0.00000  0.0
    206    207    209    233   5     5.01662    27.18345     0.00000  0.0
    208    207    209    233   5     0.00000    25.10400     0.00000  0.0
    207    209    233    232   5    -2.16731    -3.93296     0.98324  0.0
    207    209    233    255   5     0.00000     0.00000     0.67362  0.0
    207    209    233    256   5     0.00000     0.00000     0.67362  0.0
    206    210    211    203   5     0.00000    30.33400     0.00000  0.0
    206    210    211    229   5     0.00000    30.33400     0.00000  0.0
    228    210    211    203   5     0.00000    30.33400     0.00000  0.0
    228    210    211    229   5     0.00000    30.33400     0.00000  0.0
    236    230    231    232   5     4.74884    -0.63178     1.67360  0.0
    236    230    231    252   5     0.00000     0.00000     1.25520  0.0
    236    230    231    253   5     0.00000     0.00000     1.25520  0.0
    250    230    231    232   5     0.00000     0.00000     1.25520  0.0
    250    230    231    252   5     0.00000     0.00000     1.25520  0.0
    250    230    231    253   5     0.00000     0.00000     1.25520  0.0
    251    230    231    232   5     0.00000     0.00000     1.25520  0.0
    251    230    231    252   5     0.00000     0.00000     1.25520  0.0
    251    230    231    253   5     0.00000     0.00000     1.25520  0.0
    231    230    236    235   5     4.74884    -0.63178     1.67360  0.0
    231    230    236    237   5     4.74884    -0.63178     1.67360  0.0
    231    230    236    261   5     0.00000     0.00000     1.25520  0.0
    250    230    236    235   5     0.00000     0.00000     1.25520  0.0
    250    230    236    237   5     0.00000     0.00000     1.25520  0.0
    250    230    236    261   5     0.00000     0.00000     1.25520  0.0
    251    230    236    235   5     0.00000     0.00000     1.25520  0.0
    251    230    236    237   5     0.00000     0.00000     1.25520  0.0
    251    230    236    261   5     0.00000     0.00000     1.25520  0.0
    230    231    232    233   5     4.74884    -0.63178     1.67360  0.0
    230    231    232    234   5     4.74884    -0.63178     1.67360  0.0
    230    231    232    254   5     0.00000     0.00000     1.25520  0.0
    252    231    232    233   5     0.00000     0.00000     1.25520  0.0
    252    231    232    234   5     0.00000     0.00000     1.25520  0.0
    252    231    232    254   5     0.00000     0.00000     1.25520  0.0
    253    231    232    233   5     0.00000     0.00000     1.25520  0.0
    253    231    232    234   5     0.00000     0.00000     1.25520  0.0
    253    231    232    254   5     0.00000     0.00000     1.25520  0.0
    231    232    233    209   5     5.25092    -2.58990     2.28446  0.0
    231    232    233    255   5     0.00000     0.00000     1.25520  0.0
    231    232    233    256   5     0.00000     0.00000     1.25520  0.0
    234    232    233    209   5     5.25092    -2.58990     2.28446  0.0
    234    232    233    255   5     0.00000     0.00000     1.25520  0.0
    234    232    233    256   5     0.00000     0.00000     1.25520  0.0
    254    232    233    209   5     0.00000     0.00000     1.95811  0.0
    254    232    233    255   5     0.00000     0.00000     1.25520  0.0
    254    232    233    256   5     0.00000     0.00000     1.25520  0.0
    231    232    234    235   5     4.74884    -0.63178     1.67360  0.0
    231    232    234    257   5     0.00000     0.00000     1.25520  0.0
    231    232    234    258   5     0.00000     0.00000     1.25520  0.0
    233    232    234    235   5     4.74884    -0.63178     1.67360  0.0
    233    232    234    257   5     0.00000     0.00000     1.25520  0.0
    233    232    234    258   5     0.00000     0.00000     1.25520  0.0
    254    232    234    235   5     0.00000     0.00000     1.25520  0.0
    254    232    234    257   5     0.00000     0.00000     1.25520  0.0
    254    232    234    258   5     0.00000     0.00000     1.25520  0.0
    232    234    235    236   5     4.74884    -0.63178     1.67360  0.0
    232    234    235    259   5     0.00000     0.00000     1.25520  0.0
    232    234    235    260   5     0.00000     0.00000     1.25520  0.0
    257    234    235    236   5     0.00000     0.00000     1.25520  0.0
    257    234    235    259   5     0.00000     0.00000     1.25520  0.0
    257    234    235    260   5     0.00000     0.00000     1.25520  0.0
    258    234    235    236   5     0.00000     0.00000     1.25520  0.0
    258    234    235    259   5     0.00000     0.00000     1.25520  0.0
    258    234    235    260   5     0.00000     0.00000     1.25520  0.0
    234    235    236    230   5     4.74884    -0.63178     1.67360  0.0
    234    235    236    237   5     4.74884    -0.63178     1.67360  0.0
    234    235    236    261   5     0.00000     0.00000     1.25520  0.0
    259    235    236    230   5     0.00000     0.00000     1.25520  0.0
    259    235    236    237   5     0.00000     0.00000     1.25520  0.0
    259    235    236    261   5     0.00000     0.00000     1.25520  0.0
    260    235    236    230   5     0.00000     0.00000     1.25520  0.0
    260    235    236    237   5     0.00000     0.00000     1.25520  0.0
    260    235    236    261   5     0.00000     0.00000     1.25520  0.0
    230    236    237    238   5     5.25092    -2.58990     2.28446  0.0
    230    236    237    262   5     0.00000     0.00000     1.25520  0.0
    230    236    237    263   5     0.00000     0.00000     1.25520  0.0
    235    236    237    238   5     5.25092    -2.58990     2.28446  0.0
    235    236    237    262   5     0.00000     0.00000     1.25520  0.0
    235    236    237    263   5     0.00000     0.00000     1.25520  0.0
    261    236    237    238   5     0.00000     0.00000     1.95811  0.0
    261    236    237    262   5     0.00000     0.00000     1.25520  0.0
    261    236    237    263   5     0.00000     0.00000     1.25520  0.0
    236    237    238    239   5    -2.16731    -3.93296     0.98324  0.0
    262    237    238    239   5     0.00000     0.00000     0.67362  0.0
    263    237    238    239   5     0.00000     0.00000     0.67362  0.0
    237    238    239    240   5     0.00000    25.10400     0.00000  0.0
    237    238    239    241   5     5.01662    27.18345     0.00000  0.0
    238    239    241    242   5     0.00000     8.26340     0.00000  0.0
    238    239    241    249   5     0.00000     8.26340     0.00000  0.0
    240    239    241    242   5     0.00000     8.78640     0.00000  0.0
    240    239    241    249   5     0.00000     8.78640     0.00000  0.0
    239    241    242    243   5     0.00000    30.33400     0.00000  0.0
    239    241    242    264   5     0.00000    30.33400     0.00000  0.0
    249    241    242    243   5     0.00000    30.33400     0.00000  0.0
    249    241    242    264   5     0.00000    30.33400     0.00000  0.0
    239    241    249    248   5     0.00000    30.33400     0.00000  0.0
    239    241    249    267   5     0.00000    30.33400     0.00000  0.0
    242    241    249    248   5     0.00000    30.33400     0.00000  0.0
    242    241    249    267   5     0.00000    30.33400     0.00000  0.0
    241    242    243    244   5     0.00000    30.33400     0.00000  0.0
    241    242    243    265   5     0.00000    30.33400     0.00000  0.0
    264    242    243    244   5     0.00000    30.33400     0.00000  0.0
    264    242    243    265   5     0.00000    30.33400     0.00000  0.0
    242    243    244    245   5     0.00000    30.33400     0.00000  0.0
    242    243    244    248   5     0.00000    30.33400     0.00000  0.0
    265    243    244    245   5     0.00000    30.33400     0.00000  0.0
    265    243    244    248   5     0.00000    30.33400     0.00000  0.0
    243    244    245    246   5     0.00000     8.78640     0.00000  0.0
    243    244    245    247   5     0.00000     8.26340     0.00000  0.0
    248    244    245    246   5     0.00000     8.78640     0.00000  0.0
    248    244    245    247   5     0.00000     8.26340     0.00000  0.0
    243    244    248    249   5     0.00000    30.33400     0.00000  0.0
    243    244    248    266   5     0.00000    30.33400     0.00000  0.0
    245    244    248    249   5     0.00000    30.33400     0.00000  0.0
    245    244    248    266   5     0.00000    30.33400     0.00000  0.0
    244    245    247    271   5     5.01662    27.18345     0.00000  0.0
    246    245    247    271   5     0.00000    25.10400     0.00000  0.0
    245    247    271    270   5    -2.16731    -3.93296     0.98324  0.0
    245    247    271    293   5     0.00000     0.00000     0.67362  0.0
    245    247    271    294   5     0.00000     0.00000     0.67362  0.0
    244    248    249    241   5     0.00000    30.33400     0.00000  0.0
    244    248    249    267   5     0.00000    30.33400     0.00000  0.0
    266    248    249    241   5     0.00000    30.33400     0.00000  0.0
    266    248    249    267   5     0.00000    30.33400     0.00000  0.0
    274    268    269    270   5     4.74884    -0.63178     1.67360  0.0
    274    268    269    290   5     0.00000     0.00000     1.25520  0.0
    274    268    269    291   5     0.00000     0.00000     1.25520  0.0
    288    268    269    270   5     0.00000     0.00000     1.25520  0.0
    288    268    269    290   5     0.00000     0.00000     1.25520  0.0
    288    268    269    291   5     0.00000     0.00000     1.25520  0.0
    289    268    269    270   5     0.00000     0.00000     1.25520  0.0
    289    268    269    290   5     0.00000     0.00000     1.25520  0.0
    289    268    269    291   5     0.00000     0.00000     1.25520  0.0
    269    268    274    273   5     4.74884    -0.63178     1.67360  0.0
    269    268    274    275   5     4.74884    -0.63178     1.67360  0.0
    269    268    274    299   5     0.00000     0.00000     1.25520  0.0
    288    268    274    273   5     0.00000     0.00000     1.25520  0.0
    288    268    274    275   5     0.00000     0.00000     1.25520  0.0
    288    268    274    299   5     0.00000     0.00000     1.25520  0.0
    289    268    274    273   5     0.00000     0.00000     1.25520  0.0
    289    268    274    275   5     0.00000     0.00000     1.25520  0.0
    289    268    274    299   5     0.00000     0.00000     1.25520  0.0
    268    269    270    271   5     4.74884    -0.63178     1.67360  0.0
    268    269    270    272   5     4.74884    -0.63178     1.67360  0.0
    268    269    270    292   5     0.00000     0.00000     1.25520  0.0
    290    269    270    271   5     0.00000     0.00000     1.25520  0.0
    290    269    270    272   5     0.00000     0.00000     1.25520  0.0
    290    269    270    292   5     0.00000     0.00000     1.25520  0.0
    291    269    270    271   5     0.00000     0.00000     1.25520  0.0
    291    269    270    272   5     0.00000     0.00000     1.25520  0.0
    291    269    270    292   5     0.00000     0.00000     1.25520  0.0
    269    270    271    247   5     5.25092    -2.58990     2.28446  0.0
    269    270    271    293   5     0.00000     0.00000     1.25520  0.0
    269    270    271    294   5     0.00000     0.00000     1.25520  0.0
    272    270    271    247   5     5.25092    -2.58990     2.28446  0.0
    272    270    271    293   5     0.00000     0.00000     1.25520  0.0
    272    270    271    294   5     0.00000     0.00000     1.25520  0.0
    292    270    271    247   5     0.00000     0.00000     1.95811  0.0
    292    270    271    293   5     0.00000     0.00000     1.25520  0.0
    292    270    271    294   5     0.00000     0.00000     1.25520  0.0
    269    270    272    273   5     4.74884    -0.63178     1.67360  0.0
    269    270    272    295   5     0.00000     0.00000     1.25520  0.0
    269    270    272    296   5     0.00000     0.00000     1.25520  0.0
    271    270    272    273   5     4.74884    -0.63178     1.67360  0.0
    271    270    272    295   5     0.00000     0.00000     1.25520  0.0
    271    270    272    296   5     0.00000     0.00000     1.25520  0.0
    292    270    272    273   5     0.00000     0.00000     1.25520  0.0
    292    270    272    295   5     0.00000     0.00000     1.25520  0.0
    292    270    272    296   5     0.00000     0.00000     1.25520  0.0
    270    272    273    274   5     4.74884    -0.63178     1.67360  0.0
    270    272    273    297   5     0.00000     0.00000     1.25520  0.0
    270    272    273    298   5     0.00000     0.00000     1.25520  0.0
    295    272    273    274   5     0.00000     0.00000     1.25520  0.0
    295    272    273    297   5     0.00000     0.00000     1.25520  0.0
    295    272    273    298   5     0.00000     0.00000     1.25520  0.0
    296    272    273    274   5     0.00000     0.00000     1.25520  0.0
    296    272    273    297   5     0.00000     0.00000     1.25520  0.0
    296    272    273    298   5     0.00000     0.00000     1.25520  0.0
    272    273    274    268   5     4.74884    -0.63178     1.67360  0.0
    272    273    274    275   5     4.74884    -0.63178     1.67360  0.0
    272    273    274    299   5     0.00000     0.00000     1.25520  0.0
    297    273    274    268   5     0.00000     0.00000     1.25520  0.0
    297    273    274    275   5     0.00000     0.00000     1.25520  0.0
    297    273    274    299   5     0.00000     0.00000     1.25520  0.0
    298    273    274    268   5     0.00000     0.00000     1.25520  0.0
    298    273    274    275   5     0.00000     0.00000     1.25520  0.0
    298    273    274    299   5     0.00000     0.00000     1.25520  0.0
    268    274    275    276   5     5.25092    -2.58990     2.28446  0.0
    268    274    275    300   5     0.00000     0.00000     1.25520  0.0
    268    274    275    301   5     0.00000     0.00000     1.25520  0.0
    273    274    275    276   5     5.25092    -2.58990     2.28446  0.0
    273    274    275    300   5     0.00000     0.00000     1.25520  0.0
    273    274    275    301   5     0.00000     0.00000     1.25520  0.0
    299    274    275    276   5     0.00000     0.00000     1.95811  0.0
    299    274    275    300   5     0.00000     0.00000     1.25520  0.0
    299    274    275    301   5     0.00000     0.00000     1.25520  0.0
    274    275    276    277   5    -2.16731    -3.93296     0.98324  0.0
    300    275    276    277   5     0.00000     0.00000     0.67362  0.0
    301    275    276    277   5     0.00000     0.00000     0.67362  0.0
    275    276    277    278   5     0.00000    25.10400     0.00000  0.0
    275    276    277    279   5     5.01662    27.18345     0.00000  0.0
    276    277    279    280   5     0.00000     8.26340     0.00000  0.0
    276    277    279    287   5     0.00000     8.26340     0.00000  0.0
    278    277    279    280   5     0.00000     8.78640     0.00000  0.0
    278    277    279    287   5     0.00000     8.78640     0.00000  0.0
    277    279    280    281   5     0.00000    30.33400     0.00000  0.0
    277    279    280    302   5     0.00000    30.33400     0.00000  0.0
    287    279    280    281   5     0.00000    30.33400     0.00000  0.0
    287    279    280    302   5     0.00000    30.33400     0.00000  0.0
    277    279    287    286   5     0.00000    30.33400     0.00000  0.0
    277    279    287    305   5     0.00000    30.33400     0.00000  0.0
    280    279    287    286   5     0.00000    30.33400     0.00000  0.0
    280    279    287    305   5     0.00000    30.33400     0.00000  0.0
    279    280    281    282   5     0.00000    30.33400     0.00000  0.0
    279    280    281    303   5     0.00000    30.33400     0.00000  0.0
    302    280    281    282   5     0.00000    30.33400     0.00000  0.0
    302    280    281    303   5     0.00000    30.33400     0.00000  0.0
    280    281    282    283   5     0.00000    30.33400     0.00000  0.0
    280    281    282    286   5     0.00000    30.33400     0.00000  0.0
    303    281    282    283   5     0.00000    30.33400     0.00000  0.0
    303    281    282    286   5     0.00000    30.33400     0.00000  0.0
    281    282    283    284   5     0.00000     8.78640     0.00000  0.0
    281    282    283    285   5     0.00000     8.26340     0.00000  0.0
    286    282    283    284   5     0.00000     8.78640     0.00000  0.0
    286    282    283    285   5     0.00000     8.26340     0.00000  0.0
    281    282    286    287   5     0.00000    30.33400     0.00000  0.0
    281    282    286    304   5     0.00000    30.33400     0.00000  0.0
    283    282    286    287   5     0.00000    30.33400     0.00000  0.0
    283    282    286    304   5     0.00000    30.33400     0.00000  0.0
    282    283    285    309   5     5.01662    27.18345     0.00000  0.0
    284    283    285    309   5     0.00000    25.10400     0.00000  0.0
    283    285    309    308   5    -2.16731    -3.93296     0.98324  0.0
    283    285    309    331   5     0.00000     0.00000     0.67362  0.0
    283    285    309    332   5     0.00000     0.00000     0.67362  0.0
    282    286    287    279   5     0.00000    30.33400     0.00000  0.0
    282    286    287    305   5     0.00000    30.33400     0.00000  0.0
    304    286    287    279   5     0.00000    30.33400     0.00000  0.0
    304    286    287    305   5     0.00000    30.33400     0.00000  0.0
    312    306    307    308   5     4.74884    -0.63178     1.67360  0.0
    312    306    307    328   5     0.00000     0.00000     1.25520  0.0
    312    306    307    329   5     0.00000     0.00000     1.25520  0.0
    326    306    307    308   5     0.00000     0.00000     1.25520  0.0
    326    306    307    328   5     0.00000     0.00000     1.25520  0.0
    326    306    307    329   5     0.00000     0.00000     1.25520  0.0
    327    306    307    308   5     0.00000     0.00000     1.25520  0.0
    327    306    307    328   5     0.00000     0.00000     1.25520  0.0
    327    306    307    329   5     0.00000     0.00000     1.25520  0.0
    307    306    312    311   5     4.74884    -0.63178     1.67360  0.0
    307    306    312    313   5     4.74884    -0.63178     1.67360  0.0
    307    306    312    337   5     0.00000     0.00000     1.25520  0.0
    326    306    312    311   5     0.00000     0.00000     1.25520  0.0
    326    306    312    313   5     0.00000     0.00000     1.25520  0.0
    326    306    312    337   5     0.00000     0.00000     1.25520  0.0
    327    306    312    311   5     0.00000     0.00000     1.25520  0.0
    327    306    312    313   5     0.00000     0.00000     1.25520  0.0
    327    306    312    337   5     0.00000     0.00000     1.25520  0.0
    306    307    308    309   5     4.74884    -0.63178     1.67360  0.0
    306    307    308    310   5     4.74884    -0.63178     1.67360  0.0
    306    307    308    330   5     0.00000     0.00000     1.25520  0.0
    328    307    308    309   5     0.00000     0.00000     1.25520  0.0
    328    307    308    310   5     0.00000     0.00000     1.25520  0.0
    328    307    308    330   5     0.00000     0.00000     1.25520  0.0
    329    307    308    309   5     0.00000     0.00000     1.25520  0.0
    329    307    308    310   5     0.00000     0.00000     1.25520  0.0
    329    307    308    330   5     0.00000     0.00000     1.25520  0.0
    307    308    309    285   5     5.25092    -2.58990     2.28446  0.0
    307    308    309    331   5     0.00000     0.00000     1.25520  0.0
    307    308    309    332   5     0.00000     0.00000     1.25520  0.0
    310    308    309    285   5     5.25092    -2.58990     2.28446  0.0
    310    308    309    331   5     0.00000     0.00000     1.25520  0.0
    310    308    309    332   5     0.00000     0.00000     1.25520  0.0
    330    308    309    285   5     0.00000     0.00000     1.95811  0.0
    330    308    309    331   5     0.00000     0.00000     1.25520  0.0
    330    308    309    332   5     0.00000     0.00000     1.25520  0.0
    307    308    310    311   5     4.74884    -0.63178     1.67360  0.0
    307    308    310    333   5     0.00000     0.00000     1.25520  0.0
    307    308    310    334   5     0.00000     0.00000     1.25520  0.0
    309    308    310    311   5     4.74884    -0.63178     1.67360  0.0
    309    308    310    333   5     0.00000     0.00000     1.25520  0.0
    309    308    310    334   5     0.00000     0.00000     1.25520  0.0
    330    308    310    311   5     0.00000     0.00000     1.25520  0.0
    330    308    310    333   5     0.00000     0.00000     1.25520  0.0
    330    308    310    334   5     0.00000     0.00000     1.25520  0.0
    308    310    311    312   5     4.74884    -0.63178     1.67360  0.0
    308    310    311    335   5     0.00000     0.00000     1.25520  0.0
    308    310    311    336   5     0.00000     0.00000     1.25520  0.0
    333    310    311    312   5     0.00000     0.00000     1.25520  0.0
    333    310    311    335   5     0.00000     0.00000     1.25520  0.0
    333    310    311    336   5     0.00000     0.00000     1.25520  0.0
    334    310    311    312   5     0.00000     0.00000     1.25520  0.0
    334    310    311    335   5     0.00000     0.00000     1.25520  0.0
    334    310    311    336   5     0.00000     0.00000     1.25520  0.0
    310    311    312    306   5     4.74884    -0.63178     1.67360  0.0
    310    311    312    313   5     4.74884    -0.63178     1.67360  0.0
    310    311    312    337   5     0.00000     0.00000     1.25520  0.0
    335    311    312    306   5     0.00000     0.00000     1.25520  0.0
    335    311    312    313   5     0.00000     0.00000     1.25520  0.0
    335    311    312    337   5     0.00000     0.00000     1.25520  0.0
    336    311    312    306   5     0.00000     0.00000     1.25520  0.0
    336    311    312    313   5     0.00000     0.00000     1.25520  0.0
    336    311    312    337   5     0.00000     0.00000     1.25520  0.0
    306    312    313    314   5     5.25092    -2.58990     2.28446  0.0
    306    312    313    338   5     0.00000     0.00000     1.25520  0.0
    306    312    313    339   5     0.00000     0.00000     1.25520  0.0
    311    312    313    314   5     5.25092    -2.58990     2.28446  0.0
    311    312    313    338   5     0.00000     0.00000     1.25520  0.0
    311    312    313    339   5     0.00000     0.00000     1.25520  0.0
    337    312    313    314   5     0.00000     0.00000     1.95811  0.0
    337    312    313    338   5     0.00000     0.00000     1.25520  0.0
    337    312    313    339   5     0.00000     0.00000     1.25520  0.0
    312    313    314    315   5    -2.16731    -3.93296     0.98324  0.0
    338    313    314    315   5     0.00000     0.00000     0.67362  0.0
    339    313    314    315   5     0.00000     0.00000     0.67362  0.0
    313    314    315    316   5     0.00000    25.10400     0.00000  0.0
    313    314    315    317   5     5.01662    27.18345     0.00000  0.0
    314    315    317    318   5     0.00000     8.26340     0.00000  0.0
    314    315    317    325   5     0.00000     8.26340     0.00000  0.0
    316    315    317    318   5     0.00000     8.78640     0.00000  0.0
    316    315    317    325   5     0.00000     8.78640     0.00000  0.0
    315    317    318    319   5     0.00000    30.33400     0.00000  0.0
    315    317    318    340   5     0.00000    30.33400     0.00000  0.0
    325    317    318    319   5     0.00000    30.33400     0.00000  0.0
    325    317    318    340   5     0.00000    30.33400     0.00000  0.0
    315    317    325    324   5     0.00000    30.33400     0.00000  0.0
    315    317    325    343   5     0.00000    30.33400     0.00000  0.0
    318    317    325    324   5     0.00000    30.33400     0.00000  0.0
    318    317    325    343   5     0.00000    30.33400     0.00000  0.0
    317    318    319    320   5     0.00000    30.33400     0.00000  0.0
    317    318    319    341   5     0.00000    30.33400     0.00000  0.0
    340    318    319    320   5     0.00000    30.33400     0.00000  0.0
    340    318    319    341   5     0.00000    30.33400     0.00000  0.0
    318    319    320    321   5     0.00000    30.33400     0.00000  0.0
    318    319    320    324   5     0.00000    30.33400     0.00000  0.0
    341    319    320    321   5     0.00000    30.33400     0.00000  0.0
    341    319    320    324   5     0.00000    30.33400     0.00000  0.0
    319    320    321    322   5     0.00000     8.78640     0.00000  0.0
    319    320    321    323   5     0.00000     8.26340     0.00000  0.0
    324    320    321    322   5     0.00000     8.78640     0.00000  0.0
    324    320    321    323   5     0.00000     8.26340     0.00000  0.0
    319    320    324    325   5     0.00000    30.33400     0.00000  0.0
    319    320    324    342   5     0.00000    30.33400     0.00000  0.0
    321    320    324    325   5     0.00000    30.33400     0.00000  0.0
    321    320    324    342   5     0.00000    30.33400     0.00000  0.0
    320    321    323    347   5     5.01662    27.18345     0.00000  0.0
    322    321    323    347   5     0.00000    25.10400     0.00000  0.0
    321    323    347    346   5    -2.16731    -3.93296     0.98324  0.0
    321    323    347    369   5     0.00000     0.00000     0.67362  0.0
    321    323    347    370   5     0.00000     0.00000     0.67362  0.0
    320    324    325    317   5     0.00000    30.33400     0.00000  0.0
    320    324    325    343   5     0.00000    30.33400     0.00000  0.0
    342    324    325    317   5     0.00000    30.33400     0.00000  0.0
    342    324    325    343   5     0.00000    30.33400     0.00000  0.0
    350    344    345    346   5     4.74884    -0.63178     1.67360  0.0
    350    344    345    366   5     0.00000     0.00000     1.25520  0.0
    350    344    345    367   5     0.00000     0.00000     1.25520  0.0
    364    344    345    346   5     0.00000     0.00000     1.25520  0.0
    364    344    345    366   5     0.00000     0.00000     1.25520  0.0
    364    344    345    367   5     0.00000     0.00000     1.25520  0.0
    365    344    345    346   5     0.00000     0.00000     1.25520  0.0
    365    344    345    366   5     0.00000     0.00000     1.25520  0.0
    365    344    345    367   5     0.00000     0.00000     1.25520  0.0
    345    344    350    349   5     4.74884    -0.63178     1.67360  0.0
    345    344    350    351   5     4.74884    -0.63178     1.67360  0.0
    345    344    350    375   5     0.00000     0.00000     1.25520  0.0
    364    344    350    349   5     0.00000     0.00000     1.25520  0.0
    364    344    350    351   5     0.00000     0.00000     1.25520  0.0
    364    344    350    375   5     0.00000     0.00000     1.25520  0.0
    365    344    350    349   5     0.00000     0.00000     1.25520  0.0
    365    344    350    351   5     0.00000     0.00000     1.25520  0.0
    365    344    350    375   5     0.00000     0.00000     1.25520  0.0
    344    345    346    347   5     4.74884    -0.63178     1.67360  0.0
    344    345    346    348   5     4.74884    -0.63178     1.67360  0.0
    344    345    346    368   5     0.00000     0.00000     1.25520  0.0
    366    345    346    347   5     0.00000     0.00000     1.25520  0.0
    366    345    346    348   5     0.00000     0.00000     1.25520  0.0
    366    345    346    368   5     0.00000     0.00000     1.25520  0.0
    367    345    346    347   5     0.00000     0.00000     1.25520  0.0
    367    345    346    348   5     0.00000     0.00000     1.25520  0.0
    367    345    346    368   5     0.00000     0.00000     1.25520  0.0
    345    346    347    323   5     5.25092    -2.58990     2.28446  0.0
    345    346    347    369   5     0.00000     0.00000     1.25520  0.0
    345    346    347    370   5     0.00000     0.00000     1.25520  0.0
    348    346    347    323   5     5.25092    -2.58990     2.28446  0.0
    348    346    347    369   5     0.00000     0.00000     1.25520  0.0
    348    346    347    370   5     0.00000     0.00000     1.25520  0.0
    368    346    347    323   5     0.00000     0.00000     1.95811  0.0
    368    346    347    369   5     0.00000     0.00000     1.25520  0.0
    368    346    347    370   5     0.00000     0.00000     1.25520  0.0
    345    346    348    349   5     4.74884    -0.63178     1.67360  0.0
    345    346    348    371   5     0.00000     0.00000     1.25520  0.0
    345    346    348    372   5     0.00000     0.00000     1.25520  0.0
    347    346    348    349   5     4.74884    -0.63178     1.67360  0.0
    347    346    348    371   5     0.00000     0.00000     1.25520  0.0
    347    346    348    372   5     0.00000     0.00000     1.25520  0.0
    368    346    348    349   5     0.00000     0.00000     1.25520  0.0
    368    346    348    371   5     0.00000     0.00000     1.25520  0.0
    368    346    348    372   5     0.00000     0.00000     1.25520  0.0
    346    348    349    350   5     4.74884    -0.63178     1.67360  0.0
    346    348    349    373   5     0.00000     0.00000     1.25520  0.0
    346    348    349    374   5     0.00000     0.00000     1.25520  0.0
    371    348    349    350   5     0.00000     0.00000     1.25520  0.0
    371    348    349    373   5     0.00000     0.00000     1.25520  0.0
    371    348    349    374   5     0.00000     0.00000     1.25520  0.0
    372    348    349    350   5     0.00000     0.00000     1.25520  0.0
    372    348    349    373   5     0.00000     0.00000     1.25520  0.0
    372    348    349    374   5     0.00000     0.00000     1.25520  0.0
    348    349    350    344   5     4.74884    -0.63178     1.67360  0.0
    348    349    350    351   5     4.74884    -0.63178     1.67360  0.0
    348    349    350    375   5     0.00000     0.00000     1.25520  0.0
    373    349    350    344   5     0.00000     0.00000     1.25520  0.0
    373    349    350    351   5     0.00000     0.00000     1.25520  0.0
    373    349    350    375   5     0.00000     0.00000     1.25520  0.0
    374    349    350    344   5     0.00000     0.00000     1.25520  0.0
    374    349    350    351   5     0.00000     0.00000     1.25520  0.0
    374    349    350    375   5     0.00000     0.00000     1.25520  0.0
    344    350    351    352   5     5.25092    -2.58990     2.28446  0.0
    344    350    351    376   5     0.00000     0.00000     1.25520  0.0
    344    350    351    377   5     0.00000     0.00000     1.25520  0.0
    349    350    351    352   5     5.25092    -2.58990     2.28446  0.0
    349    350    351    376   5     0.00000     0.00000     1.25520  0.0
    349    350    351    377   5     0.00000     0.00000     1.25520  0.0
    375    350    351    352   5     0.00000     0.00000     1.95811  0.0
    375    350    351    376   5     0.00000     0.00000     1.25520  0.0
    375    350    351    377   5     0.00000     0.00000     1.25520  0.0
    350    351    352    353   5    -2.16731    -3.93296     0.98324  0.0
    376    351    352    353   5     0.00000     0.00000     0.67362  0.0
    377    351    352    353   5     0.00000     0.00000     0.67362  0.0
    351    352    353    354   5     0.00000    25.10400     0.00000  0.0
    351    352    353    355   5     5.01662    27.18345     0.00000  0.0
    352    353    355    356   5     0.00000     8.26340     0.00000  0.0
    352    353    355    363   5     0.00000     8.26340     0.00000  0.0
    354    353    355    356   5     0.00000     8.78640     0.00000  0.0
    354    353    355    363   5     0.00000     8.78640     0.00000  0.0
    353    355    356    357   5     0.00000    30.33400     0.00000  0.0
    353    355    356    378   5     0.00000    30.33400     0.00000  0.0
    363    355    356    357   5     0.00000    30.33400     0.00000  0.0
    363    355    356    378   5     0.00000    30.33400     0.00000  0.0
    353    355    363    362   5     0.00000    30.33400     0.00000  0.0
    353    355    363    381   5     0.00000    30.33400     0.00000  0.0
    356    355    363    362   5     0.00000    30.33400     0.00000  0.0
    356    355    363    381   5     0.00000    30.33400     0.00000  0.0
    355    356    357    358   5     0.00000    30.33400     0.00000  0.0
    355    356    357    379   5     0.00000    30.33400     0.00000  0.0
    378    356    357    358   5     0.00000    30.33400     0.00000  0.0
    378    356    357    379   5     0.00000    30.33400     0.00000  0.0
    356    357    358    359   5     0.00000    30.33400     0.00000  0.0
    356    357    358    362   5     0.00000    30.33400     0.00000  0.0
    379    357    358    359   5     0.00000    30.33400     0.00000  0.0
    379    357    358    362   5     0.00000    30.33400     0.00000  0.0
    357    358    359    360   5     0.00000     8.78640     0.00000  0.0
    357    358    359    361   5     0.00000     8.26340     0.00000  0.0
    362    358    359    360   5     0.00000     8.78640     0.00000  0.0
    362    358    359    361   5     0.00000     8.26340     0.00000  0.0
    357    358    362    363   5     0.00000    30.33400     0.00000  0.0
    357    358    362    380   5     0.00000    30.33400     0.00000  0.0
    359    358    362    363   5     0.00000    30.33400     0.00000  0.0
    359    358    362    380   5     0.00000    30.33400     0.00000  0.0
    358    359    361    385   5     5.01662    27.18345     0.00000  0.0
    360    359    361    385   5     0.00000    25.10400     0.00000  0.0
    359    361    385    384   5    -2.16731    -3.93296     0.98324  0.0
    359    361    385    407   5     0.00000     0.00000     0.67362  0.0
    359    361    385    408   5     0.00000     0.00000     0.67362  0.0
    358    362    363    355   5     0.00000    30.33400     0.00000  0.0
    358    362    363    381   5     0.00000    30.33400     0.00000  0.0
    380    362    363    355   5     0.00000    30.33400     0.00000  0.0
    380    362    363    381   5     0.00000    30.33400     0.00000  0.0
    388    382    383    384   5     4.74884    -0.63178     1.67360  0.0
    388    382    383    404   5     0.00000     0.00000     1.25520  0.0
    388    382    383    405   5     0.00000     0.00000     1.25520  0.0
    402    382    383    384   5     0.00000     0.00000     1.25520  0.0
    402    382    383    404   5     0.00000     0.00000     1.25520  0.0
    402    382    383    405   5     0.00000     0.00000     1.25520  0.0
    403    382    383    384   5     0.00000     0.00000     1.25520  0.0
    403    382    383    404   5     0.00000     0.00000     1.25520  0.0
    403    382    383    405   5     0.00000     0.00000     1.25520  0.0
    383    382    388    387   5     4.74884    -0.63178     1.67360  0.0
    383    382    388    389   5     4.74884    -0.63178     1.67360  0.0
    383    382    388    413   5     0.00000     0.00000     1.25520  0.0
    402    382    388    387   5     0.00000     0.00000     1.25520  0.0
    402    382    388    389   5     0.00000     0.00000     1.25520  0.0
    402    382    388    413   5     0.00000     0.00000     1.25520  0.0
    403    382    388    387   5     0.00000     0.00000     1.25520  0.0
    403    382    388    389   5     0.00000     0.00000     1.25520  0.0
    403    382    388    413   5     0.00000     0.00000     1.25520  0.0
    382    383    384    385   5     4.74884    -0.63178     1.67360  0.0
    382    383    384    386   5     4.74884    -0.63178     1.67360  0.0
    382    383    384    406   5     0.00000     0.00000     1.25520  0.0
    404    383    384    385   5     0.00000     0.00000     1.25520  0.0
    404    383    384    386   5     0.00000     0.00000     1.25520  0.0
    404    383    384    406   5     0.00000     0.00000     1.25520  0.0
    405    383    384    385   5     0.00000     0.00000     1.25520  0.0
    405    383    384    386   5     0.00000     0.00000     1.25520  0.0
    405    383    384    406   5     0.00000     0.00000     1.25520  0.0
    383    384    385    361   5     5.25092    -2.58990     2.28446  0.0
    383    384    385    407   5     0.00000     0.00000     1.25520  0.0
    383    384    385    408   5     0.00000     0.00000     1.25520  0.0
    386    384    385    361   5     5.25092    -2.58990     2.28446  0.0
    386    384    385    407   5     0.00000     0.00000     1.25520  0.0
    386    384    385    408   5     0.00000     0.00000     1.25520  0.0
    406    384    385    361   5     0.00000     0.00000     1.95811  0.0
    406    384    385    407   5     0.00000     0.00000     1.25520  0.0
    406    384    385    408   5     0.00000     0.00000     1.25520  0.0
    383    384    386    387   5     4.74884    -0.63178     1.67360  0.0
    383    384    386    409   5     0.00000     0.00000     1.25520  0.0
    383    384    386    410   5     0.00000     0.00000     1.25520  0.0
    385    384    386    387   5     4.74884    -0.63178     1.67360  0.0
    385    384    386    409   5     0.00000     0.00000     1.25520  0.0
    385    384    386    410   5     0.00000     0.00000     1.25520  0.0
    406    384    386    387   5     0.00000     0.00000     1.25520  0.0
    406    384    386    409   5     0.00000     0.00000     1.25520  0.0
    406    384    386    410   5     0.00000     0.00000     1.25520  0.0
    384    386    387    388   5     4.74884    -0.63178     1.67360  0.0
    384    386    387    411   5     0.00000     0.00000     1.25520  0.0
    384    386    387    412   5     0.00000     0.00000     1.25520  0.0
    409    386    387    388   5     0.00000     0.00000     1.25520  0.0
    409    386    387    411   5     0.00000     0.00000     1.25520  0.0
    409    386    387    412   5     0.00000     0.00000     1.25520  0.0
    410    386    387    388   5     0.00000     0.00000     1.25520  0.0
    410    386    387    411   5     0.00000     0.00000     1.25520  0.0
    410    386    387    412   5     0.00000     0.00000     1.25520  0.0
    386    387    388    382   5     4.74884    -0.63178     1.67360  0.0
    386    387    388    389   5     4.74884    -0.63178     1.67360  0.0
    386    387    388    413   5     0.00000     0.00000     1.25520  0.0
    411    387    388    382   5     0.00000     0.00000     1.25520  0.0
    411    387    388    389   5     0.00000     0.00000     1.25520  0.0
    411    387    388    413   5     0.00000     0.00000     1.25520  0.0
    412    387    388    382   5     0.00000     0.00000     1.25520  0.0
    412    387    388    389   5     0.00000     0.00000     1.25520  0.0
    412    387    388    413   5     0.00000     0.00000     1.25520  0.0
    382    388    389    390   5     5.25092    -2.58990     2.28446  0.0
    382    388    389    414   5     0.00000     0.00000     1.25520  0.0
    382    388    389    415   5     0.00000     0.00000     1.25520  0.0
    387    388    389    390   5     5.25092    -2.58990     2.28446  0.0
    387    388    389    414   5     0.00000     0.00000     1.25520  0.0
    387    388    389    415   5     0.00000     0.00000     1.25520  0.0
    413    388    389    390   5     0.00000     0.00000     1.95811  0.0
    413    388    389    414   5     0.00000     0.00000     1.25520  0.0
    413    388    389    415   5     0.00000     0.00000     1.25520  0.0
    388    389    390    391   5    -2.16731    -3.93296     0.98324  0.0
    414    389    390    391   5     0.00000     0.00000     0.67362  0.0
    415    389    390    391   5     0.00000     0.00000     0.67362  0.0
    389    390    391    392   5     0.00000    25.10400     0.00000  0.0
    389    390    391    393   5     5.01662    27.18345     0.00000  0.0
    390    391    393    394   5     0.00000     8.26340     0.00000  0.0
    390    391    393    401   5     0.00000     8.26340     0.00000  0.0
    392    391    393    394   5     0.00000     8.78640     0.00000  0.0
    392    391    393    401   5     0.00000     8.78640     0.00000  0.0
    391    393    394    395   5     0.00000    30.33400     0.00000  0.0
    391    393    394    416   5     0.00000    30.33400     0.00000  0.0
    401    393    394    395   5     0.00000    30.33400     0.00000  0.0
    401    393    394    416   5     0.00000    30.33400     0.00000  0.0
    391    393    401    400   5     0.00000    30.33400     0.00000  0.0
    391    393    401    419   5     0.00000    30.33400     0.00000  0.0
    394    393    401    400   5     0.00000    30.33400     0.00000  0.0
    394    393    401    419   5     0.00000    30.33400     0.00000  0.0
    393    394    395    396   5     0.00000    30.33400     0.00000  0.0
    393    394    395    417   5     0.00000    30.33400     0.00000  0.0
    416    394    395    396   5     0.00000    30.33400     0.00000  0.0
    416    394    395    417   5     0.00000    30.33400     0.00000  0.0
    394    395    396    397   5     0.00000    30.33400     0.00000  0.0
    394    395    396    400   5     0.00000    30.33400     0.00000  0.0
    417    395    396    397   5     0.00000    30.33400     0.00000  0.0
    417    395    396    400   5     0.00000    30.33400     0.00000  0.0
    395    396    397    398   5     0.00000     8.78640     0.00000  0.0
    395    396    397    399   5     0.00000     8.26340     0.00000  0.0
    400    396    397    398   5     0.00000     8.78640     0.00000  0.0
    400    396    397    399   5     0.00000     8.26340     0.00000  0.0
    395    396    400    401   5     0.00000    30.33400     0.00000  0.0
    395    396    400    418   5     0.00000    30.33400     0.00000  0.0
    397    396    400    401   5     0.00000    30.33400     0.00000  0.0
    397    396    400    418   5     0.00000    30.33400     0.00000  0.0
    396    397    399    423   5     5.01662    27.18345     0.00000  0.0
    398    397    399    423   5     0.00000    25.10400     0.00000  0.0
    397    399    423    422   5    -2.16731    -3.93296     0.98324  0.0
    397    399    423    445   5     0.00000     0.00000     0.67362  0.0
    397    399    423    446   5     0.00000     0.00000     0.67362  0.0
    396    400    401    393   5     0.00000    30.33400     0.00000  0.0
    396    400    401    419   5     0.00000    30.33400     0.00000  0.0
    418    400    401    393   5     0.00000    30.33400     0.00000  0.0
    418    400    401    419   5     0.00000    30.33400     0.00000  0.0
    426    420    421    422   5     4.74884    -0.63178     1.67360  0.0
    426    420    421    442   5     0.00000     0.00000     1.25520  0.0
    426    420    421    443   5     0.00000     0.00000     1.25520  0.0
    440    420    421    422   5     0.00000     0.00000     1.25520  0.0
    440    420    421    442   5     0.00000     0.00000     1.25520  0.0
    440    420    421    443   5     0.00000     0.00000     1.25520  0.0
    441    420    421    422   5     0.00000     0.00000     1.25520  0.0
    441    420    421    442   5     0.00000     0.00000     1.25520  0.0
    441    420    421    443   5     0.00000     0.00000     1.25520  0.0
    421    420    426    425   5     4.74884    -0.63178     1.67360  0.0
    421    420    426    427   5     4.74884    -0.63178     1.67360  0.0
    421    420    426    451   5     0.00000     0.00000     1.25520  0.0
    440    420    426    425   5     0.00000     0.00000     1.25520  0.0
    440    420    426    427   5     0.00000     0.00000     1.25520  0.0
    440    420    426    451   5     0.00000     0.00000     1.25520  0.0
    441    420    426    425   5     0.00000     0.00000     1.25520  0.0
    441    420    426    427   5     0.00000     0.00000     1.25520  0.0
    441    420    426    451   5     0.00000     0.00000     1.25520  0.0
    420    421    422    423   5     4.74884    -0.63178     1.67360  0.0
    420    421    422    424   5     4.74884    -0.63178     1.67360  0.0
    420    421    422    444   5     0.00000     0.00000     1.25520  0.0
    442    421    422    423   5     0.00000     0.00000     1.25520  0.0
    442    421    422    424   5     0.00000     0.00000     1.25520  0.0
    442    421    422    444   5     0.00000     0.00000     1.25520  0.0
    443    421    422    423   5     0.00000     0.00000     1.25520  0.0
    443    421    422    424   5     0.00000     0.00000     1.25520  0.0
    443    421    422    444   5     0.00000     0.00000     1.25520  0.0
    421    422    423    399   5     5.25092    -2.58990     2.28446  0.0
    421    422    423    445   5     0.00000     0.00000     1.25520  0.0
    421    422    423    446   5     0.00000     0.00000     1.25520  0.0
    424    422    423    399   5     5.25092    -2.58990     2.28446  0.0
    424    422    423    445   5     0.00000     0.00000     1.25520  0.0
    424    422    423    446   5     0.00000     0.00000     1.25520  0.0
    444    422    423    399   5     0.00000     0.00000     1.95811  0.0
    444    422    423    445   5     0.00000     0.00000     1.25520  0.0
    444    422    423    446   5     0.00000     0.00000     1.25520  0.0
    421    422    424    425   5     4.74884    -0.63178     1.67360  0.0
    421    422    424    447   5     0.00000     0.00000     1.25520  0.0
    421    422    424    448   5     0.00000     0.00000     1.25520  0.0
    423    422    424    425   5     4.74884    -0.63178     1.67360  0.0
    423    422    424    447   5     0.00000     0.00000     1.25520  0.0
    423    422    424    448   5     0.00000     0.00000     1.25520  0.0
    444    422    424    425   5     0.00000     0.00000     1.25520  0.0
    444    422    424    447   5     0.00000     0.00000     1.25520  0.0
    444    422    424    448   5     0.00000     0.00000     1.25520  0.0
    422    424    425    426   5     4.74884    -0.63178     1.67360  0.0
    422    424    425    449   5     0.00000     0.00000     1.25520  0.0
    422    424    425    450   5     0.00000     0.00000     1.25520  0.0
    447    424    425    426   5     0.00000     0.00000     1.25520  0.0
    447    424    425    449   5     0.00000     0.00000     1.25520  0.0
    447    424    425    450   5     0.00000     0.00000     1.25520  0.0
    448    424    425    426   5     0.00000     0.00000     1.25520  0.0
    448    424    425    449   5     0.00000     0.00000     1.25520  0.0
    448    424    425    450   5     0.00000     0.00000     1.25520  0.0
    424    425    426    420   5     4.74884    -0.63178     1.67360  0.0
    424    425    426    427   5     4.74884    -0.63178     1.67360  0.0
    424    425    426    451   5     0.00000     0.00000     1.25520  0.0
    449    425    426    420   5     0.00000     0.00000     1.25520  0.0
    449    425    426    427   5     0.00000     0.00000     1.25520  0.0
    449    425    426    451   5     0.00000     0.00000     1.25520  0.0
    450    425    426    420   5     0.00000     0.00000     1.25520  0.0
    450    425    426    427   5     0.00000     0.00000     1.25520  0.0
    450    425    426    451   5     0.00000     0.00000     1.25520  0.0
    420    426    427    428   5     5.25092    -2.58990     2.28446  0.0
    420    426    427    452   5     0.00000     0.00000     1.25520  0.0
    420    426    427    453   5     0.00000     0.00000     1.25520  0.0
    425    426    427    428   5     5.25092    -2.58990     2.28446  0.0
    425    426    427    452   5     0.00000     0.00000     1.25520  0.0
    425    426    427    453   5     0.00000     0.00000     1.25520  0.0
    451    426    427    428   5     0.00000     0.00000     1.95811  0.0
    451    426    427    452   5     0.00000     0.00000     1.25520  0.0
    451    426    427    453   5     0.00000     0.00000     1.25520  0.0
    426    427    428    429   5    -2.16731    -3.93296     0.98324  0.0
    452    427    428    429   5     0.00000     0.00000     0.67362  0.0
    453    427    428    429   5     0.00000     0.00000     0.67362  0.0
    427    428    429    430   5     0.00000    25.10400     0.00000  0.0
    427    428    429    431   5     5.01662    27.18345     0.00000  0.0
    428    429    431    432   5     0.00000     8.26340     0.00000  0.0
    428    429    431    439   5     0.00000     8.26340     0.00000  0.0
    430    429    431    432   5     0.00000     8.78640     0.00000  0.0
    430    429    431    439   5     0.00000     8.78640     0.00000  0.0
    429    431    432    433   5     0.00000    30.33400     0.00000  0.0
    429    431    432    454   5     0.00000    30.33400     0.00000  0.0
    439    431    432    433   5     0.00000    30.33400     0.00000  0.0
    439    431    432    454   5     0.00000    30.33400     0.00000  0.0
    429    431    439    438   5     0.00000    30.33400     0.00000  0.0
    429    431    439    457   5     0.00000    30.33400     0.00000  0.0
    432    431    439    438   5     0.00000    30.33400     0.00000  0.0
    432    431    439    457   5     0.00000    30.33400     0.00000  0.0
    431    432    433    434   5     0.00000    30.33400     0.00000  0.0
    431    432    433    455   5     0.00000    30.33400     0.00000  0.0
    454    432    433    434   5     0.00000    30.33400     0.00000  0.0
    454    432    433    455   5     0.00000    30.33400     0.00000  0.0
    432    433    434    435   5     0.00000    30.33400     0.00000  0.0
    432    433    434    438   5     0.00000    30.33400     0.00000  0.0
    455    433    434    435   5     0.00000    30.33400     0.00000  0.0
    455    433    434    438   5     0.00000    30.33400     0.00000  0.0
    433    434    435    436   5     0.00000     8.78640     0.00000  0.0
    433    434    435    437   5     0.00000     8.26340     0.00000  0.0
    438    434    435    436   5     0.00000     8.78640     0.00000  0.0
    438    434    435    437   5     0.00000     8.26340     0.00000  0.0
    433    434    438    439   5     0.00000    30.33400     0.00000  0.0
    433    434    438    456   5     0.00000    30.33400     0.00000  0.0
    435    434    438    439   5     0.00000    30.33400     0.00000  0.0
    435    434    438    456   5     0.00000    30.33400     0.00000  0.0
    434    435    437    461   5     5.01662    27.18345     0.00000  0.0
    436    435    437    461   5     0.00000    25.10400     0.00000  0.0
    435    437    461    460   5    -2.16731    -3.93296     0.98324  0.0
    435    437    461    483   5     0.00000     0.00000     0.67362  0.0
    435    437    461    484   5     0.00000     0.00000     0.67362  0.0
    434    438    439    431   5     0.00000    30.33400     0.00000  0.0
    434    438    439    457   5     0.00000    30.33400     0.00000  0.0
    456    438    439    431   5     0.00000    30.33400     0.00000  0.0
    456    438    439    457   5     0.00000    30.33400     0.00000  0.0
    464    458    459    460   5     4.74884    -0.63178     1.67360  0.0
    464    458    459    480   5     0.00000     0.00000     1.25520  0.0
    464    458    459    481   5     0.00000     0.00000     1.25520  0.0
    478    458    459    460   5     0.00000     0.00000     1.25520  0.0
    478    458    459    480   5     0.00000     0.00000     1.25520  0.0
    478    458    459    481   5     0.00000     0.00000     1.25520  0.0
    479    458    459    460   5     0.00000     0.00000     1.25520  0.0
    479    458    459    480   5     0.00000     0.00000     1.25520  0.0
    479    458    459    481   5     0.00000     0.00000     1.25520  0.0
    459    458    464    463   5     4.74884    -0.63178     1.67360  0.0
    459    458    464    465   5     4.74884    -0.63178     1.67360  0.0
    459    458    464    489   5     0.00000     0.00000     1.25520  0.0
    478    458    464    463   5     0.00000     0.00000     1.25520  0.0
    478    458    464    465   5     0.00000     0.00000     1.25520  0.0
    478    458    464    489   5     0.00000     0.00000     1.25520  0.0
    479    458    464    463   5     0.00000     0.00000     1.25520  0.0
    479    458    464    465   5     0.00000     0.00000     1.25520  0.0
    479    458    464    489   5     0.00000     0.00000     1.25520  0.0
    458    459    460    461   5     4.74884    -0.63178     1.67360  0.0
    458    459    460    462   5     4.74884    -0.63178     1.67360  0.0
    458    459    460    482   5     0.00000     0.00000     1.25520  0.0
    480    459    460    461   5     0.00000     0.00000     1.25520  0.0
    480    459    460    462   5     0.00000     0.00000     1.25520  0.0
    480    459    460    482   5     0.00000     0.00000     1.25520  0.0
    481    459    460    461   5     0.00000     0.00000     1.25520  0.0
    481    459    460    462   5     0.00000     0.00000     1.25520  0.0
    481    459    460    482   5     0.00000     0.00000     1.25520  0.0
    459    460    461    437   5     5.25092    -2.58990     2.28446  0.0
    459    460    461    483   5     0.00000     0.00000     1.25520  0.0
    459    460    461    484   5     0.00000     0.00000     1.25520  0.0
    462    460    461    437   5     5.25092    -2.58990     2.28446  0.0
    462    460    461    483   5     0.00000     0.00000     1.25520  0.0
    462    460    461    484   5     0.00000     0.00000     1.25520  0.0
    482    460    461    437   5     0.00000     0.00000     1.95811  0.0
    482    460    461    483   5     0.00000     0.00000     1.25520  0.0
    482    460    461    484   5     0.00000     0.00000     1.25520  0.0
    459    460    462    463   5     4.74884    -0.63178     1.67360  0.0
    459    460    462    485   5     0.00000     0.00000     1.25520  0.0
    459    460    462    486   5     0.00000     0.00000     1.25520  0.0
    461    460    462    463   5     4.74884    -0.63178     1.67360  0.0
    461    460    462    485   5     0.00000     0.00000     1.25520  0.0
    461    460    462    486   5     0.00000     0.00000     1.25520  0.0
    482    460    462    463   5     0.00000     0.00000     1.25520  0.0
    482    460    462    485   5     0.00000     0.00000     1.25520  0.0
    482    460    462    486   5     0.00000     0.00000     1.25520  0.0
    460    462    463    464   5     4.74884    -0.63178     1.67360  0.0
    460    462    463    487   5     0.00000     0.00000     1.25520  0.0
    460    462    463    488   5     0.00000     0.00000     1.25520  0.0
    485    462    463    464   5     0.00000     0.00000     1.25520  0.0
    485    462    463    487   5     0.00000     0.00000     1.25520  0.0
    485    462    463    488   5     0.00000     0.00000     1.25520  0.0
    486    462    463    464   5     0.00000     0.00000     1.25520  0.0
    486    462    463    487   5     0.00000     0.00000     1.25520  0.0
    486    462    463    488   5     0.00000     0.00000     1.25520  0.0
    462    463    464    458   5     4.74884    -0.63178     1.67360  0.0
    462    463    464    465   5     4.74884    -0.63178     1.67360  0.0
    462    463    464    489   5     0.00000     0.00000     1.25520  0.0
    487    463    464    458   5     0.00000     0.00000     1.25520  0.0
    487    463    464    465   5     0.00000     0.00000     1.25520  0.0
    487    463    464    489   5     0.00000     0.00000     1.25520  0.0
    488    463    464    458   5     0.00000     0.00000     1.25520  0.0
    488    463    464    465   5     0.00000     0.00000     1.25520  0.0
    488    463    464    489   5     0.00000     0.00000     1.25520  0.0
    458    464    465    466   5     5.25092    -2.58990     2.28446  0.0
    458    464    465    490   5     0.00000     0.00000     1.25520  0.0
    458    464    465    491   5     0.00000     0.00000     1.25520  0.0
    463    464    465    466   5     5.25092    -2.58990     2.28446  0.0
    463    464    465    490   5     0.00000     0.00000     1.25520  0.0
    463    464    465    491   5     0.00000     0.00000     1.25520  0.0
    489    464    465    466   5     0.00000     0.00000     1.95811  0.0
    489    464    465    490   5     0.00000     0.00000     1.25520  0.0
    489    464    465    491   5     0.00000     0.00000     1.25520  0.0
    464    465    466    467   5    -2.16731    -3.93296     0.98324  0.0
    490    465    466    467   5     0.00000     0.00000     0.67362  0.0
    491    465    466    467   5     0.00000     0.00000     0.67362  0.0
    465    466    467    468   5     0.00000    25.10400     0.00000  0.0
    465    466    467    469   5     5.01662    27.18345     0.00000  0.0
    466    467    469    470   5     0.00000     8.26340     0.00000  0.0
    466    467    469    477   5     0.00000     8.26340     0.00000  0.0
    468    467    469    470   5     0.00000     8.78640     0.00000  0.0
    468    467    469    477   5     0.00000     8.78640     0.00000  0.0
    467    469    470    471   5     0.00000    30.33400     0.00000  0.0
    467    469    470    492   5     0.00000    30.33400     0.00000  0.0
    477    469    470    471   5     0.00000    30.33400     0.00000  0.0
    477    469    470    492   5     0.00000    30.33400     0.00000  0.0
    467    469    477    476   5     0.00000    30.33400     0.00000  0.0
    467    469    477    495   5     0.00000    30.33400     0.00000  0.0
    470    469    477    476   5     0.00000    30.33400     0.00000  0.0
    470    469    477    495   5     0.00000    30.33400     0.00000  0.0
    469    470    471    472   5     0.00000    30.33400     0.00000  0.0
    469    470    471    493   5     0.00000    30.33400     0.00000  0.0
    492    470    471    472   5     0.00000    30.33400     0.00000  0.0
    492    470    471    493   5     0.00000    30.33400     0.00000  0.0
    470    471    472    473   5     0.00000    30.33400     0.00000  0.0
    470    471    472    476   5     0.00000    30.33400     0.00000  0.0
    493    471    472    473   5     0.00000    30.33400     0.00000  0.0
    493    471    472    476   5     0.00000    30.33400     0.00000  0.0
    471    472    473    474   5     0.00000     8.78640     0.00000  0.0
    471    472    473    475   5     0.00000     8.26340     0.00000  0.0
    476    472    473    474   5     0.00000     8.78640     0.00000  0.0
    476    472    473    475   5     0.00000     8.26340     0.00000  0.0
    471    472    476    477   5     0.00000    30.33400     0.00000  0.0
    471    472    476    494   5     0.00000    30.33400     0.00000  0.0
    473    472    476    477   5     0.00000    30.33400     0.00000  0.0
    473    472    476    494   5     0.00000    30.33400     0.00000  0.0
    472    473    475    499   5     5.01662    27.18345     0.00000  0.0
    474    473    475    499   5     0.00000    25.10400     0.00000  0.0
    473    475    499    498   5    -2.16731    -3.93296     0.98324  0.0
    473    475    499    521   5     0.00000     0.00000     0.67362  0.0
    473    475    499    522   5     0.00000     0.00000     0.67362  0.0
    472    476    477    469   5     0.00000    30.33400     0.00000  0.0
    472    476    477    495   5     0.00000    30.33400     0.00000  0.0
    494    476    477    469   5     0.00000    30.33400     0.00000  0.0
    494    476    477    495   5     0.00000    30.33400     0.00000  0.0
    502    496    497    498   5     4.74884    -0.63178     1.67360  0.0
    502    496    497    518   5     0.00000     0.00000     1.25520  0.0
    502    496    497    519   5     0.00000     0.00000     1.25520  0.0
    516    496    497    498   5     0.00000     0.00000     1.25520  0.0
    516    496    497    518   5     0.00000     0.00000     1.25520  0.0
    516    496    497    519   5     0.00000     0.00000     1.25520  0.0
    517    496    497    498   5     0.00000     0.00000     1.25520  0.0
    517    496    497    518   5     0.00000     0.00000     1.25520  0.0
    517    496    497    519   5     0.00000     0.00000     1.25520  0.0
    497    496    502    501   5     4.74884    -0.63178     1.67360  0.0
    497    496    502    503   5     4.74884    -0.63178     1.67360  0.0
    497    496    502    527   5     0.00000     0.00000     1.25520  0.0
    516    496    502    501   5     0.00000     0.00000     1.25520  0.0
    516    496    502    503   5     0.00000     0.00000     1.25520  0.0
    516    496    502    527   5     0.00000     0.00000     1.25520  0.0
    517    496    502    501   5     0.00000     0.00000     1.25520  0.0
    517    496    502    503   5     0.00000     0.00000     1.25520  0.0
    517    496    502    527   5     0.00000     0.00000     1.25520  0.0
    496    497    498    499   5     4.74884    -0.63178     1.67360  0.0
    496    497    498    500   5     4.74884    -0.63178     1.67360  0.0
    496    497    498    520   5     0.00000     0.00000     1.25520  0.0
    518    497    498    499   5     0.00000     0.00000     1.25520  0.0
    518    497    498    500   5     0.00000     0.00000     1.25520  0.0
    518    497    498    520   5     0.00000     0.00000     1.25520  0.0
    519    497    498    499   5     0.00000     0.00000     1.25520  0.0
    519    497    498    500   5     0.00000     0.00000     1.25520  0.0
    519    497    498    520   5     0.00000     0.00000     1.25520  0.0
    497    498    499    475   5     5.25092    -2.58990     2.28446  0.0
    497    498    499    521   5     0.00000     0.00000     1.25520  0.0
    497    498    499    522   5     0.00000     0.00000     1.25520  0.0
    500    498    499    475   5     5.25092    -2.58990     2.28446  0.0
    500    498    499    521   5     0.00000     0.00000     1.25520  0.0
    500    498    499    522   5     0.00000     0.00000     1.25520  0.0
    520    498    499    475   5     0.00000     0.00000     1.95811  0.0
    520    498    499    521   5     0.00000     0.00000     1.25520  0.0
    520    498    499    522   5     0.00000     0.00000     1.25520  0.0
    497    498    500    501   5     4.74884    -0.63178     1.67360  0.0
    497    498    500    523   5     0.00000     0.00000     1.25520  0.0
    497    498    500    524   5     0.00000     0.00000     1.25520  0.0
    499    498    500    501   5     4.74884    -0.63178     1.67360  0.0
    499    498    500    523   5     0.00000     0.00000     1.25520  0.0
    499    498    500    524   5     0.00000     0.00000     1.25520  0.0
    520    498    500    501   5     0.00000     0.00000     1.25520  0.0
    520    498    500    523   5     0.00000     0.00000     1.25520  0.0
    520    498    500    524   5     0.00000     0.00000     1.25520  0.0
    498    500    501    502   5     4.74884    -0.63178     1.67360  0.0
    498    500    501    525   5     0.00000     0.00000     1.25520  0.0
    498    500    501    526   5     0.00000     0.00000     1.25520  0.0
    523    500    501    502   5     0.00000     0.00000     1.25520  0.0
    523    500    501    525   5     0.00000     0.00000     1.25520  0.0
    523    500    501    526   5     0.00000     0.00000     1.25520  0.0
    524    500    501    502   5     0.00000     0.00000     1.25520  0.0
    524    500    501    525   5     0.00000     0.00000     1.25520  0.0
    524    500    501    526   5     0.00000     0.00000     1.25520  0.0
    500    501    502    496   5     4.74884    -0.63178     1.67360  0.0
    500    501    502    503   5     4.74884    -0.63178     1.67360  0.0
    500    501    502    527   5     0.00000     0.00000     1.25520  0.0
    525    501    502    496   5     0.00000     0.00000     1.25520  0.0
    525    501    502    503   5     0.00000     0.00000     1.25520  0.0
    525    501    502    527   5     0.00000     0.00000     1.25520  0.0
    526    501    502    496   5     0.00000     0.00000     1.25520  0.0
    526    501    502    503   5     0.00000     0.00000     1.25520  0.0
    526    501    502    527   5     0.00000     0.00000     1.25520  0.0
    496    502    503    504   5     5.25092    -2.58990     2.28446  0.0
    496    502    503    528   5     0.00000     0.00000     1.25520  0.0
    496    502    503    529   5     0.00000     0.00000     1.25520  0.0
    501    502    503    504   5     5.25092    -2.58990     2.28446  0.0
    501    502    503    528   5     0.00000     0.00000     1.25520  0.0
    501    502    503    529   5     0.00000     0.00000     1.25520  0.0
    527    502    503    504   5     0.00000     0.00000     1.95811  0.0
    527    502    503    528   5     0.00000     0.00000     1.25520  0.0
    527    502    503    529   5     0.00000     0.00000     1.25520  0.0
    502    503    504    505   5    -2.16731    -3.93296     0.98324  0.0
    528    503    504    505   5     0.00000     0.00000     0.67362  0.0
    529    503    504    505   5     0.00000     0.00000     0.67362  0.0
    503    504    505    506   5     0.00000    25.10400     0.00000  0.0
    503    504    505    507   5     5.01662    27.18345     0.00000  0.0
    504    505    507    508   5     0.00000     8.26340     0.00000  0.0
    504    505    507    515   5     0.00000     8.26340     0.00000  0.0
    506    505    507    508   5     0.00000     8.78640     0.00000  0.0
    506    505    507    515   5     0.00000     8.78640     0.00000  0.0
    505    507    508    509   5     0.00000    30.33400     0.00000  0.0
    505    507    508    530   5     0.00000    30.33400     0.00000  0.0
    515    507    508    509   5     0.00000    30.33400     0.00000  0.0
    515    507    508    530   5     0.00000    30.33400     0.00000  0.0
    505    507    515    514   5     0.00000    30.33400     0.00000  0.0
    505    507    515    533   5     0.00000    30.33400     0.00000  0.0
    508    507    515    514   5     0.00000    30.33400     0.00000  0.0
    508    507    515    533   5     0.00000    30.33400     0.00000  0.0
    507    508    509    510   5     0.00000    30.33400     0.00000  0.0
    507    508    509    531   5     0.00000    30.33400     0.00000  0.0
    530    508    509    510   5     0.00000    30.33400     0.00000  0.0
    530    508    509    531   5     0.00000    30.33400     0.00000  0.0
    508    509    510    511   5     0.00000    30.33400     0.00000  0.0
    508    509    510    514   5     0.00000    30.33400     0.00000  0.0
    531    509    510    511   5     0.00000    30.33400     0.00000  0.0
    531    509    510    514   5     0.00000    30.33400     0.00000  0.0
    509    510    511    512   5     0.00000     8.78640     0.00000  0.0
    509    510    511    513   5     0.00000     8.26340     0.00000  0.0
    514    510    511    512   5     0.00000     8.78640     0.00000  0.0
    514    510    511    513   5     0.00000     8.26340     0.00000  0.0
    509    510    514    515   5     0.00000    30.33400     0.00000  0.0
    509    510    514    532   5     0.00000    30.33400     0.00000  0.0
    511    510    514    515   5     0.00000    30.33400     0.00000  0.0
    511    510    514    532   5     0.00000    30.33400     0.00000  0.0
    510    511    513    537   5     5.01662    27.18345     0.00000  0.0
    512    511    513    537   5     0.00000    25.10400     0.00000  0.0
    511    513    537    536   5    -2.16731    -3.93296     0.98324  0.0
    511    513    537    559   5     0.00000     0.00000     0.67362  0.0
    511    513    537    560   5     0.00000     0.00000     0.67362  0.0
    510    514    515    507   5     0.00000    30.33400     0.00000  0.0
    510    514    515    533   5     0.00000    30.33400     0.00000  0.0
    532    514    515    507   5     0.00000    30.33400     0.00000  0.0
    532    514    515    533   5     0.00000    30.33400     0.00000  0.0
    540    534    535    536   5     4.74884    -0.63178     1.67360  0.0
    540    534    535    556   5     0.00000     0.00000     1.25520  0.0
    540    534    535    557   5     0.00000     0.00000     1.25520  0.0
    554    534    535    536   5     0.00000     0.00000     1.25520  0.0
    554    534    535    556   5     0.00000     0.00000     1.25520  0.0
    554    534    535    557   5     0.00000     0.00000     1.25520  0.0
    555    534    535    536   5     0.00000     0.00000     1.25520  0.0
    555    534    535    556   5     0.00000     0.00000     1.25520  0.0
    555    534    535    557   5     0.00000     0.00000     1.25520  0.0
    535    534    540    539   5     4.74884    -0.63178     1.67360  0.0
    535    534    540    541   5     4.74884    -0.63178     1.67360  0.0
    535    534    540    565   5     0.00000     0.00000     1.25520  0.0
    554    534    540    539   5     0.00000     0.00000     1.25520  0.0
    554    534    540    541   5     0.00000     0.00000     1.25520  0.0
    554    534    540    565   5     0.00000     0.00000     1.25520  0.0
    555    534    540    539   5     0.00000     0.00000     1.25520  0.0
    555    534    540    541   5     0.00000     0.00000     1.25520  0.0
    555    534    540    565   5     0.00000     0.00000     1.25520  0.0
    534    535    536    537   5     4.74884    -0.63178     1.67360  0.0
    534    535    536    538   5     4.74884    -0.63178     1.67360  0.0
    534    535    536    558   5     0.00000     0.00000     1.25520  0.0
    556    535    536    537   5     0.00000     0.00000     1.25520  0.0
    556    535    536    538   5     0.00000     0.00000     1.25520  0.0
    556    535    536    558   5     0.00000     0.00000     1.25520  0.0
    557    535    536    537   5     0.00000     0.00000     1.25520  0.0
    557    535    536    538   5     0.00000     0.00000     1.25520  0.0
    557    535    536    558   5     0.00000     0.00000     1.25520  0.0
    535    536    537    513   5     5.25092    -2.58990     2.28446  0.0
    535    536    537    559   5     0.00000     0.00000     1.25520  0.0
    535    536    537    560   5     0.00000     0.00000     1.25520  0.0
    538    536    537    513   5     5.25092    -2.58990     2.28446  0.0
    538    536    537    559   5     0.00000     0.00000     1.25520  0.0
    538    536    537    560   5     0.00000     0.00000     1.25520  0.0
    558    536    537    513   5     0.00000     0.00000     1.95811  0.0
    558    536    537    559   5     0.00000     0.00000     1.25520  0.0
    558    536    537    560   5     0.00000     0.00000     1.25520  0.0
    535    536    538    539   5     4.74884    -0.63178     1.67360  0.0
    535    536    538    561   5     0.00000     0.00000     1.25520  0.0
    535    536    538    562   5     0.00000     0.00000     1.25520  0.0
    537    536    538    539   5     4.74884    -0.63178     1.67360  0.0
    537    536    538    561   5     0.00000     0.00000     1.25520  0.0
    537    536    538    562   5     0.00000     0.00000     1.25520  0.0
    558    536    538    539   5     0.00000     0.00000     1.25520  0.0
    558    536    538    561   5     0.00000     0.00000     1.25520  0.0
    558    536    538    562   5     0.00000     0.00000     1.25520  0.0
    536    538    539    540   5     4.74884    -0.63178     1.67360  0.0
    536    538    539    563   5     0.00000     0.00000     1.25520  0.0
    536    538    539    564   5     0.00000     0.00000     1.25520  0.0
    561    538    539    540   5     0.00000     0.00000     1.25520  0.0
    561    538    539    563   5     0.00000     0.00000     1.25520  0.0
    561    538    539    564   5     0.00000     0.00000     1.25520  0.0
    562    538    539    540   5     0.00000     0.00000     1.25520  0.0
    562    538    539    563   5     0.00000     0.00000     1.25520  0.0
    562    538    539    564   5     0.00000     0.00000     1.25520  0.0
    538    539    540    534   5     4.74884    -0.63178     1.67360  0.0
    538    539    540    541   5     4.74884    -0.63178     1.67360  0.0
    538    539    540    565   5     0.00000     0.00000     1.25520  0.0
    563    539    540    534   5     0.00000     0.00000     1.25520  0.0
    563    539    540    541   5     0.00000     0.00000     1.25520  0.0
    563    539    540    565   5     0.00000     0.00000     1.25520  0.0
    564    539    540    534   5     0.00000     0.00000     1.25520  0.0
    564    539    540    541   5     0.00000     0.00000     1.25520  0.0
    564    539    540    565   5     0.00000     0.00000     1.25520  0.0
    534    540    541    542   5     5.25092    -2.58990     2.28446  0.0
    534    540    541    566   5     0.00000     0.00000     1.25520  0.0
    534    540    541    567   5     0.00000     0.00000     1.25520  0.0
    539    540    541    542   5     5.25092    -2.58990     2.28446  0.0
    539    540    541    566   5     0.00000     0.00000     1.25520  0.0
    539    540    541    567   5     0.00000     0.00000     1.25520  0.0
    565    540    541    542   5     0.00000     0.00000     1.95811  0.0
    565    540    541    566   5     0.00000     0.00000     1.25520  0.0
    565    540    541    567   5     0.00000     0.00000     1.25520  0.0
    540    541    542    543   5    -2.16731    -3.93296     0.98324  0.0
    566    541    542    543   5     0.00000     0.00000     0.67362  0.0
    567    541    542    543   5     0.00000     0.00000     0.67362  0.0
    541    542    543    544   5     0.00000    25.10400     0.00000  0.0
    541    542    543    545   5     5.01662    27.18345     0.00000  0.0
    542    543    545    546   5     0.00000     8.26340     0.00000  0.0
    542    543    545    553   5     0.00000     8.26340     0.00000  0.0
    544    543    545    546   5     0.00000     8.78640     0.00000  0.0
    544    543    545    553   5     0.00000     8.78640     0.00000  0.0
    543    545    546    547   5     0.00000    30.33400     0.00000  0.0
    543    545    546    568   5     0.00000    30.33400     0.00000  0.0
    553    545    546    547   5     0.00000    30.33400     0.00000  0.0
    553    545    546    568   5     0.00000    30.33400     0.00000  0.0
    543    545    553    552   5     0.00000    30.33400     0.00000  0.0
    543    545    553    571   5     0.00000    30.33400     0.00000  0.0
    546    545    553    552   5     0.00000    30.33400     0.00000  0.0
    546    545    553    571   5     0.00000    30.33400     0.00000  0.0
    545    546    547    548   5     0.00000    30.33400     0.00000  0.0
    545    546    547    569   5     0.00000    30.33400     0.00000  0.0
    568    546    547    548   5     0.00000    30.33400     0.00000  0.0
    568    546    547    569   5     0.00000    30.33400     0.00000  0.0
    546    547    548    549   5     0.00000    30.33400     0.00000  0.0
    546    547    548    552   5     0.00000    30.33400     0.00000  0.0
    569    547    548    549   5     0.00000    30.33400     0.00000  0.0
    569    547    548    552   5     0.00000    30.33400     0.00000  0.0
    547    548    549    550   5     0.00000     8.78640     0.00000  0.0
    547    548    549    551   5     0.00000     8.26340     0.00000  0.0
    552    548    549    550   5     0.00000     8.78640     0.00000  0.0
    552    548    549    551   5     0.00000     8.26340     0.00000  0.0
    547    548    552    553   5     0.00000    30.33400     0.00000  0.0
    547    548    552    570   5     0.00000    30.33400     0.00000  0.0
    549    548    552    553   5     0.00000    30.33400     0.00000  0.0
    549    548    552    570   5     0.00000    30.33400     0.00000  0.0
    548    549    551    575   5     5.01662    27.18345     0.00000  0.0
    550    549    551    575   5     0.00000    25.10400     0.00000  0.0
    549    551    575    574   5    -2.16731    -3.93296     0.98324  0.0
    549    551    575    597   5     0.00000     0.00000     0.67362  0.0
    549    551    575    598   5     0.00000     0.00000     0.67362  0.0
    548    552    553    545   5     0.00000    30.33400     0.00000  0.0
    548    552    553    571   5     0.00000    30.33400     0.00000  0.0
    570    552    553    545   5     0.00000    30.33400     0.00000  0.0
    570    552    553    571   5     0.00000    30.33400     0.00000  0.0
    578    572    573    574   5     4.74884    -0.63178     1.67360  0.0
    578    572    573    594   5     0.00000     0.00000     1.25520  0.0
    578    572    573    595   5     0.00000     0.00000     1.25520  0.0
    592    572    573    574   5     0.00000     0.00000     1.25520  0.0
    592    572    573    594   5     0.00000     0.00000     1.25520  0.0
    592    572    573    595   5     0.00000     0.00000     1.25520  0.0
    593    572    573    574   5     0.00000     0.00000     1.25520  0.0
    593    572    573    594   5     0.00000     0.00000     1.25520  0.0
    593    572    573    595   5     0.00000     0.00000     1.25520  0.0
    573    572    578    577   5     4.74884    -0.63178     1.67360  0.0
    573    572    578    579   5     4.74884    -0.63178     1.67360  0.0
    573    572    578    603   5     0.00000     0.00000     1.25520  0.0
    592    572    578    577   5     0.00000     0.00000     1.25520  0.0
    592    572    578    579   5     0.00000     0.00000     1.25520  0.0
    592    572    578    603   5     0.00000     0.00000     1.25520  0.0
    593    572    578    577   5     0.00000     0.00000     1.25520  0.0
    593    572    578    579   5     0.00000     0.00000     1.25520  0.0
    593    572    578    603   5     0.00000     0.00000     1.25520  0.0
    572    573    574    575   5     4.74884    -0.63178     1.67360  0.0
    572    573    574    576   5     4.74884    -0.63178     1.67360  0.0
    572    573    574    596   5     0.00000     0.00000     1.25520  0.0
    594    573    574    575   5     0.00000     0.00000     1.25520  0.0
    594    573    574    576   5     0.00000     0.00000     1.25520  0.0
    594    573    574    596   5     0.00000     0.00000     1.25520  0.0
    595    573    574    575   5     0.00000     0.00000     1.25520  0.0
    595    573    574    576   5     0.00000     0.00000     1.25520  0.0
    595    573    574    596   5     0.00000     0.00000     1.25520  0.0
    573    574    575    551   5     5.25092    -2.58990     2.28446  0.0
    573    574    575    597   5     0.00000     0.00000     1.25520  0.0
    573    574    575    598   5     0.00000     0.00000     1.25520  0.0
    576    574    575    551   5     5.25092    -2.58990     2.28446  0.0
    576    574    575    597   5     0.00000     0.00000     1.25520  0.0
    576    574    575    598   5     0.00000     0.00000     1.25520  0.0
    596    574    575    551   5     0.00000     0.00000     1.95811  0.0
    596    574    575    597   5     0.00000     0.00000     1.25520  0.0
    596    574    575    598   5     0.00000     0.00000     1.25520  0.0
    573    574    576    577   5     4.74884    -0.63178     1.67360  0.0
    573    574    576    599   5     0.00000     0.00000     1.25520  0.0
    573    574    576    600   5     0.00000     0.00000     1.25520  0.0
    575    574    576    577   5     4.74884    -0.63178     1.67360  0.0
    575    574    576    599   5     0.00000     0.00000     1.25520  0.0
    575    574    576    600   5     0.00000     0.00000     1.25520  0.0
    596    574    576    577   5     0.00000     0.00000     1.25520  0.0
    596    574    576    599   5     0.00000     0.00000     1.25520  0.0
    596    574    576    600   5     0.00000     0.00000     1.25520  0.0
    574    576    577    578   5     4.74884    -0.63178     1.67360  0.0
    574    576    577    601   5     0.00000     0.00000     1.25520  0.0
    574    576    577    602   5     0.00000     0.00000     1.25520  0.0
    599    576    577    578   5     0.00000     0.00000     1.25520  0.0
    599    576    577    601   5     0.00000     0.00000     1.25520  0.0
    599    576    577    602   5     0.00000     0.00000     1.25520  0.0
    600    576    577    578   5     0.00000     0.00000     1.25520  0.0
    600    576    577    601   5     0.00000     0.00000     1.25520  0.0
    600    576    577    602   5     0.00000     0.00000     1.25520  0.0
    576    577    578    572   5     4.74884    -0.63178     1.67360  0.0
    576    577    578    579   5     4.74884    -0.63178     1.67360  0.0
    576    577    578    603   5     0.00000     0.00000     1.25520  0.0
    601    577    578    572   5     0.00000     0.00000     1.25520  0.0
    601    577    578    579   5     0.00000     0.00000     1.25520  0.0
    601    577    578    603   5     0.00000     0.00000     1.25520  0.0
    602    577    578    572   5     0.00000     0.00000     1.25520  0.0
    602    577    578    579   5     0.00000     0.00000     1.25520  0.0
    602    577    578    603   5     0.00000     0.00000     1.25520  0.0
    572    578    579    580   5     5.25092    -2.58990     2.28446  0.0
    572    578    579    604   5     0.00000     0.00000     1.25520  0.0
    572    578    579    605   5     0.00000     0.00000     1.25520  0.0
    577    578    579    580   5     5.25092    -2.58990     2.28446  0.0
    577    578    579    604   5     0.00000     0.00000     1.25520  0.0
    577    578    579    605   5     0.00000     0.00000     1.25520  0.0
    603    578    579    580   5     0.00000     0.00000     1.95811  0.0
    603    578    579    604   5     0.00000     0.00000     1.25520  0.0
    603    578    579    605   5     0.00000     0.00000     1.25520  0.0
    578    579    580    581   5    -2.16731    -3.93296     0.98324  0.0
    604    579    580    581   5     0.00000     0.00000     0.67362  0.0
    605    579    580    581   5     0.00000     0.00000     0.67362  0.0
    579    580    581    582   5     0.00000    25.10400     0.00000  0.0
    579    580    581    583   5     5.01662    27.18345     0.00000  0.0
    580    581    583    584   5     0.00000     8.26340     0.00000  0.0
    580    581    583    591   5     0.00000     8.26340     0.00000  0.0
    582    581    583    584   5     0.00000     8.78640     0.00000  0.0
    582    581    583    591   5     0.00000     8.78640     0.00000  0.0
    581    583    584    585   5     0.00000    30.33400     0.00000  0.0
    581    583    584    606   5     0.00000    30.33400     0.00000  0.0
    591    583    584    585   5     0.00000    30.33400     0.00000  0.0
    591    583    584    606   5     0.00000    30.33400     0.00000  0.0
    581    583    591    590   5     0.00000    30.33400     0.00000  0.0
    581    583    591    609   5     0.00000    30.33400     0.00000  0.0
    584    583    591    590   5     0.00000    30.33400     0.00000  0.0
    584    583    591    609   5     0.00000    30.33400     0.00000  0.0
    583    584    585    586   5     0.00000    30.33400     0.00000  0.0
    583    584    585    607   5     0.00000    30.33400     0.00000  0.0
    606    584    585    586   5     0.00000    30.33400     0.00000  0.0
    606    584    585    607   5     0.00000    30.33400     0.00000  0.0
    584    585    586    587   5     0.00000    30.33400     0.00000  0.0
    584    585    586    590   5     0.00000    30.33400     0.00000  0.0
    607    585    586    587   5     0.00000    30.33400     0.00000  0.0
    607    585    586    590   5     0.00000    30.33400     0.00000  0.0
    585    586    587    588   5     0.00000     8.78640     0.00000  0.0
    585    586    587    589   5     0.00000     8.26340     0.00000  0.0
    590    586    587    588   5     0.00000     8.78640     0.00000  0.0
    590    586    587    589   5     0.00000     8.26340     0.00000  0.0
    585    586    590    591   5     0.00000    30.33400     0.00000  0.0
    585    586    590    608   5     0.00000    30.33400     0.00000  0.0
    587    586    590    591   5     0.00000    30.33400     0.00000  0.0
    587    586    590    608   5     0.00000    30.33400     0.00000  0.0
    586    587    589    613   5     5.01662    27.18345     0.00000  0.0
    588    587    589    613   5     0.00000    25.10400     0.00000  0.0
    587    589    613    612   5    -2.16731    -3.93296     0.98324  0.0
    587    589    613    635   5     0.00000     0.00000     0.67362  0.0
    587    589    613    636   5     0.00000     0.00000     0.67362  0.0
    586    590    591    583   5     0.00000    30.33400     0.00000  0.0
    586    590    591    609   5     0.00000    30.33400     0.00000  0.0
    608    590    591    583   5     0.00000    30.33400     0.00000  0.0
    608    590    591    609   5     0.00000    30.33400     0.00000  0.0
    616    610    611    612   5     4.74884    -0.63178     1.67360  0.0
    616    610    611    632   5     0.00000     0.00000     1.25520  0.0
    616    610    611    633   5     0.00000     0.00000     1.25520  0.0
    630    610    611    612   5     0.00000     0.00000     1.25520  0.0
    630    610    611    632   5     0.00000     0.00000     1.25520  0.0
    630    610    611    633   5     0.00000     0.00000     1.25520  0.0
    631    610    611    612   5     0.00000     0.00000     1.25520  0.0
    631    610    611    632   5     0.00000     0.00000     1.25520  0.0
    631    610    611    633   5     0.00000     0.00000     1.25520  0.0
    611    610    616    615   5     4.74884    -0.63178     1.67360  0.0
    611    610    616    617   5     4.74884    -0.63178     1.67360  0.0
    611    610    616    641   5     0.00000     0.00000     1.25520  0.0
    630    610    616    615   5     0.00000     0.00000     1.25520  0.0
    630    610    616    617   5     0.00000     0.00000     1.25520  0.0
    630    610    616    641   5     0.00000     0.00000     1.25520  0.0
    631    610    616    615   5     0.00000     0.00000     1.25520  0.0
    631    610    616    617   5     0.00000     0.00000     1.25520  0.0
    631    610    616    641   5     0.00000     0.00000     1.25520  0.0
    610    611    612    613   5     4.74884    -0.63178     1.67360  0.0
    610    611    612    614   5     4.74884    -0.63178     1.67360  0.0
    610    611    612    634   5     0.00000     0.00000     1.25520  0.0
    632    611    612    613   5     0.00000     0.00000     1.25520  0.0
    632    611    612    614   5     0.00000     0.00000     1.25520  0.0
    632    611    612    634   5     0.00000     0.00000     1.25520  0.0
    633    611    612    613   5     0.00000     0.00000     1.25520  0.0
    633    611    612    614   5     0.00000     0.00000     1.25520  0.0
    633    611    612    634   5     0.00000     0.00000     1.25520  0.0
    611    612    613    589   5     5.25092    -2.58990     2.28446  0.0
    611    612    613    635   5     0.00000     0.00000     1.25520  0.0
    611    612    613    636   5     0.00000     0.00000     1.25520  0.0
    614    612    613    589   5     5.25092    -2.58990     2.28446  0.0
    614    612    613    635   5     0.00000     0.00000     1.25520  0.0
    614    612    613    636   5     0.00000     0.00000     1.25520  0.0
    634    612    613    589   5     0.00000     0.00000     1.95811  0.0
    634    612    613    635   5     0.00000     0.00000     1.25520  0.0
    634    612    613    636   5     0.00000     0.00000     1.25520  0.0
    611    612    614    615   5     4.74884    -0.63178     1.67360  0.0
    611    612    614    637   5     0.00000     0.00000     1.25520  0.0
    611    612    614    638   5     0.00000     0.00000     1.25520  0.0
    613    612    614    615   5     4.74884    -0.63178     1.67360  0.0
    613    612    614    637   5     0.00000     0.00000     1.25520  0.0
    613    612    614    638   5     0.00000     0.00000     1.25520  0.0
    634    612    614    615   5     0.00000     0.00000     1.25520  0.0
    634    612    614    637   5     0.00000     0.00000     1.25520  0.0
    634    612    614    638   5     0.00000     0.00000     1.25520  0.0
    612    614    615    616   5     4.74884    -0.63178     1.67360  0.0
    612    614    615    639   5     0.00000     0.00000     1.25520  0.0
    612    614    615    640   5     0.00000     0.00000     1.25520  0.0
    637    614    615    616   5     0.00000     0.00000     1.25520  0.0
    637    614    615    639   5     0.00000     0.00000     1.25520  0.0
    637    614    615    640   5     0.00000     0.00000     1.25520  0.0
    638    614    615    616   5     0.00000     0.00000     1.25520  0.0
    638    614    615    639   5     0.00000     0.00000     1.25520  0.0
    638    614    615    640   5     0.00000     0.00000     1.25520  0.0
    614    615    616    610   5     4.74884    -0.63178     1.67360  0.0
    614    615    616    617   5     4.74884    -0.63178     1.67360  0.0
    614    615    616    641   5     0.00000     0.00000     1.25520  0.0
    639    615    616    610   5     0.00000     0.00000     1.25520  0.0
    639    615    616    617   5     0.00000     0.00000     1.25520  0.0
    639    615    616    641   5     0.00000     0.00000     1.25520  0.0
    640    615    616    610   5     0.00000     0.00000     1.25520  0.0
    640    615    616    617   5     0.00000     0.00000     1.25520  0.0
    640    615    616    641   5     0.00000     0.00000     1.25520  0.0
    610    616    617    618   5     5.25092    -2.58990     2.28446  0.0
    610    616    617    642   5     0.00000     0.00000     1.25520  0.0
    610    616    617    643   5     0.00000     0.00000     1.25520  0.0
    615    616    617    618   5     5.25092    -2.58990     2.28446  0.0
    615    616    617    642   5     0.00000     0.00000     1.25520  0.0
    615    616    617    643   5     0.00000     0.00000     1.25520  0.0
    641    616    617    618   5     0.00000     0.00000     1.95811  0.0
    641    616    617    642   5     0.00000     0.00000     1.25520  0.0
    641    616    617    643   5     0.00000     0.00000     1.25520  0.0
    616    617    618    619   5    -2.16731    -3.93296     0.98324  0.0
    642    617    618    619   5     0.00000     0.00000     0.67362  0.0
    643    617    618    619   5     0.00000     0.00000     0.67362  0.0
    617    618    619    620   5     0.00000    25.10400     0.00000  0.0
    617    618    619    621   5     5.01662    27.18345     0.00000  0.0
    618    619    621    622   5     0.00000     8.26340     0.00000  0.0
    618    619    621    629   5     0.00000     8.26340     0.00000  0.0
    620    619    621    622   5     0.00000     8.78640     0.00000  0.0
    620    619    621    629   5     0.00000     8.78640     0.00000  0.0
    619    621    622    623   5     0.00000    30.33400     0.00000  0.0
    619    621    622    644   5     0.00000    30.33400     0.00000  0.0
    629    621    622    623   5     0.00000    30.33400     0.00000  0.0
    629    621    622    644   5     0.00000    30.33400     0.00000  0.0
    619    621    629    628   5     0.00000    30.33400     0.00000  0.0
    619    621    629    647   5     0.00000    30.33400     0.00000  0.0
    622    621    629    628   5     0.00000    30.33400     0.00000  0.0
    622    621    629    647   5     0.00000    30.33400     0.00000  0.0
    621    622    623    624   5     0.00000    30.33400     0.00000  0.0
    621    622    623    645   5     0.00000    30.33400     0.00000  0.0
    644    622    623    624   5     0.00000    30.33400     0.00000  0.0
    644    622    623    645   5     0.00000    30.33400     0.00000  0.0
    622    623    624    625   5     0.00000    30.33400     0.00000  0.0
    622    623    624    628   5     0.00000    30.33400     0.00000  0.0
    645    623    624    625   5     0.00000    30.33400     0.00000  0.0
    645    623    624    628   5     0.00000    30.33400     0.00000  0.0
    623    624    625    626   5     0.00000     8.78640     0.00000  0.0
    623    624    625    627   5     0.00000     8.26340     0.00000  0.0
    628    624    625    626   5     0.00000     8.78640     0.00000  0.0
    628    624    625    627   5     0.00000     8.26340     0.00000  0.0
    623    624    628    629   5     0.00000    30.33400     0.00000  0.0
    623    624    628    646   5     0.00000    30.33400     0.00000  0.0
    625    624    628    629   5     0.00000    30.33400     0.00000  0.0
    625    624    628    646   5     0.00000    30.33400     0.00000  0.0
    624    625    627    651   5     5.01662    27.18345     0.00000  0.0
    626    625    627    651   5     0.00000    25.10400     0.00000  0.0
    625    627    651    650   5    -2.16731    -3.93296     0.98324  0.0
    625    627    651    673   5     0.00000     0.00000     0.67362  0.0
    625    627    651    674   5     0.00000     0.00000     0.67362  0.0
    624    628    629    621   5     0.00000    30.33400     0.00000  0.0
    624    628    629    647   5     0.00000    30.33400     0.00000  0.0
    646    628    629    621   5     0.00000    30.33400     0.00000  0.0
    646    628    629    647   5     0.00000    30.33400     0.00000  0.0
    654    648    649    650   5     4.74884    -0.63178     1.67360  0.0
    654    648    649    670   5     0.00000     0.00000     1.25520  0.0
    654    648    649    671   5     0.00000     0.00000     1.25520  0.0
    668    648    649    650   5     0.00000     0.00000     1.25520  0.0
    668    648    649    670   5     0.00000     0.00000     1.25520  0.0
    668    648    649    671   5     0.00000     0.00000     1.25520  0.0
    669    648    649    650   5     0.00000     0.00000     1.25520  0.0
    669    648    649    670   5     0.00000     0.00000     1.25520  0.0
    669    648    649    671   5     0.00000     0.00000     1.25520  0.0
    649    648    654    653   5     4.74884    -0.63178     1.67360  0.0
    649    648    654    655   5     4.74884    -0.63178     1.67360  0.0
    649    648    654    679   5     0.00000     0.00000     1.25520  0.0
    668    648    654    653   5     0.00000     0.00000     1.25520  0.0
    668    648    654    655   5     0.00000     0.00000     1.25520  0.0
    668    648    654    679   5     0.00000     0.00000     1.25520  0.0
    669    648    654    653   5     0.00000     0.00000     1.25520  0.0
    669    648    654    655   5     0.00000     0.00000     1.25520  0.0
    669    648    654    679   5     0.00000     0.00000     1.25520  0.0
    648    649    650    651   5     4.74884    -0.63178     1.67360  0.0
    648    649    650    652   5     4.74884    -0.63178     1.67360  0.0
    648    649    650    672   5     0.00000     0.00000     1.25520  0.0
    670    649    650    651   5     0.00000     0.00000     1.25520  0.0
    670    649    650    652   5     0.00000     0.00000     1.25520  0.0
    670    649    650    672   5     0.00000     0.00000     1.25520  0.0
    671    649    650    651   5     0.00000     0.00000     1.25520  0.0
    671    649    650    652   5     0.00000     0.00000     1.25520  0.0
    671    649    650    672   5     0.00000     0.00000     1.25520  0.0
    649    650    651    627   5     5.25092    -2.58990     2.28446  0.0
    649    650    651    673   5     0.00000     0.00000     1.25520  0.0
    649    650    651    674   5     0.00000     0.00000     1.25520  0.0
    652    650    651    627   5     5.25092    -2.58990     2.28446  0.0
    652    650    651    673   5     0.00000     0.00000     1.25520  0.0
    652    650    651    674   5     0.00000     0.00000     1.25520  0.0
    672    650    651    627   5     0.00000     0.00000     1.95811  0.0
    672    650    651    673   5     0.00000     0.00000     1.25520  0.0
    672    650    651    674   5     0.00000     0.00000     1.25520  0.0
    649    650    652    653   5     4.74884    -0.63178     1.67360  0.0
    649    650    652    675   5     0.00000     0.00000     1.25520  0.0
    649    650    652    676   5     0.00000     0.00000     1.25520  0.0
    651    650    652    653   5     4.74884    -0.63178     1.67360  0.0
    651    650    652    675   5     0.00000     0.00000     1.25520  0.0
    651    650    652    676   5     0.00000     0.00000     1.25520  0.0
    672    650    652    653   5     0.00000     0.00000     1.25520  0.0
    672    650    652    675   5     0.00000     0.00000     1.25520  0.0
    672    650    652    676   5     0.00000     0.00000     1.25520  0.0
    650    652    653    654   5     4.74884    -0.63178     1.67360  0.0
    650    652    653    677   5     0.00000     0.00000     1.25520  0.0
    650    652    653    678   5     0.00000     0.00000     1.25520  0.0
    675    652    653    654   5     0.00000     0.00000     1.25520  0.0
    675    652    653    677   5     0.00000     0.00000     1.25520  0.0
    675    652    653    678   5     0.00000     0.00000     1.25520  0.0
    676    652    653    654   5     0.00000     0.00000     1.25520  0.0
    676    652    653    677   5     0.00000     0.00000     1.25520  0.0
    676    652    653    678   5     0.00000     0.00000     1.25520  0.0
    652    653    654    648   5     4.74884    -0.63178     1.67360  0.0
    652    653    654    655   5     4.74884    -0.63178     1.67360  0.0
    652    653    654    679   5     0.00000     0.00000     1.25520  0.0
    677    653    654    648   5     0.00000     0.00000     1.25520  0.0
    677    653    654    655   5     0.00000     0.00000     1.25520  0.0
    677    653    654    679   5     0.00000     0.00000     1.25520  0.0
    678    653    654    648   5     0.00000     0.00000     1.25520  0.0
    678    653    654    655   5     0.00000     0.00000     1.25520  0.0
    678    653    654    679   5     0.00000     0.00000     1.25520  0.0
    648    654    655    656   5     5.25092    -2.58990     2.28446  0.0
    648    654    655    680   5     0.00000     0.00000     1.25520  0.0
    648    654    655    681   5     0.00000     0.00000     1.25520  0.0
    653    654    655    656   5     5.25092    -2.58990     2.28446  0.0
    653    654    655    680   5     0.00000     0.00000     1.25520  0.0
    653    654    655    681   5     0.00000     0.00000     1.25520  0.0
    679    654    655    656   5     0.00000     0.00000     1.95811  0.0
    679    654    655    680   5     0.00000     0.00000     1.25520  0.0
    679    654    655    681   5     0.00000     0.00000     1.25520  0.0
    654    655    656    657   5    -2.16731    -3.93296     0.98324  0.0
    680    655    656    657   5     0.00000     0.00000     0.67362  0.0
    681    655    656    657   5     0.00000     0.00000     0.67362  0.0
    655    656    657    658   5     0.00000    25.10400     0.00000  0.0
    655    656    657    659   5     5.01662    27.18345     0.00000  0.0
    656    657    659    660   5     0.00000     8.26340     0.00000  0.0
    656    657    659    667   5     0.00000     8.26340     0.00000  0.0
    658    657    659    660   5     0.00000     8.78640     0.00000  0.0
    658    657    659    667   5     0.00000     8.78640     0.00000  0.0
    657    659    660    661   5     0.00000    30.33400     0.00000  0.0
    657    659    660    682   5     0.00000    30.33400     0.00000  0.0
    667    659    660    661   5     0.00000    30.33400     0.00000  0.0
    667    659    660    682   5     0.00000    30.33400     0.00000  0.0
    657    659    667    666   5     0.00000    30.33400     0.00000  0.0
    657    659    667    685   5     0.00000    30.33400     0.00000  0.0
    660    659    667    666   5     0.00000    30.33400     0.00000  0.0
    660    659    667    685   5     0.00000    30.33400     0.00000  0.0
    659    660    661    662   5     0.00000    30.33400     0.00000  0.0
    659    660    661    683   5     0.00000    30.33400     0.00000  0.0
    682    660    661    662   5     0.00000    30.33400     0.00000  0.0
    682    660    661    683   5     0.00000    30.33400     0.00000  0.0
    660    661    662    663   5     0.00000    30.33400     0.00000  0.0
    660    661    662    666   5     0.00000    30.33400     0.00000  0.0
    683    661    662    663   5     0.00000    30.33400     0.00000  0.0
    683    661    662    666   5     0.00000    30.33400     0.00000  0.0
    661    662    663    664   5     0.00000     8.78640     0.00000  0.0
    661    662    663    665   5     0.00000     8.26340     0.00000  0.0
    666    662    663    664   5     0.00000     8.78640     0.00000  0.0
    666    662    663    665   5     0.00000     8.26340     0.00000  0.0
    661    662    666    667   5     0.00000    30.33400     0.00000  0.0
    661    662    666    684   5     0.00000    30.33400     0.00000  0.0
    663    662    666    667   5     0.00000    30.33400     0.00000  0.0
    663    662    666    684   5     0.00000    30.33400     0.00000  0.0
    662    663    665    689   5     5.01662    27.18345     0.00000  0.0
    664    663    665    689   5     0.00000    25.10400     0.00000  0.0
    663    665    689    688   5    -2.16731    -3.93296     0.98324  0.0
    663    665    689    711   5     0.00000     0.00000     0.67362  0.0
    663    665    689    712   5     0.00000     0.00000     0.67362  0.0
    662    666    667    659   5     0.00000    30.33400     0.00000  0.0
    662    666    667    685   5     0.00000    30.33400     0.00000  0.0
    684    666    667    659   5     0.00000    30.33400     0.00000  0.0
    684    666    667    685   5     0.00000    30.33400     0.00000  0.0
    692    686    687    688   5     4.74884    -0.63178     1.67360  0.0
    692    686    687    708   5     0.00000     0.00000     1.25520  0.0
    692    686    687    709   5     0.00000     0.00000     1.25520  0.0
    706    686    687    688   5     0.00000     0.00000     1.25520  0.0
    706    686    687    708   5     0.00000     0.00000     1.25520  0.0
    706    686    687    709   5     0.00000     0.00000     1.25520  0.0
    707    686    687    688   5     0.00000     0.00000     1.25520  0.0
    707    686    687    708   5     0.00000     0.00000     1.25520  0.0
    707    686    687    709   5     0.00000     0.00000     1.25520  0.0
    687    686    692    691   5     4.74884    -0.63178     1.67360  0.0
    687    686    692    693   5     4.74884    -0.63178     1.67360  0.0
    687    686    692    717   5     0.00000     0.00000     1.25520  0.0
    706    686    692    691   5     0.00000     0.00000     1.25520  0.0
    706    686    692    693   5     0.00000     0.00000     1.25520  0.0
    706    686    692    717   5     0.00000     0.00000     1.25520  0.0
    707    686    692    691   5     0.00000     0.00000     1.25520  0.0
    707    686    692    693   5     0.00000     0.00000     1.25520  0.0
    707    686    692    717   5     0.00000     0.00000     1.25520  0.0
    686    687    688    689   5     4.74884    -0.63178     1.67360  0.0
    686    687    688    690   5     4.74884    -0.63178     1.67360  0.0
    686    687    688    710   5     0.00000     0.00000     1.25520  0.0
    708    687    688    689   5     0.00000     0.00000     1.25520  0.0
    708    687    688    690   5     0.00000     0.00000     1.25520  0.0
    708    687    688    710   5     0.00000     0.00000     1.25520  0.0
    709    687    688    689   5     0.00000     0.00000     1.25520  0.0
    709    687    688    690   5     0.00000     0.00000     1.25520  0.0
    709    687    688    710   5     0.00000     0.00000     1.25520  0.0
    687    688    689    665   5     5.25092    -2.58990     2.28446  0.0
    687    688    689    711   5     0.00000     0.00000     1.25520  0.0
    687    688    689    712   5     0.00000     0.00000     1.25520  0.0
    690    688    689    665   5     5.25092    -2.58990     2.28446  0.0
    690    688    689    711   5     0.00000     0.00000     1.25520  0.0
    690    688    689    712   5     0.00000     0.00000     1.25520  0.0
    710    688    689    665   5     0.00000     0.00000     1.95811  0.0
    710    688    689    711   5     0.00000     0.00000     1.25520  0.0
    710    688    689    712   5     0.00000     0.00000     1.25520  0.0
    687    688    690    691   5     4.74884    -0.63178     1.67360  0.0
    687    688    690    713   5     0.00000     0.00000     1.25520  0.0
    687    688    690    714   5     0.00000     0.00000     1.25520  0.0
    689    688    690    691   5     4.74884    -0.63178     1.67360  0.0
    689    688    690    713   5     0.00000     0.00000     1.25520  0.0
    689    688    690    714   5     0.00000     0.00000     1.25520  0.0
    710    688    690    691   5     0.00000     0.00000     1.25520  0.0
    710    688    690    713   5     0.00000     0.00000     1.25520  0.0
    710    688    690    714   5     0.00000     0.00000     1.25520  0.0
    688    690    691    692   5     4.74884    -0.63178     1.67360  0.0
    688    690    691    715   5     0.00000     0.00000     1.25520  0.0
    688    690    691    716   5     0.00000     0.00000     1.25520  0.0
    713    690    691    692   5     0.00000     0.00000     1.25520  0.0
    713    690    691    715   5     0.00000     0.00000     1.25520  0.0
    713    690    691    716   5     0.00000     0.00000     1.25520  0.0
    714    690    691    692   5     0.00000     0.00000     1.25520  0.0
    714    690    691    715   5     0.00000     0.00000     1.25520  0.0
    714    690    691    716   5     0.00000     0.00000     1.25520  0.0
    690    691    692    686   5     4.74884    -0.63178     1.67360  0.0
    690    691    692    693   5     4.74884    -0.63178     1.67360  0.0
    690    691    692    717   5     0.00000     0.00000     1.25520  0.0
    715    691    692    686   5     0.00000     0.00000     1.25520  0.0
    715    691    692    693   5     0.00000     0.00000     1.25520  0.0
    715    691    692    717   5     0.00000     0.00000     1.25520  0.0
    716    691    692    686   5     0.00000     0.00000     1.25520  0.0
    716    691    692    693   5     0.00000     0.00000     1.25520  0.0
    716    691    692    717   5     0.00000     0.00000     1.25520  0.0
    686    692    693    694   5     5.25092    -2.58990     2.28446  0.0
    686    692    693    718   5     0.00000     0.00000     1.25520  0.0
    686    692    693    719   5     0.00000     0.00000     1.25520  0.0
    691    692    693    694   5     5.25092    -2.58990     2.28446  0.0
    691    692    693    718   5     0.00000     0.00000     1.25520  0.0
    691    692    693    719   5     0.00000     0.00000     1.25520  0.0
    717    692    693    694   5     0.00000     0.00000     1.95811  0.0
    717    692    693    718   5     0.00000     0.00000     1.25520  0.0
    717    692    693    719   5     0.00000     0.00000     1.25520  0.0
    692    693    694    695   5    -2.16731    -3.93296     0.98324  0.0
    718    693    694    695   5     0.00000     0.00000     0.67362  0.0
    719    693    694    695   5     0.00000     0.00000     0.67362  0.0
    693    694    695    696   5     0.00000    25.10400     0.00000  0.0
    693    694    695    697   5     5.01662    27.18345     0.00000  0.0
    694    695    697    698   5     0.00000     8.26340     0.00000  0.0
    694    695    697    705   5     0.00000     8.26340     0.00000  0.0
    696    695    697    698   5     0.00000     8.78640     0.00000  0.0
    696    695    697    705   5     0.00000     8.78640     0.00000  0.0
    695    697    698    699   5     0.00000    30.33400     0.00000  0.0
    695    697    698    720   5     0.00000    30.33400     0.00000  0.0
    705    697    698    699   5     0.00000    30.33400     0.00000  0.0
    705    697    698    720   5     0.00000    30.33400     0.00000  0.0
    695    697    705    704   5     0.00000    30.33400     0.00000  0.0
    695    697    705    723   5     0.00000    30.33400     0.00000  0.0
    698    697    705    704   5     0.00000    30.33400     0.00000  0.0
    698    697    705    723   5     0.00000    30.33400     0.00000  0.0
    697    698    699    700   5     0.00000    30.33400     0.00000  0.0
    697    698    699    721   5     0.00000    30.33400     0.00000  0.0
    720    698    699    700   5     0.00000    30.33400     0.00000  0.0
    720    698    699    721   5     0.00000    30.33400     0.00000  0.0
    698    699    700    701   5     0.00000    30.33400     0.00000  0.0
    698    699    700    704   5     0.00000    30.33400     0.00000  0.0
    721    699    700    701   5     0.00000    30.33400     0.00000  0.0
    721    699    700    704   5     0.00000    30.33400     0.00000  0.0
    699    700    701    702   5     0.00000     8.78640     0.00000  0.0
    699    700    701    703   5     0.00000     8.26340     0.00000  0.0
    704    700    701    702   5     0.00000     8.78640     0.00000  0.0
    704    700    701    703   5     0.00000     8.26340     0.00000  0.0
    699    700    704    705   5     0.00000    30.33400     0.00000  0.0
    699    700    704    722   5     0.00000    30.33400     0.00000  0.0
    701    700    704    705   5     0.00000    30.33400     0.00000  0.0
    701    700    704    722   5     0.00000    30.33400     0.00000  0.0
    700    701    703    727   5     5.01662    27.18345     0.00000  0.0
    702    701    703    727   5     0.00000    25.10400     0.00000  0.0
    701    703    727    726   5    -2.16731    -3.93296     0.98324  0.0
    701    703    727    749   5     0.00000     0.00000     0.67362  0.0
    701    703    727    750   5     0.00000     0.00000     0.67362  0.0
    700    704    705    697   5     0.00000    30.33400     0.00000  0.0
    700    704    705    723   5     0.00000    30.33400     0.00000  0.0
    722    704    705    697   5     0.00000    30.33400     0.00000  0.0
    722    704    705    723   5     0.00000    30.33400     0.00000  0.0
    730    724    725    726   5     4.74884    -0.63178     1.67360  0.0
    730    724    725    746   5     0.00000     0.00000     1.25520  0.0
    730    724    725    747   5     0.00000     0.00000     1.25520  0.0
    744    724    725    726   5     0.00000     0.00000     1.25520  0.0
    744    724    725    746   5     0.00000     0.00000     1.25520  0.0
    744    724    725    747   5     0.00000     0.00000     1.25520  0.0
    745    724    725    726   5     0.00000     0.00000     1.25520  0.0
    745    724    725    746   5     0.00000     0.00000     1.25520  0.0
    745    724    725    747   5     0.00000     0.00000     1.25520  0.0
    725    724    730    729   5     4.74884    -0.63178     1.67360  0.0
    725    724    730    731   5     4.74884    -0.63178     1.67360  0.0
    725    724    730    755   5     0.00000     0.00000     1.25520  0.0
    744    724    730    729   5     0.00000     0.00000     1.25520  0.0
    744    724    730    731   5     0.00000     0.00000     1.25520  0.0
    744    724    730    755   5     0.00000     0.00000     1.25520  0.0
    745    724    730    729   5     0.00000     0.00000     1.25520  0.0
    745    724    730    731   5     0.00000     0.00000     1.25520  0.0
    745    724    730    755   5     0.00000     0.00000     1.25520  0.0
    724    725    726    727   5     4.74884    -0.63178     1.67360  0.0
    724    725    726    728   5     4.74884    -0.63178     1.67360  0.0
    724    725    726    748   5     0.00000     0.00000     1.25520  0.0
    746    725    726    727   5     0.00000     0.00000     1.25520  0.0
    746    725    726    728   5     0.00000     0.00000     1.25520  0.0
    746    725    726    748   5     0.00000     0.00000     1.25520  0.0
    747    725    726    727   5     0.00000     0.00000     1.25520  0.0
    747    725    726    728   5     0.00000     0.00000     1.25520  0.0
    747    725    726    748   5     0.00000     0.00000     1.25520  0.0
    725    726    727    703   5     5.25092    -2.58990     2.28446  0.0
    725    726    727    749   5     0.00000     0.00000     1.25520  0.0
    725    726    727    750   5     0.00000     0.00000     1.25520  0.0
    728    726    727    703   5     5.25092    -2.58990     2.28446  0.0
    728    726    727    749   5     0.00000     0.00000     1.25520  0.0
    728    726    727    750   5     0.00000     0.00000     1.25520  0.0
    748    726    727    703   5     0.00000     0.00000     1.95811  0.0
    748    726    727    749   5     0.00000     0.00000     1.25520  0.0
    748    726    727    750   5     0.00000     0.00000     1.25520  0.0
    725    726    728    729   5     4.74884    -0.63178     1.67360  0.0
    725    726    728    751   5     0.00000     0.00000     1.25520  0.0
    725    726    728    752   5     0.00000     0.00000     1.25520  0.0
    727    726    728    729   5     4.74884    -0.63178     1.67360  0.0
    727    726    728    751   5     0.00000     0.00000     1.25520  0.0
    727    726    728    752   5     0.00000     0.00000     1.25520  0.0
    748    726    728    729   5     0.00000     0.00000     1.25520  0.0
    748    726    728    751   5     0.00000     0.00000     1.25520  0.0
    748    726    728    752   5     0.00000     0.00000     1.25520  0.0
    726    728    729    730   5     4.74884    -0.63178     1.67360  0.0
    726    728    729    753   5     0.00000     0.00000     1.25520  0.0
    726    728    729    754   5     0.00000     0.00000     1.25520  0.0
    751    728    729    730   5     0.00000     0.00000     1.25520  0.0
    751    728    729    753   5     0.00000     0.00000     1.25520  0.0
    751    728    729    754   5     0.00000     0.00000     1.25520  0.0
    752    728    729    730   5     0.00000     0.00000     1.25520  0.0
    752    728    729    753   5     0.00000     0.00000     1.25520  0.0
    752    728    729    754   5     0.00000     0.00000     1.25520  0.0
    728    729    730    724   5     4.74884    -0.63178     1.67360  0.0
    728    729    730    731   5     4.74884    -0.63178     1.67360  0.0
    728    729    730    755   5     0.00000     0.00000     1.25520  0.0
    753    729    730    724   5     0.00000     0.00000     1.25520  0.0
    753    729    730    731   5     0.00000     0.00000     1.25520  0.0
    753    729    730    755   5     0.00000     0.00000     1.25520  0.0
    754    729    730    724   5     0.00000     0.00000     1.25520  0.0
    754    729    730    731   5     0.00000     0.00000     1.25520  0.0
    754    729    730    755   5     0.00000     0.00000     1.25520  0.0
    724    730    731    732   5     5.25092    -2.58990     2.28446  0.0
    724    730    731    756   5     0.00000     0.00000     1.25520  0.0
    724    730    731    757   5     0.00000     0.00000     1.25520  0.0
    729    730    731    732   5     5.25092    -2.58990     2.28446  0.0
    729    730    731    756   5     0.00000     0.00000     1.25520  0.0
    729    730    731    757   5     0.00000     0.00000     1.25520  0.0
    755    730    731    732   5     0.00000     0.00000     1.95811  0.0
    755    730    731    756   5     0.00000     0.00000     1.25520  0.0
    755    730    731    757   5     0.00000     0.00000     1.25520  0.0
    730    731    732    733   5    -2.16731    -3.93296     0.98324  0.0
    756    731    732    733   5     0.00000     0.00000     0.67362  0.0
    757    731    732    733   5     0.00000     0.00000     0.67362  0.0
    731    732    733    734   5     0.00000    25.10400     0.00000  0.0
    731    732    733    735   5     5.01662    27.18345     0.00000  0.0
    732    733    735    736   5     0.00000     8.26340     0.00000  0.0
    732    733    735    743   5     0.00000     8.26340     0.00000  0.0
    734    733    735    736   5     0.00000     8.78640     0.00000  0.0
    734    733    735    743   5     0.00000     8.78640     0.00000  0.0
    733    735    736    737   5     0.00000    30.33400     0.00000  0.0
    733    735    736    758   5     0.00000    30.33400     0.00000  0.0
    743    735    736    737   5     0.00000    30.33400     0.00000  0.0
    743    735    736    758   5     0.00000    30.33400     0.00000  0.0
    733    735    743    742   5     0.00000    30.33400     0.00000  0.0
    733    735    743    761   5     0.00000    30.33400     0.00000  0.0
    736    735    743    742   5     0.00000    30.33400     0.00000  0.0
    736    735    743    761   5     0.00000    30.33400     0.00000  0.0
    735    736    737    738   5     0.00000    30.33400     0.00000  0.0
    735    736    737    759   5     0.00000    30.33400     0.00000  0.0
    758    736    737    738   5     0.00000    30.33400     0.00000  0.0
    758    736    737    759   5     0.00000    30.33400     0.00000  0.0
    736    737    738    739   5     0.00000    30.33400     0.00000  0.0
    736    737    738    742   5     0.00000    30.33400     0.00000  0.0
    759    737    738    739   5     0.00000    30.33400     0.00000  0.0
    759    737    738    742   5     0.00000    30.33400     0.00000  0.0
    737    738    739    740   5     0.00000     8.78640     0.00000  0.0
    737    738    739    741   5     0.00000     3.01248     0.00000  0.0
    742    738    739    740   5     0.00000     8.78640     0.00000  0.0
    742    738    739    741   5     0.00000     3.01248     0.00000  0.0
    737    738    742    743   5     0.00000    30.33400     0.00000  0.0
    737    738    742    760   5     0.00000    30.33400     0.00000  0.0
    739    738    742    743   5     0.00000    30.33400     0.00000  0.0
    739    738    742    760   5     0.00000    30.33400     0.00000  0.0
    738    739    741    762   5    18.89076   -16.12514     0.00000  0.0
    740    739    741    762   5     7.71530    31.30469     0.00000  0.0
    738    742    743    735   5     0.00000    30.33400     0.00000  0.0
    738    742    743    761   5     0.00000    30.33400     0.00000  0.0
    760    742    743    735   5     0.00000    30.33400     0.00000  0.0
    760    742    743    761   5     0.00000    30.33400     0.00000  0.0

[ dihedrals ]
; Improper dihedrals
; h   i   j   k   funct
      9     11     10     12   5     0.00000    87.86400     0.00000  0.0
     10     13     12     20   5     0.00000    33.47200     0.00000  0.0
     12     14     13     35   5     0.00000     9.20480     0.00000  0.0
     13     15     14     36   5     0.00000     9.20480     0.00000  0.0
     14     16     15     19   5     0.00000    33.47200     0.00000  0.0
     15     17     16     18   5     0.00000    87.86400     0.00000  0.0
     15     20     19     37   5     0.00000     9.20480     0.00000  0.0
     12     19     20     38   5     0.00000     9.20480     0.00000  0.0
     48     50     49     51   5     0.00000    87.86400     0.00000  0.0
     49     52     51     59   5     0.00000    33.47200     0.00000  0.0
     51     53     52     74   5     0.00000     9.20480     0.00000  0.0
     52     54     53     75   5     0.00000     9.20480     0.00000  0.0
     53     55     54     58   5     0.00000    33.47200     0.00000  0.0
     54     56     55     57   5     0.00000    87.86400     0.00000  0.0
     54     59     58     76   5     0.00000     9.20480     0.00000  0.0
     51     58     59     77   5     0.00000     9.20480     0.00000  0.0
     86     88     87     89   5     0.00000    87.86400     0.00000  0.0
     87     90     89     97   5     0.00000    33.47200     0.00000  0.0
     89     91     90    112   5     0.00000     9.20480     0.00000  0.0
     90     92     91    113   5     0.00000     9.20480     0.00000  0.0
     91     93     92     96   5     0.00000    33.47200     0.00000  0.0
     92     94     93     95   5     0.00000    87.86400     0.00000  0.0
     92     97     96    114   5     0.00000     9.20480     0.00000  0.0
     89     96     97    115   5     0.00000     9.20480     0.00000  0.0
    124    126    125    127   5     0.00000    87.86400     0.00000  0.0
    125    128    127    135   5     0.00000    33.47200     0.00000  0.0
    127    129    128    150   5     0.00000     9.20480     0.00000  0.0
    128    130    129    151   5     0.00000     9.20480     0.00000  0.0
    129    131    130    134   5     0.00000    33.47200     0.00000  0.0
    130    132    131    133   5     0.00000    87.86400     0.00000  0.0
    130    135    134    152   5     0.00000     9.20480     0.00000  0.0
    127    134    135    153   5     0.00000     9.20480     0.00000  0.0
    162    164    163    165   5     0.00000    87.86400     0.00000  0.0
    163    166    165    173   5     0.00000    33.47200     0.00000  0.0
    165    167    166    188   5     0.00000     9.20480     0.00000  0.0
    166    168    167    189   5     0.00000     9.20480     0.00000  0.0
    167    169    168    172   5     0.00000    33.47200     0.00000  0.0
    168    170    169    171   5     0.00000    87.86400     0.00000  0.0
    168    173    172    190   5     0.00000     9.20480     0.00000  0.0
    165    172    173    191   5     0.00000     9.20480     0.00000  0.0
    200    202    201    203   5     0.00000    87.86400     0.00000  0.0
    201    204    203    211   5     0.00000    33.47200     0.00000  0.0
    203    205    204    226   5     0.00000     9.20480     0.00000  0.0
    204    206    205    227   5     0.00000     9.20480     0.00000  0.0
    205    207    206    210   5     0.00000    33.47200     0.00000  0.0
    206    208    207    209   5     0.00000    87.86400     0.00000  0.0
    206    211    210    228   5     0.00000     9.20480     0.00000  0.0
    203    210    211    229   5     0.00000     9.20480     0.00000  0.0
    238    240    239    241   5     0.00000    87.86400     0.00000  0.0
    239    242    241    249   5     0.00000    33.47200     0.00000  0.0
    241    243    242    264   5     0.00000     9.20480     0.00000  0.0
    242    244    243    265   5     0.00000     9.20480     0.00000  0.0
    243    245    244    248   5     0.00000    33.47200     0.00000  0.0
    244    246    245    247   5     0.00000    87.86400     0.00000  0.0
    244    249    248    266   5     0.00000     9.20480     0.00000  0.0
    241    248    249    267   5     0.00000     9.20480     0.00000  0.0
    276    278    277    279   5     0.00000    87.86400     0.00000  0.0
    277    280    279    287   5     0.00000    33.47200     0.00000  0.0
    279    281    280    302   5     0.00000     9.20480     0.00000  0.0
    280    282    281    303   5     0.00000     9.20480     0.00000  0.0
    281    283    282    286   5     0.00000    33.47200     0.00000  0.0
    282    284    283    285   5     0.00000    87.86400     0.00000  0.0
    282    287    286    304   5     0.00000     9.20480     0.00000  0.0
    279    286    287    305   5     0.00000     9.20480     0.00000  0.0
    314    316    315    317   5     0.00000    87.86400     0.00000  0.0
    315    318    317    325   5     0.00000    33.47200     0.00000  0.0
    317    319    318    340   5     0.00000     9.20480     0.00000  0.0
    318    320    319    341   5     0.00000     9.20480     0.00000  0.0
    319    321    320    324   5     0.00000    33.47200     0.00000  0.0
    320    322    321    323   5     0.00000    87.86400     0.00000  0.0
    320    325    324    342   5     0.00000     9.20480     0.00000  0.0
    317    324    325    343   5     0.00000     9.20480     0.00000  0.0
    352    354    353    355   5     0.00000    87.86400     0.00000  0.0
    353    356    355    363   5     0.00000    33.47200     0.00000  0.0
    355    357    356    378   5     0.00000     9.20480     0.00000  0.0
    356    358    357    379   5     0.00000     9.20480     0.00000  0.0
    357    359    358    362   5     0.00000    33.47200     0.00000  0.0
    358    360    359    361   5     0.00000    87.86400     0.00000  0.0
    358    363    362    380   5     0.00000     9.20480     0.00000  0.0
    355    362    363    381   5     0.00000     9.20480     0.00000  0.0
    390    392    391    393   5     0.00000    87.86400     0.00000  0.0
    391    394    393    401   5     0.00000    33.47200     0.00000  0.0
    393    395    394    416   5     0.00000     9.20480     0.00000  0.0
    394    396    395    417   5     0.00000     9.20480     0.00000  0.0
    395    397    396    400   5     0.00000    33.47200     0.00000  0.0
    396    398    397    399   5     0.00000    87.86400     0.00000  0.0
    396    401    400    418   5     0.00000     9.20480     0.00000  0.0
    393    400    401    419   5     0.00000     9.20480     0.00000  0.0
    428    430    429    431   5     0.00000    87.86400     0.00000  0.0
    429    432    431    439   5     0.00000    33.47200     0.00000  0.0
    431    433    432    454   5     0.00000     9.20480     0.00000  0.0
    432    434    433    455   5     0.00000     9.20480     0.00000  0.0
    433    435    434    438   5     0.00000    33.47200     0.00000  0.0
    434    436    435    437   5     0.00000    87.86400     0.00000  0.0
    434    439    438    456   5     0.00000     9.20480     0.00000  0.0
    431    438    439    457   5     0.00000     9.20480     0.00000  0.0
    466    468    467    469   5     0.00000    87.86400     0.00000  0.0
    467    470    469    477   5     0.00000    33.47200     0.00000  0.0
    469    471    470    492   5     0.00000     9.20480     0.00000  0.0
    470    472    471    493   5     0.00000     9.20480     0.00000  0.0
    471    473    472    476   5     0.00000    33.47200     0.00000  0.0
    472    474    473    475   5     0.00000    87.86400     0.00000  0.0
    472    477    476    494   5     0.00000     9.20480     0.00000  0.0
    469    476    477    495   5     0.00000     9.20480     0.00000  0.0
    504    506    505    507   5     0.00000    87.86400     0.00000  0.0
    505    508    507    515   5     0.00000    33.47200     0.00000  0.0
    507    509    508    530   5     0.00000     9.20480     0.00000  0.0
    508    510    509    531   5     0.00000     9.20480     0.00000  0.0
    509    511    510    514   5     0.00000    33.47200     0.00000  0.0
    510    512    511    513   5     0.00000    87.86400     0.00000  0.0
    510    515    514    532   5     0.00000     9.20480     0.00000  0.0
    507    514    515    533   5     0.00000     9.20480     0.00000  0.0
    542    544    543    545   5     0.00000    87.86400     0.00000  0.0
    543    546    545    553   5     0.00000    33.47200     0.00000  0.0
    545    547    546    568   5     0.00000     9.20480     0.00000  0.0
    546    548    547    569   5     0.00000     9.20480     0.00000  0.0
    547    549    548    552   5     0.00000    33.47200     0.00000  0.0
    548    550    549    551   5     0.00000    87.86400     0.00000  0.0
    548    553    552    570   5     0.00000     9.20480     0.00000  0.0
    545    552    553    571   5     0.00000     9.20480     0.00000  0.0
    580    582    581    583   5     0.00000    87.86400     0.00000  0.0
    581    584    583    591   5     0.00000    33.47200     0.00000  0.0
    583    585    584    606   5     0.00000     9.20480     0.00000  0.0
    584    586    585    607   5     0.00000     9.20480     0.00000  0.0
    585    587    586    590   5     0.00000    33.47200     0.00000  0.0
    586    588    587    589   5     0.00000    87.86400     0.00000  0.0
    586    591    590    608   5     0.00000     9.20480     0.00000  0.0
    583    590    591    609   5     0.00000     9.20480     0.00000  0.0
    618    620    619    621   5     0.00000    87.86400     0.00000  0.0
    619    622    621    629   5     0.00000    33.47200     0.00000  0.0
    621    623    622    644   5     0.00000     9.20480     0.00000  0.0
    622    624    623    645   5     0.00000     9.20480     0.00000  0.0
    623    625    624    628   5     0.00000    33.47200     0.00000  0.0
    624    626    625    627   5     0.00000    87.86400     0.00000  0.0
    624    629    628    646   5     0.00000     9.20480     0.00000  0.0
    621    628    629    647   5     0.00000     9.20480     0.00000  0.0
    656    658    657    659   5     0.00000    87.86400     0.00000  0.0
    657    660    659    667   5     0.00000    33.47200     0.00000  0.0
    659    661    660    682   5     0.00000     9.20480     0.00000  0.0
    660    662    661    683   5     0.00000     9.20480     0.00000  0.0
    661    663    662    666   5     0.00000    33.47200     0.00000  0.0
    662    664    663    665   5     0.00000    87.86400     0.00000  0.0
    662    667    666    684   5     0.00000     9.20480     0.00000  0.0
    659    666    667    685   5     0.00000     9.20480     0.00000  0.0
    694    696    695    697   5     0.00000    87.86400     0.00000  0.0
    695    698    697    705   5     0.00000    33.47200     0.00000  0.0
    697    699    698    720   5     0.00000     9.20480     0.00000  0.0
    698    700    699    721   5     0.00000     9.20480     0.00000  0.0
    699    701    700    704   5     0.00000    33.47200     0.00000  0.0
    700    702    701    703   5     0.00000    87.86400     0.00000  0.0
    700    705    704    722   5     0.00000     9.20480     0.00000  0.0
    697    704    705    723   5     0.00000     9.20480     0.00000  0.0
    732    734    733    735   5     0.00000    87.86400     0.00000  0.0
    733    736    735    743   5     0.00000    33.47200     0.00000  0.0
    735    737    736    758   5     0.00000     9.20480     0.00000  0.0
    736    738    737    759   5     0.00000     9.20480     0.00000  0.0
    737    739    738    742   5     0.00000    33.47200     0.00000  0.0
    738    740    739    741   5     0.00000    87.86400     0.00000  0.0
    738    743    742    760   5     0.00000     9.20480     0.00000  0.0
    735    742    743    761   5     0.00000     9.20480     0.00000  0.0
